<?xml version="1.0"?>
<VTKFile type="UnstructuredGrid"  version="0.1"  >
<UnstructuredGrid>
<Piece  NumberOfPoints="10201" NumberOfCells="20000">
<Points>
<DataArray  type="Float64"  NumberOfComponents="3"  format="ascii">0 0 0  0.01 0 0  0.02 0 0  0.03 0 0  0.04 0 0  0.05 0 0  0.06 0 0  0.07000000000000001 0 0  0.08 0 0  0.09 0 0  0.1 0 0  0.11 0 0  0.12 0 0  0.13 0 0  0.14 0 0  0.15 0 0  0.16 0 0  0.17 0 0  0.18 0 0  0.19 0 0  0.2 0 0  0.21 0 0  0.22 0 0  0.23 0 0  0.24 0 0  0.25 0 0  0.26 0 0  0.27 0 0  0.28 0 0  0.29 0 0  0.3 0 0  0.31 0 0  0.32 0 0  0.33 0 0  0.34 0 0  0.35 0 0  0.36 0 0  0.37 0 0  0.38 0 0  0.39 0 0  0.4 0 0  0.41 0 0  0.42 0 0  0.43 0 0  0.44 0 0  0.45 0 0  0.46 0 0  0.47 0 0  0.48 0 0  0.49 0 0  0.5 0 0  0.51 0 0  0.52 0 0  0.53 0 0  0.54 0 0  0.55 0 0  0.5600000000000001 0 0  0.57 0 0  0.58 0 0  0.59 0 0  0.6 0 0  0.61 0 0  0.62 0 0  0.63 0 0  0.64 0 0  0.65 0 0  0.66 0 0  0.67 0 0  0.68 0 0  0.6899999999999999 0 0  0.7 0 0  0.71 0 0  0.72 0 0  0.73 0 0  0.74 0 0  0.75 0 0  0.76 0 0  0.77 0 0  0.78 0 0  0.79 0 0  0.8 0 0  0.8100000000000001 0 0  0.82 0 0  0.83 0 0  0.84 0 0  0.85 0 0  0.86 0 0  0.87 0 0  0.88 0 0  0.89 0 0  0.9 0 0  0.91 0 0  0.92 0 0  0.93 0 0  0.9399999999999999 0 0  0.95 0 0  0.96 0 0  0.97 0 0  0.98 0 0  0.99 0 0  1 0 0  0 0.01 0  0.01 0.01 0  0.02 0.01 0  0.03 0.01 0  0.04 0.01 0  0.05 0.01 0  0.06 0.01 0  0.07000000000000001 0.01 0  0.08 0.01 0  0.09 0.01 0  0.1 0.01 0  0.11 0.01 0  0.12 0.01 0  0.13 0.01 0  0.14 0.01 0  0.15 0.01 0  0.16 0.01 0  0.17 0.01 0  0.18 0.01 0  0.19 0.01 0  0.2 0.01 0  0.21 0.01 0  0.22 0.01 0  0.23 0.01 0  0.24 0.01 0  0.25 0.01 0  0.26 0.01 0  0.27 0.01 0  0.28 0.01 0  0.29 0.01 0  0.3 0.01 0  0.31 0.01 0  0.32 0.01 0  0.33 0.01 0  0.34 0.01 0  0.35 0.01 0  0.36 0.01 0  0.37 0.01 0  0.38 0.01 0  0.39 0.01 0  0.4 0.01 0  0.41 0.01 0  0.42 0.01 0  0.43 0.01 0  0.44 0.01 0  0.45 0.01 0  0.46 0.01 0  0.47 0.01 0  0.48 0.01 0  0.49 0.01 0  0.5 0.01 0  0.51 0.01 0  0.52 0.01 0  0.53 0.01 0  0.54 0.01 0  0.55 0.01 0  0.5600000000000001 0.01 0  0.57 0.01 0  0.58 0.01 0  0.59 0.01 0  0.6 0.01 0  0.61 0.01 0  0.62 0.01 0  0.63 0.01 0  0.64 0.01 0  0.65 0.01 0  0.66 0.01 0  0.67 0.01 0  0.68 0.01 0  0.6899999999999999 0.01 0  0.7 0.01 0  0.71 0.01 0  0.72 0.01 0  0.73 0.01 0  0.74 0.01 0  0.75 0.01 0  0.76 0.01 0  0.77 0.01 0  0.78 0.01 0  0.79 0.01 0  0.8 0.01 0  0.8100000000000001 0.01 0  0.82 0.01 0  0.83 0.01 0  0.84 0.01 0  0.85 0.01 0  0.86 0.01 0  0.87 0.01 0  0.88 0.01 0  0.89 0.01 0  0.9 0.01 0  0.91 0.01 0  0.92 0.01 0  0.93 0.01 0  0.9399999999999999 0.01 0  0.95 0.01 0  0.96 0.01 0  0.97 0.01 0  0.98 0.01 0  0.99 0.01 0  1 0.01 0  0 0.02 0  0.01 0.02 0  0.02 0.02 0  0.03 0.02 0  0.04 0.02 0  0.05 0.02 0  0.06 0.02 0  0.07000000000000001 0.02 0  0.08 0.02 0  0.09 0.02 0  0.1 0.02 0  0.11 0.02 0  0.12 0.02 0  0.13 0.02 0  0.14 0.02 0  0.15 0.02 0  0.16 0.02 0  0.17 0.02 0  0.18 0.02 0  0.19 0.02 0  0.2 0.02 0  0.21 0.02 0  0.22 0.02 0  0.23 0.02 0  0.24 0.02 0  0.25 0.02 0  0.26 0.02 0  0.27 0.02 0  0.28 0.02 0  0.29 0.02 0  0.3 0.02 0  0.31 0.02 0  0.32 0.02 0  0.33 0.02 0  0.34 0.02 0  0.35 0.02 0  0.36 0.02 0  0.37 0.02 0  0.38 0.02 0  0.39 0.02 0  0.4 0.02 0  0.41 0.02 0  0.42 0.02 0  0.43 0.02 0  0.44 0.02 0  0.45 0.02 0  0.46 0.02 0  0.47 0.02 0  0.48 0.02 0  0.49 0.02 0  0.5 0.02 0  0.51 0.02 0  0.52 0.02 0  0.53 0.02 0  0.54 0.02 0  0.55 0.02 0  0.5600000000000001 0.02 0  0.57 0.02 0  0.58 0.02 0  0.59 0.02 0  0.6 0.02 0  0.61 0.02 0  0.62 0.02 0  0.63 0.02 0  0.64 0.02 0  0.65 0.02 0  0.66 0.02 0  0.67 0.02 0  0.68 0.02 0  0.6899999999999999 0.02 0  0.7 0.02 0  0.71 0.02 0  0.72 0.02 0  0.73 0.02 0  0.74 0.02 0  0.75 0.02 0  0.76 0.02 0  0.77 0.02 0  0.78 0.02 0  0.79 0.02 0  0.8 0.02 0  0.8100000000000001 0.02 0  0.82 0.02 0  0.83 0.02 0  0.84 0.02 0  0.85 0.02 0  0.86 0.02 0  0.87 0.02 0  0.88 0.02 0  0.89 0.02 0  0.9 0.02 0  0.91 0.02 0  0.92 0.02 0  0.93 0.02 0  0.9399999999999999 0.02 0  0.95 0.02 0  0.96 0.02 0  0.97 0.02 0  0.98 0.02 0  0.99 0.02 0  1 0.02 0  0 0.03 0  0.01 0.03 0  0.02 0.03 0  0.03 0.03 0  0.04 0.03 0  0.05 0.03 0  0.06 0.03 0  0.07000000000000001 0.03 0  0.08 0.03 0  0.09 0.03 0  0.1 0.03 0  0.11 0.03 0  0.12 0.03 0  0.13 0.03 0  0.14 0.03 0  0.15 0.03 0  0.16 0.03 0  0.17 0.03 0  0.18 0.03 0  0.19 0.03 0  0.2 0.03 0  0.21 0.03 0  0.22 0.03 0  0.23 0.03 0  0.24 0.03 0  0.25 0.03 0  0.26 0.03 0  0.27 0.03 0  0.28 0.03 0  0.29 0.03 0  0.3 0.03 0  0.31 0.03 0  0.32 0.03 0  0.33 0.03 0  0.34 0.03 0  0.35 0.03 0  0.36 0.03 0  0.37 0.03 0  0.38 0.03 0  0.39 0.03 0  0.4 0.03 0  0.41 0.03 0  0.42 0.03 0  0.43 0.03 0  0.44 0.03 0  0.45 0.03 0  0.46 0.03 0  0.47 0.03 0  0.48 0.03 0  0.49 0.03 0  0.5 0.03 0  0.51 0.03 0  0.52 0.03 0  0.53 0.03 0  0.54 0.03 0  0.55 0.03 0  0.5600000000000001 0.03 0  0.57 0.03 0  0.58 0.03 0  0.59 0.03 0  0.6 0.03 0  0.61 0.03 0  0.62 0.03 0  0.63 0.03 0  0.64 0.03 0  0.65 0.03 0  0.66 0.03 0  0.67 0.03 0  0.68 0.03 0  0.6899999999999999 0.03 0  0.7 0.03 0  0.71 0.03 0  0.72 0.03 0  0.73 0.03 0  0.74 0.03 0  0.75 0.03 0  0.76 0.03 0  0.77 0.03 0  0.78 0.03 0  0.79 0.03 0  0.8 0.03 0  0.8100000000000001 0.03 0  0.82 0.03 0  0.83 0.03 0  0.84 0.03 0  0.85 0.03 0  0.86 0.03 0  0.87 0.03 0  0.88 0.03 0  0.89 0.03 0  0.9 0.03 0  0.91 0.03 0  0.92 0.03 0  0.93 0.03 0  0.9399999999999999 0.03 0  0.95 0.03 0  0.96 0.03 0  0.97 0.03 0  0.98 0.03 0  0.99 0.03 0  1 0.03 0  0 0.04 0  0.01 0.04 0  0.02 0.04 0  0.03 0.04 0  0.04 0.04 0  0.05 0.04 0  0.06 0.04 0  0.07000000000000001 0.04 0  0.08 0.04 0  0.09 0.04 0  0.1 0.04 0  0.11 0.04 0  0.12 0.04 0  0.13 0.04 0  0.14 0.04 0  0.15 0.04 0  0.16 0.04 0  0.17 0.04 0  0.18 0.04 0  0.19 0.04 0  0.2 0.04 0  0.21 0.04 0  0.22 0.04 0  0.23 0.04 0  0.24 0.04 0  0.25 0.04 0  0.26 0.04 0  0.27 0.04 0  0.28 0.04 0  0.29 0.04 0  0.3 0.04 0  0.31 0.04 0  0.32 0.04 0  0.33 0.04 0  0.34 0.04 0  0.35 0.04 0  0.36 0.04 0  0.37 0.04 0  0.38 0.04 0  0.39 0.04 0  0.4 0.04 0  0.41 0.04 0  0.42 0.04 0  0.43 0.04 0  0.44 0.04 0  0.45 0.04 0  0.46 0.04 0  0.47 0.04 0  0.48 0.04 0  0.49 0.04 0  0.5 0.04 0  0.51 0.04 0  0.52 0.04 0  0.53 0.04 0  0.54 0.04 0  0.55 0.04 0  0.5600000000000001 0.04 0  0.57 0.04 0  0.58 0.04 0  0.59 0.04 0  0.6 0.04 0  0.61 0.04 0  0.62 0.04 0  0.63 0.04 0  0.64 0.04 0  0.65 0.04 0  0.66 0.04 0  0.67 0.04 0  0.68 0.04 0  0.6899999999999999 0.04 0  0.7 0.04 0  0.71 0.04 0  0.72 0.04 0  0.73 0.04 0  0.74 0.04 0  0.75 0.04 0  0.76 0.04 0  0.77 0.04 0  0.78 0.04 0  0.79 0.04 0  0.8 0.04 0  0.8100000000000001 0.04 0  0.82 0.04 0  0.83 0.04 0  0.84 0.04 0  0.85 0.04 0  0.86 0.04 0  0.87 0.04 0  0.88 0.04 0  0.89 0.04 0  0.9 0.04 0  0.91 0.04 0  0.92 0.04 0  0.93 0.04 0  0.9399999999999999 0.04 0  0.95 0.04 0  0.96 0.04 0  0.97 0.04 0  0.98 0.04 0  0.99 0.04 0  1 0.04 0  0 0.05 0  0.01 0.05 0  0.02 0.05 0  0.03 0.05 0  0.04 0.05 0  0.05 0.05 0  0.06 0.05 0  0.07000000000000001 0.05 0  0.08 0.05 0  0.09 0.05 0  0.1 0.05 0  0.11 0.05 0  0.12 0.05 0  0.13 0.05 0  0.14 0.05 0  0.15 0.05 0  0.16 0.05 0  0.17 0.05 0  0.18 0.05 0  0.19 0.05 0  0.2 0.05 0  0.21 0.05 0  0.22 0.05 0  0.23 0.05 0  0.24 0.05 0  0.25 0.05 0  0.26 0.05 0  0.27 0.05 0  0.28 0.05 0  0.29 0.05 0  0.3 0.05 0  0.31 0.05 0  0.32 0.05 0  0.33 0.05 0  0.34 0.05 0  0.35 0.05 0  0.36 0.05 0  0.37 0.05 0  0.38 0.05 0  0.39 0.05 0  0.4 0.05 0  0.41 0.05 0  0.42 0.05 0  0.43 0.05 0  0.44 0.05 0  0.45 0.05 0  0.46 0.05 0  0.47 0.05 0  0.48 0.05 0  0.49 0.05 0  0.5 0.05 0  0.51 0.05 0  0.52 0.05 0  0.53 0.05 0  0.54 0.05 0  0.55 0.05 0  0.5600000000000001 0.05 0  0.57 0.05 0  0.58 0.05 0  0.59 0.05 0  0.6 0.05 0  0.61 0.05 0  0.62 0.05 0  0.63 0.05 0  0.64 0.05 0  0.65 0.05 0  0.66 0.05 0  0.67 0.05 0  0.68 0.05 0  0.6899999999999999 0.05 0  0.7 0.05 0  0.71 0.05 0  0.72 0.05 0  0.73 0.05 0  0.74 0.05 0  0.75 0.05 0  0.76 0.05 0  0.77 0.05 0  0.78 0.05 0  0.79 0.05 0  0.8 0.05 0  0.8100000000000001 0.05 0  0.82 0.05 0  0.83 0.05 0  0.84 0.05 0  0.85 0.05 0  0.86 0.05 0  0.87 0.05 0  0.88 0.05 0  0.89 0.05 0  0.9 0.05 0  0.91 0.05 0  0.92 0.05 0  0.93 0.05 0  0.9399999999999999 0.05 0  0.95 0.05 0  0.96 0.05 0  0.97 0.05 0  0.98 0.05 0  0.99 0.05 0  1 0.05 0  0 0.06 0  0.01 0.06 0  0.02 0.06 0  0.03 0.06 0  0.04 0.06 0  0.05 0.06 0  0.06 0.06 0  0.07000000000000001 0.06 0  0.08 0.06 0  0.09 0.06 0  0.1 0.06 0  0.11 0.06 0  0.12 0.06 0  0.13 0.06 0  0.14 0.06 0  0.15 0.06 0  0.16 0.06 0  0.17 0.06 0  0.18 0.06 0  0.19 0.06 0  0.2 0.06 0  0.21 0.06 0  0.22 0.06 0  0.23 0.06 0  0.24 0.06 0  0.25 0.06 0  0.26 0.06 0  0.27 0.06 0  0.28 0.06 0  0.29 0.06 0  0.3 0.06 0  0.31 0.06 0  0.32 0.06 0  0.33 0.06 0  0.34 0.06 0  0.35 0.06 0  0.36 0.06 0  0.37 0.06 0  0.38 0.06 0  0.39 0.06 0  0.4 0.06 0  0.41 0.06 0  0.42 0.06 0  0.43 0.06 0  0.44 0.06 0  0.45 0.06 0  0.46 0.06 0  0.47 0.06 0  0.48 0.06 0  0.49 0.06 0  0.5 0.06 0  0.51 0.06 0  0.52 0.06 0  0.53 0.06 0  0.54 0.06 0  0.55 0.06 0  0.5600000000000001 0.06 0  0.57 0.06 0  0.58 0.06 0  0.59 0.06 0  0.6 0.06 0  0.61 0.06 0  0.62 0.06 0  0.63 0.06 0  0.64 0.06 0  0.65 0.06 0  0.66 0.06 0  0.67 0.06 0  0.68 0.06 0  0.6899999999999999 0.06 0  0.7 0.06 0  0.71 0.06 0  0.72 0.06 0  0.73 0.06 0  0.74 0.06 0  0.75 0.06 0  0.76 0.06 0  0.77 0.06 0  0.78 0.06 0  0.79 0.06 0  0.8 0.06 0  0.8100000000000001 0.06 0  0.82 0.06 0  0.83 0.06 0  0.84 0.06 0  0.85 0.06 0  0.86 0.06 0  0.87 0.06 0  0.88 0.06 0  0.89 0.06 0  0.9 0.06 0  0.91 0.06 0  0.92 0.06 0  0.93 0.06 0  0.9399999999999999 0.06 0  0.95 0.06 0  0.96 0.06 0  0.97 0.06 0  0.98 0.06 0  0.99 0.06 0  1 0.06 0  0 0.07000000000000001 0  0.01 0.07000000000000001 0  0.02 0.07000000000000001 0  0.03 0.07000000000000001 0  0.04 0.07000000000000001 0  0.05 0.07000000000000001 0  0.06 0.07000000000000001 0  0.07000000000000001 0.07000000000000001 0  0.08 0.07000000000000001 0  0.09 0.07000000000000001 0  0.1 0.07000000000000001 0  0.11 0.07000000000000001 0  0.12 0.07000000000000001 0  0.13 0.07000000000000001 0  0.14 0.07000000000000001 0  0.15 0.07000000000000001 0  0.16 0.07000000000000001 0  0.17 0.0700
[...]
<PointData  Scalars="u"> 
<DataArray  type="Float64"  Name="u"  format="ascii">0.0000000000000000e+00  0.0000000000000000e+00  0.0000000000000000e+00  0.0000000000000000e+00  0.0000000000000000e+00  0.0000000000000000e+00  0.0000000000000000e+00  0.0000000000000000e+00  0.0000000000000000e+00  0.0000000000000000e+00  0.0000000000000000e+00  0.0000000000000000e+00  0.0000000000000000e+00  0.0000000000000000e+00  0.0000000000000000e+00  0.0000000000000000e+00  0.0000000000000000e+00  0.0000000000000000e+00  0.0000000000000000e+00  0.0000000000000000e+00  0.0000000000000000e+00  0.0000000000000000e+00  0.0000000000000000e+00  0.0000000000000000e+00  0.0000000000000000e+00  0.0000000000000000e+00  0.0000000000000000e+00  0.0000000000000000e+00  0.0000000000000000e+00  0.0000000000000000e+00  0.0000000000000000e+00  0.0000000000000000e+00  0.0000000000000000e+00  0.0000000000000000e+00  0.0000000000000000e+00  0.0000000000000000e+00  0.0000000000000000e+00  0.0000000000000000e+00  0.0000000000000000e+00  0.0000000000000000e+00  0.0000000000000000e+00  0.0000000000000000e+00  0.0000000000000000e+00  0.0000000000000000e+00  0.0000000000000000e+00  0.0000000000000000e+00  0.0000000000000000e+00  0.0000000000000000e+00  0.0000000000000000e+00  0.0000000000000000e+00  0.0000000000000000e+00  0.0000000000000000e+00  0.0000000000000000e+00  0.0000000000000000e+00  0.0000000000000000e+00  0.0000000000000000e+00  0.0000000000000000e+00  0.0000000000000000e+00  0.0000000000000000e+00  0.0000000000000000e+00  0.0000000000000000e+00  0.0000000000000000e+00  0.0000000000000000e+00  0.0000000000000000e+00  0.0000000000000000e+00  0.0000000000000000e+00  0.0000000000000000e+00  0.0000000000000000e+00  0.0000000000000000e+00  0.0000000000000000e+00  0.0000000000000000e+00  0.0000000000000000e+00  0.0000000000000000e+00  0.0000000000000000e+00  0.0000000000000000e+00  0.0000000000000000e+00  0.0000000000000000e+00  0.0000000000000000e+00  0.0000000000000000e+00  0.0000000000000000e+00  0.0000000000000000e+00  0.0000000000000000e+00  0.0000000000000000e+00  0.0000000000000000e+00  0.0000000000000000e+00  0.0000000000000000e+00  0.0000000000000000e+00  0.0000000000000000e+00  0.0000000000000000e+00  0.0000000000000000e+00  0.0000000000000000e+00  0.0000000000000000e+00  0.0000000000000000e+00  0.0000000000000000e+00  0.0000000000000000e+00  0.0000000000000000e+00  0.0000000000000000e+00  0.0000000000000000e+00  0.0000000000000000e+00  0.0000000000000000e+00  0.0000000000000000e+00  0.0000000000000000e+00  -1.7225510544031826e-02  -6.1867180190799086e-02  -1.9444689214562567e-02  -1.8458825413086011e-02  1.6181618093476912e-02  -1.4271109365548158e-02  -1.4531629706093393e-02  3.3983749315842297e-02  -5.4020010242392870e-02  -2.6218818288117141e-03  6.5370329979659345e-02  -2.1663398051218398e-02  -8.0120509590686506e-02  4.2656517011908500e-02  -1.9813754514456591e-02  -3.5973434826822872e-03  1.2549337942492933e-02  -3.3996559025142141e-02  8.7600853081230945e-02  -5.7837639751960115e-02  4.9740868652066166e-02  -6.0812960167329198e-02  2.0319295082832933e-02  -1.0750419898835090e-02  5.5417337860331886e-02  -6.1828959720443999e-02  3.5590966951336976e-02  -1.6836928149115905e-02  -9.7544138208882324e-03  5.2952710459340264e-03  4.9441722189508937e-02  -6.9544816998625317e-02  1.4012682982614780e-02  5.4301839453022157e-04  1.7769100996769575e-03  1.7964200431465519e-02  1.4139965408042042e-02  3.8740100252531481e-02  3.3692352378692238e-03  -2.7079844256936190e-02  -1.8211078324204041e-02  -8.9571344488569675e-03  -1.9595910196730629e-02  1.0619595587057315e-02  3.5474171746260122e-02  -4.2836646595209894e-02  2.0287311584672868e-02  -6.3387925299207386e-03  9.3007888872624102e-03  -9.4701895851308105e-03  9.5646226230651291e-03  2.0883047812793594e-03  -8.2126191762956057e-03  -2.4204552566034999e-03  3.8949129813432601e-03  5.1739360299258757e-03  -4.9850481677063312e-03  3.3559428605438625e-03  -1.4257265982376480e-03  9.8096187413039635e-04  -7.0416064237540125e-04  -3.6351884867578526e-04  2.3345924087126343e-04  -1.0643014924617005e-04  2.9312321732795148e-04  3.9016515214643688e-04  -1.3740597412224235e-04  2.2656182714674106e-04  1.0814189196575088e-03  -4.8141384867667622e-04  -6.0105163059375832e-04  7.9650775203873208e-04  -1.3438071064463921e-03  -3.0900864303573246e-03  -3.6651946266878771e-04  2.8218676432573047e-03  1.7652149385673492e-03  2.8966666063672789e-04  -1.2948099679520919e-04  -1.3159934201316259e-04  -2.8774331853147808e-04  2.6614827574327556e-04  7.3091161593992178e-04  4.1589607824926483e-04  -1.0435915449203728e-04  -2.2297548167216937e-04  -1.7676043421143190e-04  7.5697717964242627e-05  -3.3732878667015688e-05  -1.0302517745411732e-04  -6.3413871949575108e-05  -2.5738106253826704e-05  -1.6928632661354584e-05  4.5505281650683847e-06  1.0596799601709985e-05  1.2417034846960395e-05  1.3243584446990954e-05  1.2781649925325443e-05  1.0444858624032100e-05  0.0000000000000000e+00  0.0000000000000000e+00  -1.0546518100459949e-02  -1.6612407474786178e-02  4.6483746336848007e-02  -3.0757613366044115e-02  -5.9069916224233091e-02  -1.0011872540183752e-02  4.5534716729980641e-02  -3.3840863404262629e-02  -7.4959124557848048e-02  1.2218080960631875e-01  -8.9044381810123793e-02  -2.3854128429308903e-02  1.0284715850403103e-01  -1.0472335426449371e-01  -8.6217816325200883e-02  7.3973569707172560e-02  -4.3721730549807304e-02  6.6024871358107778e-02  -1.6477111755953400e-02  -1.4032883798366058e-02  9.2900840998390660e-02  -1.0561808737855914e-01  1.1964269733517953e-02  4.5312601953598305e-02  -2.2288073770285272e-02  -2.3286750921247597e-02  3.1499151752059563e-02  1.2151314308992448e-02  -4.0203724134219732e-03  -8.8576478105466344e-02  9.2930570317639238e-02  2.1707437402099180e-02  -5.8628702449708539e-02  -3.6908554108675974e-02  1.7823009060659839e-02  2.7927454666960529e-02  5.4226228134422058e-02  2.9046369097208990e-02  1.2285987754163954e-03  4.3900462842741579e-02  -4.4310117412506386e-02  -7.3603628259244935e-02  4.9180049152834106e-04  2.6418740770948802e-03  4.0943382222604893e-02  -3.0666689454200497e-02  1.9317273332175530e-02  -3.2212533432888962e-02  4.1257654812030725e-02  -2.6379302036555460e-02  1.5283317062570646e-02  3.1209441014046354e-04  7.2734246395615640e-03  -2.4111336561162766e-02  8.3680032183802711e-03  8.7030182753557259e-03  -2.3246770129511999e-04  -3.3587488854891967e-03  3.9764757420542481e-03  -2.1591806497459139e-03  1.7925983304495352e-03  -2.1479467908405445e-03  5.4475895530380894e-04  -1.4618886360840915e-04  1.6841861884829350e-04  6.1933449795423528e-04  5.1704466258257055e-04  -5.1721204094922716e-04  1.6087236609900477e-03  1.0686046659397243e-03  -1.8956002402282634e-03  4.4712773713075852e-04  4.9278796039704451e-04  -4.6500410551583819e-03  -4.4185246399128840e-03  2.7774379881870732e-03  4.9371992254544882e-03  1.5624255482668177e-03  -1.4756870023385974e-04  -1.9619109865600407e-04  -3.7875860063644833e-04  -1.9121243895361178e-04  1.0613726825029713e-03  1.2687678587542488e-03  2.3632337076619477e-04  -2.7699985211519660e-04  -4.3717437091436853e-04  -3.1871139301687732e-05  1.2662980237577645e-04  -1.3946500068419537e-04  -1.5849410512410887e-04  -7.3008059614699709e-05  -4.4294371215082382e-05  -2.4325059372810994e-05  6.4178980214056935e-06  4.2877312614930209e-06  8.9198509809450994e-06  1.1183158905618189e-05  1.8517125222691621e-05  0.0000000000000000e+00  0.0000000000000000e+00  4.7735476138925759e-02  4.4615925835032724e-02  -1.2404433288088895e-01  5.4024607400769378e-02  1.2451838826735640e-02  2.8847174341732250e-02  -5.7451870517055484e-02  1.1051659677613080e-02  7.1330568038650052e-02  -2.0165649338910593e-01  1.1664047799733551e-01  1.1497520178314852e-01  -1.4715516439513410e-01  -9.6659925730631563e-02  1.1923384093852926e-01  -1.3456865597319662e-01  2.0376342556083657e-02  5.2637954921900415e-05  -2.6954361546354565e-02  2.1097405581022746e-01  -1.9937248741267838e-01  1.8793124104414963e-01  -2.1566443850031611e-01  7.0177952626810522e-02  1.6626054628714936e-02  1.1632684267315273e-01  -1.9947577377689521e-01  1.1940360180346504e-01  -2.9818329977515236e-02  9.2657052980202543e-04  -4.5775703451653889e-02  1.3619423608177425e-01  -1.5267822794306932e-01  4.9980898638732313e-02  -2.9717254098751283e-02  -2.8243193303059237e-03  5.0756341881346499e-02  6.4080246893063991e-02  1.0203403470290764e-01  -2.5484077137948955e-02  -3.4769828173278512e-02  -3.1106045899030810e-02  -5.4581430762663849e-02  -4.6626199837395750e-02  3.9932994322157911e-02  1.0171702182600104e-01  -1.3378364683404637e-01  7.8292441945980146e-02  -4.1233539487248366e-02  4.5388040003921236e-02  -3.8865679338219036e-02  3.2816949160960486e-02  -3.7717181294584283e-05  -1.3674618475929505e-02  -1.5384092763430999e-02  1.3469311409098969e-02  1.4249522293013572e-02  -1.2467130165412494e-02  6.8884921754807302e-03  -2.2933007638712179e-03  1.5258560799972230e-03  -9.2248116383305699e-04  -1.4908377625560802e-03  8.6216535098601989e-04  -3.8997196175978230e-04  6.9187880890309137e-04  1.0326559166219940e-03  -1.7691076595867912e-04  2.2554914535817373e-04  3.0443585085588574e-03  -7.6827517071394744e-04  -2.1628627781785791e-03  2.1337545232166487e-03  -2.6828678589975964e-03  -8.3883231519991039e-03  -2.1002792072255016e-03  7.5108174021568091e-03  5.2355963727249415e-03  5.9910380761639479e-04  -6.5034966529289135e-04  -4.4238887197993768e-04  -7.6464269269018977e-04  5.5308334633109250e-04  1.9930328770065221e-03  1.2825264032522697e-03  -2.2642866298234148e-04  -5.4775147147588282e-04  -4.8958585262114823e-04  2.2681890277807961e-04  1.5195537467173182e-05  -2.3724101312087479e-04  -1.5923843784329317e-04  -6.3021778786143340e-05  -5.1934063833076487e-05  -9.5231641617152004e-06  6.8893394434720780e-06  2.1188238223272141e-06  -5.0365474822799262e-08  -1.5141250148771661e-06  0.0000000000000000e+00  0.0000000000000000e+00  -5.6481496894341017e-02  -5.1288299257698886e-02  6.4006419710878629e-02  3.8819650923732539e-02  -4.4599563404911606e-02  -5.9701586685163052e-02  6.1857277928715079e-02  6.4133866062235229e-02  -5.4587167799083250e-02  -2.9721358513205932e-02  8.1141690516424475e-02  -1.2826336788900011e-01  9.9533067567903089e-02  9.9342092450720496e-02  -2.8101872004680462e-01  -3.3131683762473517e-02  9.7596104839724196e-02  -6.8006440702212345e-02  8.7068864909284727e-02  -7.7703044324242909e-02  1.1315368257496872e-01  4.8545902546062163e-02  -8.4245363449665572e-02  -6.2195789042944635e-02  6.9679587624140532e-02  -4.0645826351150834e-02  6.2812506437596088e-02  -4.0313595630632491e-02  4.5893058036852750e-02  -3.7201318041513325e-02  -1.1799315580847468e-01  1.5031943112095994e-01  8.1658518553641868e-02  -1.8794628119759924e-01  -2.3042254612141971e-02  4.1056662694329719e-02  4.0016781762569821e-02  8.3478256204006479e-02  5.0805402876633467e-02  6.1497360984162898e-02  6.1295204205217273e-02  -1.0857451121498751e-01  -1.1452994517408140e-01  3.6091724826280160e-03  -2.1924330300359791e-02  6.9393009462812891e-02  1.0680352502958453e-02  -3.2122532185080925e-02  -1.6574618444942481e-02  5.0073272013738700e-02  -2.4636936684986673e-02  8.2184309952589348e-03  1.3099233708992672e-02  1.0730734400545816e-02  -4.3037480583126349e-02  8.7246586905588824e-03  1.7488523258018522e-02  4.4461640222787967e-03  -9.7577558376598997e-03  8.5615279058503940e-03  -4.5033791297253069e-03  3.3049794553112245e-03  -3.7412277086884050e-03  4.9267710245416848e-04  2.5316399673681096e-05  8.2946226494397647e-05  1.1344487105525828e-03  1.0926198968145338e-03  -9.7351092768580287e-04  2.4683311343998240e-03  2.6319946321589479e-03  -3.2531526126425153e-03  -7.1361598770242884e-05  1.6305861155486386e-03  -7.8906656128873275e-03  -9.4744680835448861e-03  3.7342137073371339e-03  1.0206883113449130e-02  3.9412982136455936e-03  -2.9886247930153569e-04  -7.3881234744038455e-04  -9.0204034037003327e-04  -6.6604628891343029e-04  1.7307597512858895e-03  2.5044930932998635e-03  6.8285438965373689e-04  -5.7467801267631520e-04  -8.5645478872571807e-04  -2.1793215332938543e-04  2.7492582023674037e-04  -1.8564427226534661e-04  -2.8597538136179555e-04  -1.3276244840145583e-04  -6.6397535059140177e-05  -4.2054229342596266e-05  9.1611964347182780e-06  5.4287577413561735e-06  4.5004934990184625e-06  -8.6574208119055817e-07  0.0000000000000000e+00  0.0000000000000000e+00  1.2954054039230531e-01  9.3785475132859314e-02  -1.6871303410195243e-02  -1.5045434612042918e-01  1.3940049947641023e-01  2.2532059418184248e-02  -1.2830255806398705e-02  -5.1237979202236404e-02  7.7068564566941500e-02  5.7450088732710992e-02  -2.3674262264242951e-01  2.4338505529668891e-01  3.5143513460413320e-02  -1.7033735093913532e-01  1.3495183677531426e-02  4.1489254787956127e-02  -2.3080378669613458e-01  7.8747356522170242e-02  -7.5563620085964634e-03  3.9309370411264921e-02  1.9383584279969041e-01  -2.2886401474111134e-01  2.6929438088553342e-01  -3.0505775701095200e-01  9.8654963095870948e-02  5.0631539537980830e-02  8.2070051830006902e-02  -2.3257600362973466e-01  1.6933126641294224e-01  -9.2950555676723258e-03  -1.9478101789559263e-02  -1.2818990667578234e-01  2.2008332403085856e-01  -1.3008070237259398e-01  7.1014144253232015e-03  -7.5931558438535524e-02  7.1754585803209831e-03  9.2840033520626683e-02  1.2025823097676068e-01  1.2264510389467420e-01  -3.1637257265557148e-02  5.8206678884787566e-03  -7.0259835495385337e-02  -1.2611152340251527e-01  -4.9042829072917973e-02  5.5030646739185236e-02  1.3646192392769677e-01  -1.6453352622264816e-01  9.9234968745459992e-02  -6.6276635355033919e-02  7.9804253976149792e-02  -5.9935034718187646e-02  4.6411027862388779e-02  1.4307174627000007e-03  -1.1238693380469978e-02  -3.4631694522700561e-02  2.1132043826706314e-02  2.1907703103415308e-02  -1.3990574546766501e-02  5.7276455782920713e-03  -4.5724151748357991e-04  4.9694871708295767e-04  -2.2268255025032391e-04  -3.0043584772099087e-03  1.2530370616954693e-03  -5.8423383728474455e-04  8.0426937117210632e-04  1.5798435720927727e-03  6.4191515001152451e-05  -9.5994365548740708e-05  4.5015624755906534e-03  -1.6328886231966591e-04  -3.8260540208234625e-03  2.5926124993681720e-03  -2.7555715813814075e-03  -1.2737227014792477e-02  -5.5145412792543666e-03  1.0492579938857419e-02  9.6133545032287358e-03  1.8873714667071168e-03  -8.8240278825890369e-04  -7.9515195382165861e-04  -1.2697294000548617e-03  3.9808518636216507e-04  2.9119350987242814e-03  2.2429133162497998e-03  -1.3452141408270676e-04  -8.9237809136734185e-04  -8.8057391786752705e-04  1.6066658914050131e-04  7.0404687897209896e-05  -3.5372433021908681e-04  -2.7755467910756164e-04  -1.1395014499163914e-04  -7.7777273825206973e-05  -1.8728825482728282e-05  1.5902612651567168e-05  7.6783374954576282e-06  2.4259001830735943e-06  0.0000000000000000e+00  0.0000000000000000e+00  -1.1501902067433838e-01  -5.2618606969483478e-02  2.9523680741184787e-02  1.3277090150902271e-01  -4.8274339963834914e-02  -3.1737258773844430e-02  -2.5958352415939252e-02  9.5497496525518241e-02  3.6440942706914961e-02  -2.7790372926916020e-02  -2.5522877181191482e-03  -3.0541276151434836e-02  -7.9758656817001828e-03  1.7107710044045074e-01  -1.4066117798767448e-02  -3.0548985611199142e-01  4.7629324551813054e-02  2.9382331711460485e-02  -6.0484096168079829e-02  6.1218975306944742e-02  -4.6124632931912386e-02  2.2582780471669961e-01  -4.6501902318453039e-02  -9.5756189735459775e-04  -1.8804806706891658e-01  1.0649071072292228e-01  5.4062932701258162e-03  1.1358996838071296e-01  -1.5509020659310821e-01  9.1709813381044156e-02  -4.2833698919041825e-02  -9.7429551368093517e-02  1.2673938426490899e-01  1.2825987784993850e-01  -2.6690722970434977e-01  1.3145287686508094e-02  3.0285384864397920e-02  3.2693655742195599e-02  1.0537880414706297e-01  1.0361365802091831e-01  1.2629040592758370e-01  3.3515534868437682e-02  -1.2806862906528296e-01  -1.2792751727690513e-01  -3.3295352912429695e-02  -4.9166707814858338e-02  9.8011274684622007e-02  6.0836050591014566e-02  -1.0300110249524379e-01  2.5739159357592536e-02  2.7833957469848628e-02  2.6177228053826207e-03  -1.3547588083570112e-02  3.2882028286322022e-02  8.3919300635666091e-03  -4.8813330323613680e-02  -1.9298400324636931e-03  2.7823112984241172e-02  9.3868034462142487e-03  -1.3746289667796539e-02  1.0472822430561779e-02  -4.7887048522279388e-03  3.5350701127961951e-03  -4.1087642984175259e-03  -2.1734529760455623e-04  3.7563380327726144e-04  -1.1476803284600403e-04  1.4051877087754457e-03  1.6066030116684432e-03  -1.1510700483581839e-03  2.7012266985586330e-03  4.1359873143704635e-03  -3.6555988460708088e-03  -1.2723733872847275e-03  2.4293362080071114e-03  -9.6527590057045223e-03  -1.4119646767840530e-02  2.7385601767183870e-03  1.4464295432765119e-02  7.0766863877739540e-03  2.9445718280239486e-05  -1.0907983490367674e-03  -1.2467052990195720e-03  -1.0216245400129441e-03  2.0713521692076907e-03  3.5837732161914482e-03  1.3127974455175956e-03  -7.3215325654361787e-04  -1.2216035538505005e-03  -4.9521717915770034e-04  2.9056096514967311e-04  -2.1043172269277611e-04  -4.2683611203214711e-04  -2.3291994469869524e-04  -1.1564545565884427e-04  -7.3109151142910912e-05  -3.5099841809229555e-07  1.1241668153961090e-05  9.0144492360369678e-06  0.0000000000000000e+00  0.0000000000000000e+00  5.2516638262858253e-02  4.3112629862704026e-02  -2.3869617199336078e-02  -1.1109681055764978e-01  -7.5408447144362997e-02  1.6351235272597306e-01  2.8311331412375048e-03  -5.9320595115258112e-02  -1.2101582175282616e-02  9.6730589163010833e-02  3.6172759118103526e-02  -1.8221607565268191e-01  2.0138570314208593e-01  -9.0870932461357343e-03  -6.1543363352626022e-02  3.0177551985633651e-02  -1.0369464577058483e-01  -1.9942010797213627e-01  9.8655134331746830e-02  8.9350553689288379e-03  6.2101973972737874e-02  1.2579831632888472e-01  -1.1876122376272104e-01  2.3608398726942670e-01  -2.6496215932276840e-01  4.0850991936408100e-02  6.2143463661689470e-02  5.1237156423927274e-02  -1.5121027583809984e-01  1.2922404971721399e-01  2.7106622510175264e-02  -7.4128853799472150e-02  -1.5182917699919879e-01  2.7479325873496158e-01  -6.5726256432315069e-02  -1.0728533570626209e-01  -7.9364725516693962e-02  2.5332567285542833e-02  1.2359903241666738e-01  1.5242456710057564e-01  1.3264855291327546e-01  1.8014713901631767e-02  2.5004479948868202e-02  -1.2490640340157724e-01  -1.6920975193503668e-01  -4.9768164808099750e-02  4.4720614708722108e-02  1.5377447602057168e-01  -1.2978442509574520e-01  5.0664308163067238e-02  -4.7144247456269259e-02  8.1316626818944901e-02  -5.4020948096323726e-02  3.8198933536533294e-02  1.4638611531323523e-02  -1.2276584690497033e-02  -4.8003834538960316e-02  2.0583322442436668e-02  3.0738752272594521e-02  -1.1747315595892038e-02  2.6190884664171253e-03  1.8642553587305737e-03  -3.8049931051290729e-04  3.8269010662524995e-04  -3.8870287942448967e-03  1.2536223768647710e-03  -4.1619243717561555e-04  7.9586793184398459e-04  1.9978533003178968e-03  4.9244119155088999e-04  -4.0022236700568278e-04  5.2888673746483272e-03  9.2669513433906966e-04  -4.8910577888735167e-03  2.1062086674743770e-03  -2.3189116000176483e-03  -1.5772228061471886e-02  -9.5524059298611828e-03  1.1581225867705276e-02  1.4111376670017949e-02  3.9954374710165323e-03  -9.9214136436972882e-04  -1.2131610390143707e-03  -1.7052323533792335e-03  2.0000041808802311e-04  3.6067090836102576e-03  3.2873537082644720e-03  2.4195632793443624e-04  -1.1622054820271158e-03  -1.2137741197117673e-03  -1.8002622550975172e-05  1.0570764295345553e-04  -4.2329471090622782e-04  -4.0464788596811702e-04  -1.9190211337736043e-04  -1.2047957787398590e-04  -4.8088054079397045e-05  4.3440111057565395e-06  5.1176634291193820e-06  0.0000000000000000e+00  0.0000000000000000e+00  -1.1162078405035461e-02  1.9591655911790695e-02  3.5393418784613190e-02  6.6601351350718430e-02  4.1538129378180196e-02  -1.3087852889948481e-01  -2.8579433986150168e