<?xml version="1.0"?>
<VTKFile type="UnstructuredGrid"  version="0.1"  >
<UnstructuredGrid>
<Piece  NumberOfPoints="10201" NumberOfCells="20000">
<Points>
<DataArray  type="Float64"  NumberOfComponents="3"  format="ascii">0 0 0  0.01 0 0  0.02 0 0  0.03 0 0  0.04 0 0  0.05 0 0  0.06 0 0  0.07000000000000001 0 0  0.08 0 0  0.09 0 0  0.1 0 0  0.11 0 0  0.12 0 0  0.13 0 0  0.14 0 0  0.15 0 0  0.16 0 0  0.17 0 0  0.18 0 0  0.19 0 0  0.2 0 0  0.21 0 0  0.22 0 0  0.23 0 0  0.24 0 0  0.25 0 0  0.26 0 0  0.27 0 0  0.28 0 0  0.29 0 0  0.3 0 0  0.31 0 0  0.32 0 0  0.33 0 0  0.34 0 0  0.35 0 0  0.36 0 0  0.37 0 0  0.38 0 0  0.39 0 0  0.4 0 0  0.41 0 0  0.42 0 0  0.43 0 0  0.44 0 0  0.45 0 0  0.46 0 0  0.47 0 0  0.48 0 0  0.49 0 0  0.5 0 0  0.51 0 0  0.52 0 0  0.53 0 0  0.54 0 0  0.55 0 0  0.5600000000000001 0 0  0.57 0 0  0.58 0 0  0.59 0 0  0.6 0 0  0.61 0 0  0.62 0 0  0.63 0 0  0.64 0 0  0.65 0 0  0.66 0 0  0.67 0 0  0.68 0 0  0.6899999999999999 0 0  0.7 0 0  0.71 0 0  0.72 0 0  0.73 0 0  0.74 0 0  0.75 0 0  0.76 0 0  0.77 0 0  0.78 0 0  0.79 0 0  0.8 0 0  0.8100000000000001 0 0  0.82 0 0  0.83 0 0  0.84 0 0  0.85 0 0  0.86 0 0  0.87 0 0  0.88 0 0  0.89 0 0  0.9 0 0  0.91 0 0  0.92 0 0  0.93 0 0  0.9399999999999999 0 0  0.95 0 0  0.96 0 0  0.97 0 0  0.98 0 0  0.99 0 0  1 0 0  0 0.01 0  0.01 0.01 0  0.02 0.01 0  0.03 0.01 0  0.04 0.01 0  0.05 0.01 0  0.06 0.01 0  0.07000000000000001 0.01 0  0.08 0.01 0  0.09 0.01 0  0.1 0.01 0  0.11 0.01 0  0.12 0.01 0  0.13 0.01 0  0.14 0.01 0  0.15 0.01 0  0.16 0.01 0  0.17 0.01 0  0.18 0.01 0  0.19 0.01 0  0.2 0.01 0  0.21 0.01 0  0.22 0.01 0  0.23 0.01 0  0.24 0.01 0  0.25 0.01 0  0.26 0.01 0  0.27 0.01 0  0.28 0.01 0  0.29 0.01 0  0.3 0.01 0  0.31 0.01 0  0.32 0.01 0  0.33 0.01 0  0.34 0.01 0  0.35 0.01 0  0.36 0.01 0  0.37 0.01 0  0.38 0.01 0  0.39 0.01 0  0.4 0.01 0  0.41 0.01 0  0.42 0.01 0  0.43 0.01 0  0.44 0.01 0  0.45 0.01 0  0.46 0.01 0  0.47 0.01 0  0.48 0.01 0  0.49 0.01 0  0.5 0.01 0  0.51 0.01 0  0.52 0.01 0  0.53 0.01 0  0.54 0.01 0  0.55 0.01 0  0.5600000000000001 0.01 0  0.57 0.01 0  0.58 0.01 0  0.59 0.01 0  0.6 0.01 0  0.61 0.01 0  0.62 0.01 0  0.63 0.01 0  0.64 0.01 0  0.65 0.01 0  0.66 0.01 0  0.67 0.01 0  0.68 0.01 0  0.6899999999999999 0.01 0  0.7 0.01 0  0.71 0.01 0  0.72 0.01 0  0.73 0.01 0  0.74 0.01 0  0.75 0.01 0  0.76 0.01 0  0.77 0.01 0  0.78 0.01 0  0.79 0.01 0  0.8 0.01 0  0.8100000000000001 0.01 0  0.82 0.01 0  0.83 0.01 0  0.84 0.01 0  0.85 0.01 0  0.86 0.01 0  0.87 0.01 0  0.88 0.01 0  0.89 0.01 0  0.9 0.01 0  0.91 0.01 0  0.92 0.01 0  0.93 0.01 0  0.9399999999999999 0.01 0  0.95 0.01 0  0.96 0.01 0  0.97 0.01 0  0.98 0.01 0  0.99 0.01 0  1 0.01 0  0 0.02 0  0.01 0.02 0  0.02 0.02 0  0.03 0.02 0  0.04 0.02 0  0.05 0.02 0  0.06 0.02 0  0.07000000000000001 0.02 0  0.08 0.02 0  0.09 0.02 0  0.1 0.02 0  0.11 0.02 0  0.12 0.02 0  0.13 0.02 0  0.14 0.02 0  0.15 0.02 0  0.16 0.02 0  0.17 0.02 0  0.18 0.02 0  0.19 0.02 0  0.2 0.02 0  0.21 0.02 0  0.22 0.02 0  0.23 0.02 0  0.24 0.02 0  0.25 0.02 0  0.26 0.02 0  0.27 0.02 0  0.28 0.02 0  0.29 0.02 0  0.3 0.02 0  0.31 0.02 0  0.32 0.02 0  0.33 0.02 0  0.34 0.02 0  0.35 0.02 0  0.36 0.02 0  0.37 0.02 0  0.38 0.02 0  0.39 0.02 0  0.4 0.02 0  0.41 0.02 0  0.42 0.02 0  0.43 0.02 0  0.44 0.02 0  0.45 0.02 0  0.46 0.02 0  0.47 0.02 0  0.48 0.02 0  0.49 0.02 0  0.5 0.02 0  0.51 0.02 0  0.52 0.02 0  0.53 0.02 0  0.54 0.02 0  0.55 0.02 0  0.5600000000000001 0.02 0  0.57 0.02 0  0.58 0.02 0  0.59 0.02 0  0.6 0.02 0  0.61 0.02 0  0.62 0.02 0  0.63 0.02 0  0.64 0.02 0  0.65 0.02 0  0.66 0.02 0  0.67 0.02 0  0.68 0.02 0  0.6899999999999999 0.02 0  0.7 0.02 0  0.71 0.02 0  0.72 0.02 0  0.73 0.02 0  0.74 0.02 0  0.75 0.02 0  0.76 0.02 0  0.77 0.02 0  0.78 0.02 0  0.79 0.02 0  0.8 0.02 0  0.8100000000000001 0.02 0  0.82 0.02 0  0.83 0.02 0  0.84 0.02 0  0.85 0.02 0  0.86 0.02 0  0.87 0.02 0  0.88 0.02 0  0.89 0.02 0  0.9 0.02 0  0.91 0.02 0  0.92 0.02 0  0.93 0.02 0  0.9399999999999999 0.02 0  0.95 0.02 0  0.96 0.02 0  0.97 0.02 0  0.98 0.02 0  0.99 0.02 0  1 0.02 0  0 0.03 0  0.01 0.03 0  0.02 0.03 0  0.03 0.03 0  0.04 0.03 0  0.05 0.03 0  0.06 0.03 0  0.07000000000000001 0.03 0  0.08 0.03 0  0.09 0.03 0  0.1 0.03 0  0.11 0.03 0  0.12 0.03 0  0.13 0.03 0  0.14 0.03 0  0.15 0.03 0  0.16 0.03 0  0.17 0.03 0  0.18 0.03 0  0.19 0.03 0  0.2 0.03 0  0.21 0.03 0  0.22 0.03 0  0.23 0.03 0  0.24 0.03 0  0.25 0.03 0  0.26 0.03 0  0.27 0.03 0  0.28 0.03 0  0.29 0.03 0  0.3 0.03 0  0.31 0.03 0  0.32 0.03 0  0.33 0.03 0  0.34 0.03 0  0.35 0.03 0  0.36 0.03 0  0.37 0.03 0  0.38 0.03 0  0.39 0.03 0  0.4 0.03 0  0.41 0.03 0  0.42 0.03 0  0.43 0.03 0  0.44 0.03 0  0.45 0.03 0  0.46 0.03 0  0.47 0.03 0  0.48 0.03 0  0.49 0.03 0  0.5 0.03 0  0.51 0.03 0  0.52 0.03 0  0.53 0.03 0  0.54 0.03 0  0.55 0.03 0  0.5600000000000001 0.03 0  0.57 0.03 0  0.58 0.03 0  0.59 0.03 0  0.6 0.03 0  0.61 0.03 0  0.62 0.03 0  0.63 0.03 0  0.64 0.03 0  0.65 0.03 0  0.66 0.03 0  0.67 0.03 0  0.68 0.03 0  0.6899999999999999 0.03 0  0.7 0.03 0  0.71 0.03 0  0.72 0.03 0  0.73 0.03 0  0.74 0.03 0  0.75 0.03 0  0.76 0.03 0  0.77 0.03 0  0.78 0.03 0  0.79 0.03 0  0.8 0.03 0  0.8100000000000001 0.03 0  0.82 0.03 0  0.83 0.03 0  0.84 0.03 0  0.85 0.03 0  0.86 0.03 0  0.87 0.03 0  0.88 0.03 0  0.89 0.03 0  0.9 0.03 0  0.91 0.03 0  0.92 0.03 0  0.93 0.03 0  0.9399999999999999 0.03 0  0.95 0.03 0  0.96 0.03 0  0.97 0.03 0  0.98 0.03 0  0.99 0.03 0  1 0.03 0  0 0.04 0  0.01 0.04 0  0.02 0.04 0  0.03 0.04 0  0.04 0.04 0  0.05 0.04 0  0.06 0.04 0  0.07000000000000001 0.04 0  0.08 0.04 0  0.09 0.04 0  0.1 0.04 0  0.11 0.04 0  0.12 0.04 0  0.13 0.04 0  0.14 0.04 0  0.15 0.04 0  0.16 0.04 0  0.17 0.04 0  0.18 0.04 0  0.19 0.04 0  0.2 0.04 0  0.21 0.04 0  0.22 0.04 0  0.23 0.04 0  0.24 0.04 0  0.25 0.04 0  0.26 0.04 0  0.27 0.04 0  0.28 0.04 0  0.29 0.04 0  0.3 0.04 0  0.31 0.04 0  0.32 0.04 0  0.33 0.04 0  0.34 0.04 0  0.35 0.04 0  0.36 0.04 0  0.37 0.04 0  0.38 0.04 0  0.39 0.04 0  0.4 0.04 0  0.41 0.04 0  0.42 0.04 0  0.43 0.04 0  0.44 0.04 0  0.45 0.04 0  0.46 0.04 0  0.47 0.04 0  0.48 0.04 0  0.49 0.04 0  0.5 0.04 0  0.51 0.04 0  0.52 0.04 0  0.53 0.04 0  0.54 0.04 0  0.55 0.04 0  0.5600000000000001 0.04 0  0.57 0.04 0  0.58 0.04 0  0.59 0.04 0  0.6 0.04 0  0.61 0.04 0  0.62 0.04 0  0.63 0.04 0  0.64 0.04 0  0.65 0.04 0  0.66 0.04 0  0.67 0.04 0  0.68 0.04 0  0.6899999999999999 0.04 0  0.7 0.04 0  0.71 0.04 0  0.72 0.04 0  0.73 0.04 0  0.74 0.04 0  0.75 0.04 0  0.76 0.04 0  0.77 0.04 0  0.78 0.04 0  0.79 0.04 0  0.8 0.04 0  0.8100000000000001 0.04 0  0.82 0.04 0  0.83 0.04 0  0.84 0.04 0  0.85 0.04 0  0.86 0.04 0  0.87 0.04 0  0.88 0.04 0  0.89 0.04 0  0.9 0.04 0  0.91 0.04 0  0.92 0.04 0  0.93 0.04 0  0.9399999999999999 0.04 0  0.95 0.04 0  0.96 0.04 0  0.97 0.04 0  0.98 0.04 0  0.99 0.04 0  1 0.04 0  0 0.05 0  0.01 0.05 0  0.02 0.05 0  0.03 0.05 0  0.04 0.05 0  0.05 0.05 0  0.06 0.05 0  0.07000000000000001 0.05 0  0.08 0.05 0  0.09 0.05 0  0.1 0.05 0  0.11 0.05 0  0.12 0.05 0  0.13 0.05 0  0.14 0.05 0  0.15 0.05 0  0.16 0.05 0  0.17 0.05 0  0.18 0.05 0  0.19 0.05 0  0.2 0.05 0  0.21 0.05 0  0.22 0.05 0  0.23 0.05 0  0.24 0.05 0  0.25 0.05 0  0.26 0.05 0  0.27 0.05 0  0.28 0.05 0  0.29 0.05 0  0.3 0.05 0  0.31 0.05 0  0.32 0.05 0  0.33 0.05 0  0.34 0.05 0  0.35 0.05 0  0.36 0.05 0  0.37 0.05 0  0.38 0.05 0  0.39 0.05 0  0.4 0.05 0  0.41 0.05 0  0.42 0.05 0  0.43 0.05 0  0.44 0.05 0  0.45 0.05 0  0.46 0.05 0  0.47 0.05 0  0.48 0.05 0  0.49 0.05 0  0.5 0.05 0  0.51 0.05 0  0.52 0.05 0  0.53 0.05 0  0.54 0.05 0  0.55 0.05 0  0.5600000000000001 0.05 0  0.57 0.05 0  0.58 0.05 0  0.59 0.05 0  0.6 0.05 0  0.61 0.05 0  0.62 0.05 0  0.63 0.05 0  0.64 0.05 0  0.65 0.05 0  0.66 0.05 0  0.67 0.05 0  0.68 0.05 0  0.6899999999999999 0.05 0  0.7 0.05 0  0.71 0.05 0  0.72 0.05 0  0.73 0.05 0  0.74 0.05 0  0.75 0.05 0  0.76 0.05 0  0.77 0.05 0  0.78 0.05 0  0.79 0.05 0  0.8 0.05 0  0.8100000000000001 0.05 0  0.82 0.05 0  0.83 0.05 0  0.84 0.05 0  0.85 0.05 0  0.86 0.05 0  0.87 0.05 0  0.88 0.05 0  0.89 0.05 0  0.9 0.05 0  0.91 0.05 0  0.92 0.05 0  0.93 0.05 0  0.9399999999999999 0.05 0  0.95 0.05 0  0.96 0.05 0  0.97 0.05 0  0.98 0.05 0  0.99 0.05 0  1 0.05 0  0 0.06 0  0.01 0.06 0  0.02 0.06 0  0.03 0.06 0  0.04 0.06 0  0.05 0.06 0  0.06 0.06 0  0.07000000000000001 0.06 0  0.08 0.06 0  0.09 0.06 0  0.1 0.06 0  0.11 0.06 0  0.12 0.06 0  0.13 0.06 0  0.14 0.06 0  0.15 0.06 0  0.16 0.06 0  0.17 0.06 0  0.18 0.06 0  0.19 0.06 0  0.2 0.06 0  0.21 0.06 0  0.22 0.06 0  0.23 0.06 0  0.24 0.06 0  0.25 0.06 0  0.26 0.06 0  0.27 0.06 0  0.28 0.06 0  0.29 0.06 0  0.3 0.06 0  0.31 0.06 0  0.32 0.06 0  0.33 0.06 0  0.34 0.06 0  0.35 0.06 0  0.36 0.06 0  0.37 0.06 0  0.38 0.06 0  0.39 0.06 0  0.4 0.06 0  0.41 0.06 0  0.42 0.06 0  0.43 0.06 0  0.44 0.06 0  0.45 0.06 0  0.46 0.06 0  0.47 0.06 0  0.48 0.06 0  0.49 0.06 0  0.5 0.06 0  0.51 0.06 0  0.52 0.06 0  0.53 0.06 0  0.54 0.06 0  0.55 0.06 0  0.5600000000000001 0.06 0  0.57 0.06 0  0.58 0.06 0  0.59 0.06 0  0.6 0.06 0  0.61 0.06 0  0.62 0.06 0  0.63 0.06 0  0.64 0.06 0  0.65 0.06 0  0.66 0.06 0  0.67 0.06 0  0.68 0.06 0  0.6899999999999999 0.06 0  0.7 0.06 0  0.71 0.06 0  0.72 0.06 0  0.73 0.06 0  0.74 0.06 0  0.75 0.06 0  0.76 0.06 0  0.77 0.06 0  0.78 0.06 0  0.79 0.06 0  0.8 0.06 0  0.8100000000000001 0.06 0  0.82 0.06 0  0.83 0.06 0  0.84 0.06 0  0.85 0.06 0  0.86 0.06 0  0.87 0.06 0  0.88 0.06 0  0.89 0.06 0  0.9 0.06 0  0.91 0.06 0  0.92 0.06 0  0.93 0.06 0  0.9399999999999999 0.06 0  0.95 0.06 0  0.96 0.06 0  0.97 0.06 0  0.98 0.06 0  0.99 0.06 0  1 0.06 0  0 0.07000000000000001 0  0.01 0.07000000000000001 0  0.02 0.07000000000000001 0  0.03 0.07000000000000001 0  0.04 0.07000000000000001 0  0.05 0.07000000000000001 0  0.06 0.07000000000000001 0  0.07000000000000001 0.07000000000000001 0  0.08 0.07000000000000001 0  0.09 0.07000000000000001 0  0.1 0.07000000000000001 0  0.11 0.07000000000000001 0  0.12 0.07000000000000001 0  0.13 0.07000000000000001 0  0.14 0.07000000000000001 0  0.15 0.07000000000000001 0  0.16 0.07000000000000001 0  0.17 0.0700
[...]
<PointData  Scalars="Indicator Function"> 
<DataArray  type="Float64"  Name="Indicator Function"  format="ascii">-9.7576456666290288e-19  1.2529201585164546e-17  6.3809990829833820e-17  1.5727351085297246e-18  1.3982070308782596e-16  -4.2288117396445233e-19  -3.0814879110195774e-33  1.5184409027642756e-16  3.7452589497381662e-16  -1.1620176572612176e-19  1.6857915585515320e-16  1.0068775756826110e-16  0.0000000000000000e+00  -1.7473991664791294e-18  1.6849247270427906e-16  -3.1935490073206985e-18  -3.1425618188529091e-18  2.8932116065413098e-16  -1.4853783799516196e-18  -1.8381191349925627e-18  1.1530863927627276e-15  -2.4960980959345541e-18  -1.2480490479672666e-18  4.8947827441662556e-16  -2.7337427413567951e-19  -1.5008974645403660e-18  -1.4088675132802957e-18  -8.2682361420653674e-19  -6.2482148128888285e-19  -9.6881350226149257e-19  -2.5718945988809925e-18  -1.3640371971840072e-18  -1.5256452350048940e-18  -1.6661218533508725e-18  4.2248369085087547e-17  -5.8617597014478768e-19  -3.0390052866558794e-18  -6.8289354866876436e-18  -7.5243938942224297e-18  -5.5561952850773497e-18  1.2917803559872162e-15  -8.6036733869337094e-20  -2.0356750466148183e-18  -1.5563931736677890e-18  -1.5087410827501440e-18  -7.5437054137503492e-19  2.2768975406043827e-16  -9.1909574822930958e-19  -1.4212152361839651e-19  -8.0086185017860509e-19  -4.0043092508930269e-19  -2.6571841843551320e-19  -4.8409292961348989e-20  -7.7411026387222975e-19  -4.0832863859085772e-19  -2.8888949165808538e-34  9.3677232494995152e-31  -6.4888154778708790e-20  -1.3071334466322809e-21  -1.4714901256353982e-20  -1.5780971726579190e-21  -2.1471667932852313e-20  -5.2118186254883932e-21  -4.6842271938711445e-21  -6.6979908340644696e-21  -5.0738838914293748e-20  -3.9550153845522431e-20  -2.5578757073892976e-34  1.3266996086123791e-17  -1.0818719712184595e-19  3.0092655381050560e-36  0.0000000000000000e+00  -2.1564123096422520e-20  -3.2063190330916249e-19  -4.3893141744029678e-19  -2.2112771830359459e-19  -5.2321272567205040e-20  -1.1453920641760079e-19  -1.4383310090901836e-19  -1.2728264606282359e-19  -7.2920161098089422e-20  -2.0473723213915041e-18  -1.0451533759406269e-19  -1.4525452747798342e-19  -1.3554996255044707e-19  -1.0550701046482491e-19  -6.2456623888338738e-20  -2.9565838197985055e-20  -2.3427074388984518e-20  -1.1262089950233908e-20  -7.9374671182245534e-22  -3.7615819226313200e-37  -1.4199971757933233e-35  1.5010003704598562e-18  -1.2015749965010033e-22  -4.6918184557016719e-22  -7.7242362989290500e-22  -1.1240521241829523e-21  -1.4589059700097627e-21  -4.9938451679634767e-22  -3.7615819226313200e-37  0.0000000000000000e+00  1.7577811755297556e-02  5.7859392357266753e-02  1.8275657078729458e-02  1.5279699295604892e-02  1.2143584260397532e-02  7.6179499899532216e-03  1.2183295139441002e-03  4.0047488234523289e-02  4.5757577901205840e-02  2.0933049152957483e-03  6.8624237177873915e-02  2.4140391545082024e-03  6.2956689880182576e-02  8.4053458204411194e-03  6.6096352453264506e-02  5.3086153993175129e-02  3.0068283948911350e-02  5.3516396147634433e-02  6.6225221211319810e-02  3.5373274340485858e-02  6.1295175892159409e-02  4.4965705818924250e-02  3.8832946636903824e-03  9.8493462330409981e-03  5.4075530096202487e-02  5.0759801662588290e-02  2.9789460166732902e-02  7.4084715307676501e-03  1.1888300452681076e-02  1.1508442284764898e-02  4.9144619303659091e-02  4.9471900556437562e-02  2.7476309692516781e-03  2.8640367546993530e-02  2.1119215045740831e-02  1.4488767915229225e-02  4.7501468348626931e-02  9.9268431078421038e-02  8.5913214613625347e-02  5.7134908755075563e-02  3.0415139363647706e-02  1.5499000103764799e-03  3.5896511520339409e-02  1.0089231107719244e-02  2.7179063112288428e-02  4.2068656063288266e-02  5.1738069488709787e-03  1.6556957076973303e-02  2.5602337632365520e-03  1.4427044520158448e-02  6.0852577821412157e-03  1.7441285899360093e-03  5.9464077138944981e-03  1.0971926926727348e-02  1.8698313550462801e-03  1.5712974290821382e-03  2.3378421574572149e-03  4.7094445625413164e-05  5.3016019051927560e-04  5.6856942709893206e-05  2.9319334480027793e-04  2.4020251040552778e-04  9.3887777678688554e-05  3.7439646540003005e-05  2.7118209405113371e-04  8.4634943384037816e-04  2.8929751556437325e-04  7.8188904733234282e-04  1.9987532018015215e-03  9.4955068167605411e-04  2.9395970122511643e-05  7.7692941393296027e-04  1.4737545615565735e-03  5.3672408467524838e-03  5.2234650487250518e-03  1.3717503146508999e-03  9.4253625454885942e-04  1.5920867820920471e-03  1.7950234075835682e-03  1.3954086057252676e-03  8.9513392363382339e-04  1.0573414784936172e-03  1.6078661840291978e-03  1.8127398512802957e-03  1.5354811176889643e-03  1.1329047732129597e-03  7.4247648186222010e-04  5.2937786250160533e-04  3.3522388925565544e-04  1.5958298721954466e-04  6.5541102171615923e-05  2.2508383081545725e-05  1.1159845736591257e-06  3.4055236066067823e-06  2.1645650825998507e-06  7.3697461982152988e-06  1.0229873987923760e-05  1.6578180283098471e-05  1.7992223390068999e-05  4.9938451679635021e-22  -8.8756480754723805e-19  8.9743394711655679e-03  1.2784133450497335e-02  2.8213753841181636e-02  2.5371235965416832e-02  5.2923882023296120e-02  2.0844624094494843e-03  4.5891346415552620e-02  2.0095355204452860e-02  4.2029069466224728e-02  9.4443370012012334e-02  6.4159760483008366e-02  7.0176709729447336e-03  9.5390596197694105e-02  1.0761000860060731e-01  1.1438591571893846e-01  8.4951544399552645e-03  9.6506572184669209e-02  7.4938079079192059e-03  3.3942217166242919e-02  4.1128892722483981e-03  9.1603047648878944e-02  6.7053100188239553e-02  1.3250373720812355e-02  1.7453299646132851e-02  1.2529044881728688e-02  6.5357759419010465e-03  1.8378560107307609e-02  2.0590352321233803e-02  4.1686607536381565e-03  8.6122252652988701e-02  7.1489891627817909e-02  2.7156925018207108e-02  5.2236576022812807e-02  5.5656529574313281e-02  2.4526695218786951e-02  1.2737399339384038e-02  6.4914796591834953e-02  9.3998055142222328e-02  9.7632694431376968e-02  1.4876121306060489e-01  4.6029588973226412e-02  2.5075962160514050e-02  7.5288655997294562e-03  2.6986699003955828e-02  1.9747626521648919e-02  3.0638383987323894e-02  1.4880127692266675e-03  4.2247945655646928e-02  2.2787366482838422e-02  2.8966228305096351e-02  4.2819416368051972e-03  8.7683953049794627e-04  4.6587648298077756e-03  2.4177052932814424e-02  3.1155694239768956e-03  1.0256463511058051e-03  3.0620340057387918e-03  2.1788799223105364e-03  2.7193053536474877e-04  7.8384678788511180e-04  3.3405645852898263e-04  9.1033091585266204e-04  2.8396987039268920e-04  3.9271239874579080e-05  2.4332924370011651e-04  8.0860518565927279e-04  1.1348008972283889e-03  7.4300156663324935e-05  2.3924328856028865e-03  2.5732402845184423e-03  3.5931192010196973e-04  6.0260891714253393e-04  1.9852501866482339e-04  5.5076686983218139e-03  8.8322898864411793e-03  3.7193795360462886e-03  1.0436933249153787e-03  1.9531365785173298e-03  2.0396744183553660e-03  2.1986043362693893e-03  1.3718771402386799e-03  1.2617128968504089e-03  1.9902388463650445e-03  2.5674172196861480e-03  2.3131648880067041e-03  1.7287092771300491e-03  1.1802479676817344e-03  8.0111562946913125e-04  5.8931935919994587e-04  3.0405066014102056e-04  1.1536277821415905e-04  3.5108886350126307e-05  3.6415450525844588e-06  2.2449485542541751e-05  1.7727553864914244e-05  9.6341966207056666e-06  3.4410962625303360e-06  3.7420052064034193e-06  2.1017838581377599e-05  5.0827453620014244e-22  1.9259299443872359e-33  4.3352748813410204e-02  3.4310170277252867e-02  1.0410270504884372e-01  4.0579142906916499e-02  1.1421496722148924e-02  2.0481351679868868e-02  3.9612959894364003e-02  2.0591715550590792e-02  6.8420228584601159e-02  1.5416716366071309e-01  9.5754641740463123e-02  1.0782135050392964e-01  9.9056890081623147e-02  7.3179202206349797e-02  5.9541386066105255e-02  1.7432439927100074e-01  5.4105450239218290e-02  5.1619282649274421e-02  6.2394170527374164e-02  1.5326587010306192e-01  1.4390975684693139e-01  1.7252457245995864e-01  1.5979698510039334e-01  4.6704445275852553e-02  4.1466283127909488e-03  1.0228917062386365e-01  1.5709591095362166e-01  9.6412764776790616e-02  1.4998836120206216e-02  5.4919124176719758e-03  5.4709932405579580e-02  1.1679951922485339e-01  1.1958044531071989e-01  2.7345596823558270e-02  6.0143244496183232e-02  3.1599539235876460e-02  4.4418886080236940e-02  9.7550070651110793e-02  1.7041881887084551e-01  8.8419211817022766e-02  8.5222608978919576e-02  4.2023416082403571e-02  2.7693301653613348e-02  5.9445131102852010e-02  7.4465441180374915e-03  7.2700544990096247e-02  1.2131700430046553e-01  4.6900421492084905e-02  4.8965714813818610e-02  2.7485205001741207e-02  4.1769045785181383e-02  2.2800551454459327e-02  2.5203070493898271e-03  1.0413450970731238e-02  2.4802424952431842e-02  5.8446817262708568e-03  1.4521392692518269e-03  5.2558168651306893e-03  1.7551015514053118e-04  1.0062959470778874e-03  3.3067182518431331e-05  3.9735521102327032e-04  6.6708954980629570e-04  4.3123493316801217e-04  4.3585161041649983e-05  4.7746823169206293e-04  1.5609248435774672e-03  3.1208263769889671e-04  9.1345587799502984e-04  3.8512406807252337e-03  1.1087936794366082e-03  1.1610600933536575e-03  1.6590277048097394e-03  2.6710631221633246e-03  1.0008382806857624e-02  8.0804291112734784e-03  6.1012524702199931e-04  2.8307281869757580e-03  1.9561759621266345e-03  2.0686696524225821e-03  1.8246528454142937e-03  1.0968516934701468e-03  1.8167920074066179e-03  2.8244461598587920e-03  2.9060636712638370e-03  2.1520049409807056e-03  1.4859953079289048e-03  9.7014456342216671e-04  7.5980742507237458e-04  5.0258469689755272e-04  2.0510113434735622e-04  6.7117435636322400e-05  1.2082547703787975e-05  2.2313175365570282e-05  3.2866654500096027e-05  2.3707014796120707e-05  1.8586647674855457e-05  1.8152272909035362e-05  8.2809618865306026e-06  -1.1492143190587168e-21  -5.7772196324370565e-19  4.2286760536721250e-02  3.9941124449951952e-02  5.3886824569425132e-02  2.2234132347977911e-02  3.5402262070149057e-02  5.1583834045486325e-02  5.7725836263419608e-02  5.9014766401113500e-02  3.9183196791017214e-02  1.5573748541978502e-04  6.1828114898138768e-02  1.0049426104125755e-01  1.0616921179298910e-01  9.3048695152046626e-02  2.4161904583436797e-01  6.7322459597547596e-02  4.0590573468719552e-03  1.2360259588042438e-01  2.2052778788905370e-02  8.9021837932557565e-02  8.2979063365371017e-02  5.6431972640152470e-02  4.9499137063067578e-02  3.0111960951802387e-02  2.6047881009532977e-02  2.8787834159889572e-02  6.2018847209646143e-02  3.8578769419285029e-02  4.8798885978646719e-02  3.0831149709383176e-02  1.0766061664899587e-01  1.1605943350530951e-01  6.8020339407644764e-02  1.5102660274614896e-01  3.8811728754919762e-02  1.0064646284725151e-02  2.2056699131773362e-02  8.1100248120788906e-02  1.0741273208476447e-01  1.4233564795812251e-01  1.7066503276360365e-01  8.3040979462099210e-03  4.3754181459849301e-02  4.2051128667487184e-03  4.7352878958454636e-02  3.9134767727740584e-02  3.9302711642953273e-03  4.1294244658332452e-02  3.2215717800042946e-02  2.9024116316502816e-02  3.0394558586539982e-02  3.7771097679851497e-03  1.0384855138785459e-02  4.4765945901497541e-03  3.7040413080197745e-02  4.4867028845394135e-03  5.6333441130802129e-03  3.7578227456852172e-03  4.0590579319219507e-03  7.4493493136597191e-04  1.4624765062323788e-03  4.4767998041102725e-04  1.4099795548981428e-03  2.6930527967995835e-04  2.0368994458331514e-05  1.9532412020705994e-04  9.4659298909777309e-04  1.6762639534814328e-03  5.4792560936653466e-04  2.9453005624930518e-03  3.7796219222634188e-03  1.3663799407046895e-03  5.3246882262777597e-05  1.1898160389524684e-03  7.3402382461821344e-03  1.2380653100003842e-02  3.5959794964062542e-03  3.9875733220091324e-03  3.1299789856602265e-03  1.7373512734904820e-03  2.0615472486589996e-03  1.1660776189690344e-03  1.1691940244789713e-03  2.5522494612287847e-03  3.3100742384154038e-03  2.7410953620882997e-03  1.7883515977498970e-03  1.1469906000640244e-03  7.9859913008873795e-04  6.7405450033226769e-04  3.5206898191097379e-04  1.1747081047565023e-04  3.7693995832893306e-05  3.4712415208729958e-07  2.7224354686497551e-05  2.5782244200583317e-05  1.9056686472554892e-05  1.7546273683681249e-05  1.7723848207773417e-05  -3.3903365922727267e-21  -3.1205182761783788e-18  1.0875125667528553e-01  8.1924420441977258e-02  1.4526409525972592e-02  1.2251987568995437e-01  1.0695437215868880e-01  1.9839428889389450e-02  1.4985464492841032e-02  3.2465882468611033e-02  7.0935217135804127e-02  5.3063619071395819e-02  1.7093668656184421e-01  1.9142716168242974e-01  3.8354688378045294e-02  1.1414945149302197e-01  2.0206175577496994e-02  4.9972117583255721e-03  2.4154750193466809e-01  8.9330891496995704e-03  6.0136176727563613e-02  1.7438877660585887e-02  1.3295917726070960e-01  1.7420007318319419e-01  2.3364293708471032e-01  2.2653067253127768e-01  8.3894847503518624e-02  1.6636204566697805e-02  7.3825757482618853e-02  1.8087321677306381e-01  1.3478042184629357e-01  4.7048425203105732e-03  2.3382021039117854e-02  1.1891857006345406e-01  1.8202655633685211e-01  1.0646326172964007e-01  2.3325654976035074e-03  9.2490162931615258e-02  2.9513626513847906e-02  7.4425635847488583e-02  1.2848566180574855e-01  1.7563291369322556e-01  7.4355545666676612e-02  1.2482775574866146e-01  2.1868098565298356e-02  7.2083159747437592e-02  5.4052628267724119e-02  1.8568268299946424e-02  9.5810569510672378e-02  1.4938831803574201e-01  6.3588150734344609e-02  7.0169264779608276e-02  5.3677417223728034e-02  6.0309918492534871e-02  3.1728106898929805e-02  2.0879993823768660e-03  9.1465745559606345e-03  3.8443272309336966e-02  1.2036584989196989e-02  1.6284493463791805e-03  6.7698733481356679e-03  2.4337791795906355e-04  9.8389618283767702e-04  3.2533785108738886e-04  3.9711738931502884e-04  1.1636121495100201e-03  5.8652601827645736e-04  2.4307506522453081e-04  4.7705646564660987e-04  1.6998128520969117e-03  5.1285939352960664e-04  2.2790632961641234e-04  4.8053067909206203e-03  1.5602366545770410e-03  2.4722579743627587e-03  2.0212826745422499e-03  2.1802170453011113e-03  1.2300320476349868e-02  1.0392201921130525e-02  2.2257152016394734e-03  5.1091688553988185e-03  2.3567050621390024e-03  1.6704176164133672e-03  1.7315571352254000e-03  7.3510681664863220e-04  1.8157022000779034e-03  3.2951202994643664e-03  3.3311203543655364e-03  2.2660706065963441e-03  1.3885455996675746e-03  8.5865910142208829e-04  7.2457177766651639e-04  5.2634826139482500e-04  2.0148781022078451e-04  5.6525514912963916e-05  1.5115351384473510e-05  1.4434186179291813e-05  2.6049090310202520e-05  1.5387991556887172e-05  1.0969340680110029e-05  1.2177289002018088e-05  1.1284745767893960e-36  -9.9754311207281561e-19  8.8735861151571491e-02  3.6319145533524819e-02  2.6723162657140864e-02  1.0934475515540064e-01  4.4854135480811179e-02  2.7408377228608158e-02  2.3651945047807415e-02  8.2490175804108765e-02  3.5412017692854056e-02  1.9984309930169187e-02  1.8701857802575869e-02  1.9903462706757510e-02  1.0907644449105669e-02  1.5982520280327212e-01  7.0492348726711564e-03  2.4964577807191962e-01  3.8737942009453154e-03  4.4437882114176312e-02  1.1832932582757116e-01  4.0979127202447167e-03  7.2686773945828342e-02  1.5857791104462143e-01  1.8645764822008144e-02  1.4121156410513949e-02  1.2047257324572758e-01  5.8435411587723737e-02  6.7416062179304721e-04  9.9995556107917855e-02  1.2585629323066519e-01  8.3103867738518120e-02  3.2218952314892933e-02  9.0746461639811496e-02  9.7267242545987953e-02  1.0092630780590094e-01  2.1234433137976677e-01  1.4508216874712836e-03  1.7495255080924175e-02  1.0115057489236454e-02  8.8855535658250301e-02  1.3393445658057049e-01  1.8081931243567939e-01  1.4242798077326282e-01  6.9712178288684312e-04  4.2245173634146947e-02  1.3465325691164359e-02  6.4541253760314193e-02  6.0193192107477284e-02  3.0724341004245356e-02  9.8335578515954064e-02  1.1214501504799126e-03  1.1084949408839981e-02  1.0809977147993446e-02  2.1959392029271656e-02  2.4633242506702787e-02  1.5092525626964476e-03  4.0059267640473073e-02  1.2260660824816041e-02  1.4141597725705168e-02  3.4385522305007406e-03  5.4452354164494536e-03  9.2056561682237533e-04  1.6410189198716931e-03  4.1251673072401415e-04  1.4856806441651254e-03  1.1126162595057250e-05  1.3383618328857724e-04  1.8205131434180874e-05  1.0009204904322096e-03  1.8694196023386180e-03  7.2875939798607752e-04  2.6557441590078865e-03  4.8244301460442863e-03  1.6013475573742177e-03  9.2713586863347357e-04  2.0668786394038908e-03  7.8340844133048589e-03  1.4894295975641786e-02  4.4165085470382892e-03  6.4016659965400909e-03  4.5196139687465661e-03  1.5177963418056832e-03  1.6333938918005433e-03  1.0339540382950803e-03  8.4386755688532257e-04  2.8050969361571895e-03  3.7543207472194944e-03  2.9662355454707630e-03  1.7376199085003684e-03  1.0006956778641672e-03  7.0071010558945981e-04  6.5280623145784120e-04  3.4776631883960462e-04  9.2656982649974169e-05  1.9828216573982808e-05  5.9258039357105832e-06  2.8265088609986486e-05  2.3617239450559672e-05  1.1584444880223170e-05  6.4130705282363191e-06  5.6423728839469800e-37  1.9259299443872359e-33  3.8795437723319934e-02  3.8363774928465953e-02  1.1139875220967089e-02  8.7669053719796552e-02  6.1311259484371078e-02  1.2747679756741551e-01  3.1686235427014742e-03  5.2741046193852031e-02  1.7353328542776454e-03  8.3248870245476697e-02  3.4260735381831914e-02  1.2472496413795871e-01  1.5749353562449203e-01  2.3050842782858460e-03  2.8682806726867089e-02  3.7515146214204986e-02  9.6470918849182408e-02  2.0650960558791306e-01  7.4075359314173866e-03  5.0355209195127322e-02  2.7122369350737546e-04  7.4389249329712956e-02  1.0136638514720241e-01  2.0606577102457238e-01  1.9399503766587686e-01  5.2419478873301797e-02  1.7243335680281198e-02  4.6319081251432456e-02  1.1750906063353252e-01  1.0535967159389499e-01  3.3551063810844169e-02  6.6716369955984164e-02  1.3437712962701098e-01  2.2351952720088167e-01  6.0078781099689144e-02  8.1578258410394705e-02  8.8919811512705033e-02  1.8615877191087902e-02  9.3195150930726264e-02  1.4023565074726724e-01  1.6812126442203029e-01  1.0116387095821124e-01  1.3898319808783602e-01  1.1992670147726614e-02  9.3898805403123176e-02  4.4732793265736918e-02  1.2831233409473055e-02  1.0602762248483186e-01  1.2554677989016746e-01  2.5664613029291995e-02  5.5188490689556363e-02  5.3942379357524793e-02  5.7127920698152347e-02  2.4275134963255014e-02  7.4670884839997207e-03  1.0991380608402058e-02  4.6221269596038554e-02  1.1374966660134853e-02  8.2872463590879953e-03  7.5228878569429313e-03  8.8016594310033082e-04  8.1551279317953757e-04  4.0394698087528673e-04  4.0150884958111761e-04  1.2256176067342516e-03  5.6710882515347146e-04  1.7844969073282490e-04  4.8440167515111121e-04  1.7460527995148856e-03  8.2678794857533606e-04  1.9427879382786053e-04  5.0265084862670204e-03  2.3788260364797768e-03  3.1284932730591838e-03  1.5913358264783429e-03  1.3591243741856952e-03  1.3572192820704631e-02  1.2660385083374309e-02  2.6466114952932627e-03  7.5646242847648018e-03  3.1292127197326959e-03  1.1907214671052441e-03  1.3790191411666454e-03  4.5864855301525515e-04  1.5972404041180780e-03  3.6938364851980825e-03  3.7072342590621877e-03  2.3829175036016842e-03  1.2782670226242768e-03  7.1768907919988697e-04  6.5234869944396105e-04  5.1126181142633579e-04  1.8725581507003343e-04  3.1308069920329549e-05  1.9316471308385837e-06  2.4587356745657588e-05  3.3819139736707159e-05  2.0422748613594480e-05  9.8413774048745921e-06  7.2446487705274050e-22  -2.2486834239428413e-19  3.0801195928979383e-03  1.7838190382160040e-02  3.2637833386214683e-02  5.5850214061707808e-02  3.7079952048492203e-02  1.0817247833596551e-01  6.8323286432593732e-03  5.6533521009960973e-03  6.5843496293468390e-02  2.3716508472820388e-02  1.3027493735181287e-03  1.7523693048497439e-02  2.8718882661862687e-02  7.4415105829605380e-02  1.0440120735227863e-01  2.2623267924905450e-02  