<?xml version="1.0"?>
<VTKFile type="UnstructuredGrid"  version="0.1"  >
<UnstructuredGrid>
<Piece  NumberOfPoints="10201" NumberOfCells="20000">
<Points>
<DataArray  type="Float64"  NumberOfComponents="3"  format="ascii">0 0 0  0.01 0 0  0.02 0 0  0.03 0 0  0.04 0 0  0.05 0 0  0.06 0 0  0.07000000000000001 0 0  0.08 0 0  0.09 0 0  0.1 0 0  0.11 0 0  0.12 0 0  0.13 0 0  0.14 0 0  0.15 0 0  0.16 0 0  0.17 0 0  0.18 0 0  0.19 0 0  0.2 0 0  0.21 0 0  0.22 0 0  0.23 0 0  0.24 0 0  0.25 0 0  0.26 0 0  0.27 0 0  0.28 0 0  0.29 0 0  0.3 0 0  0.31 0 0  0.32 0 0  0.33 0 0  0.34 0 0  0.35 0 0  0.36 0 0  0.37 0 0  0.38 0 0  0.39 0 0  0.4 0 0  0.41 0 0  0.42 0 0  0.43 0 0  0.44 0 0  0.45 0 0  0.46 0 0  0.47 0 0  0.48 0 0  0.49 0 0  0.5 0 0  0.51 0 0  0.52 0 0  0.53 0 0  0.54 0 0  0.55 0 0  0.5600000000000001 0 0  0.57 0 0  0.58 0 0  0.59 0 0  0.6 0 0  0.61 0 0  0.62 0 0  0.63 0 0  0.64 0 0  0.65 0 0  0.66 0 0  0.67 0 0  0.68 0 0  0.6899999999999999 0 0  0.7 0 0  0.71 0 0  0.72 0 0  0.73 0 0  0.74 0 0  0.75 0 0  0.76 0 0  0.77 0 0  0.78 0 0  0.79 0 0  0.8 0 0  0.8100000000000001 0 0  0.82 0 0  0.83 0 0  0.84 0 0  0.85 0 0  0.86 0 0  0.87 0 0  0.88 0 0  0.89 0 0  0.9 0 0  0.91 0 0  0.92 0 0  0.93 0 0  0.9399999999999999 0 0  0.95 0 0  0.96 0 0  0.97 0 0  0.98 0 0  0.99 0 0  1 0 0  0 0.01 0  0.01 0.01 0  0.02 0.01 0  0.03 0.01 0  0.04 0.01 0  0.05 0.01 0  0.06 0.01 0  0.07000000000000001 0.01 0  0.08 0.01 0  0.09 0.01 0  0.1 0.01 0  0.11 0.01 0  0.12 0.01 0  0.13 0.01 0  0.14 0.01 0  0.15 0.01 0  0.16 0.01 0  0.17 0.01 0  0.18 0.01 0  0.19 0.01 0  0.2 0.01 0  0.21 0.01 0  0.22 0.01 0  0.23 0.01 0  0.24 0.01 0  0.25 0.01 0  0.26 0.01 0  0.27 0.01 0  0.28 0.01 0  0.29 0.01 0  0.3 0.01 0  0.31 0.01 0  0.32 0.01 0  0.33 0.01 0  0.34 0.01 0  0.35 0.01 0  0.36 0.01 0  0.37 0.01 0  0.38 0.01 0  0.39 0.01 0  0.4 0.01 0  0.41 0.01 0  0.42 0.01 0  0.43 0.01 0  0.44 0.01 0  0.45 0.01 0  0.46 0.01 0  0.47 0.01 0  0.48 0.01 0  0.49 0.01 0  0.5 0.01 0  0.51 0.01 0  0.52 0.01 0  0.53 0.01 0  0.54 0.01 0  0.55 0.01 0  0.5600000000000001 0.01 0  0.57 0.01 0  0.58 0.01 0  0.59 0.01 0  0.6 0.01 0  0.61 0.01 0  0.62 0.01 0  0.63 0.01 0  0.64 0.01 0  0.65 0.01 0  0.66 0.01 0  0.67 0.01 0  0.68 0.01 0  0.6899999999999999 0.01 0  0.7 0.01 0  0.71 0.01 0  0.72 0.01 0  0.73 0.01 0  0.74 0.01 0  0.75 0.01 0  0.76 0.01 0  0.77 0.01 0  0.78 0.01 0  0.79 0.01 0  0.8 0.01 0  0.8100000000000001 0.01 0  0.82 0.01 0  0.83 0.01 0  0.84 0.01 0  0.85 0.01 0  0.86 0.01 0  0.87 0.01 0  0.88 0.01 0  0.89 0.01 0  0.9 0.01 0  0.91 0.01 0  0.92 0.01 0  0.93 0.01 0  0.9399999999999999 0.01 0  0.95 0.01 0  0.96 0.01 0  0.97 0.01 0  0.98 0.01 0  0.99 0.01 0  1 0.01 0  0 0.02 0  0.01 0.02 0  0.02 0.02 0  0.03 0.02 0  0.04 0.02 0  0.05 0.02 0  0.06 0.02 0  0.07000000000000001 0.02 0  0.08 0.02 0  0.09 0.02 0  0.1 0.02 0  0.11 0.02 0  0.12 0.02 0  0.13 0.02 0  0.14 0.02 0  0.15 0.02 0  0.16 0.02 0  0.17 0.02 0  0.18 0.02 0  0.19 0.02 0  0.2 0.02 0  0.21 0.02 0  0.22 0.02 0  0.23 0.02 0  0.24 0.02 0  0.25 0.02 0  0.26 0.02 0  0.27 0.02 0  0.28 0.02 0  0.29 0.02 0  0.3 0.02 0  0.31 0.02 0  0.32 0.02 0  0.33 0.02 0  0.34 0.02 0  0.35 0.02 0  0.36 0.02 0  0.37 0.02 0  0.38 0.02 0  0.39 0.02 0  0.4 0.02 0  0.41 0.02 0  0.42 0.02 0  0.43 0.02 0  0.44 0.02 0  0.45 0.02 0  0.46 0.02 0  0.47 0.02 0  0.48 0.02 0  0.49 0.02 0  0.5 0.02 0  0.51 0.02 0  0.52 0.02 0  0.53 0.02 0  0.54 0.02 0  0.55 0.02 0  0.5600000000000001 0.02 0  0.57 0.02 0  0.58 0.02 0  0.59 0.02 0  0.6 0.02 0  0.61 0.02 0  0.62 0.02 0  0.63 0.02 0  0.64 0.02 0  0.65 0.02 0  0.66 0.02 0  0.67 0.02 0  0.68 0.02 0  0.6899999999999999 0.02 0  0.7 0.02 0  0.71 0.02 0  0.72 0.02 0  0.73 0.02 0  0.74 0.02 0  0.75 0.02 0  0.76 0.02 0  0.77 0.02 0  0.78 0.02 0  0.79 0.02 0  0.8 0.02 0  0.8100000000000001 0.02 0  0.82 0.02 0  0.83 0.02 0  0.84 0.02 0  0.85 0.02 0  0.86 0.02 0  0.87 0.02 0  0.88 0.02 0  0.89 0.02 0  0.9 0.02 0  0.91 0.02 0  0.92 0.02 0  0.93 0.02 0  0.9399999999999999 0.02 0  0.95 0.02 0  0.96 0.02 0  0.97 0.02 0  0.98 0.02 0  0.99 0.02 0  1 0.02 0  0 0.03 0  0.01 0.03 0  0.02 0.03 0  0.03 0.03 0  0.04 0.03 0  0.05 0.03 0  0.06 0.03 0  0.07000000000000001 0.03 0  0.08 0.03 0  0.09 0.03 0  0.1 0.03 0  0.11 0.03 0  0.12 0.03 0  0.13 0.03 0  0.14 0.03 0  0.15 0.03 0  0.16 0.03 0  0.17 0.03 0  0.18 0.03 0  0.19 0.03 0  0.2 0.03 0  0.21 0.03 0  0.22 0.03 0  0.23 0.03 0  0.24 0.03 0  0.25 0.03 0  0.26 0.03 0  0.27 0.03 0  0.28 0.03 0  0.29 0.03 0  0.3 0.03 0  0.31 0.03 0  0.32 0.03 0  0.33 0.03 0  0.34 0.03 0  0.35 0.03 0  0.36 0.03 0  0.37 0.03 0  0.38 0.03 0  0.39 0.03 0  0.4 0.03 0  0.41 0.03 0  0.42 0.03 0  0.43 0.03 0  0.44 0.03 0  0.45 0.03 0  0.46 0.03 0  0.47 0.03 0  0.48 0.03 0  0.49 0.03 0  0.5 0.03 0  0.51 0.03 0  0.52 0.03 0  0.53 0.03 0  0.54 0.03 0  0.55 0.03 0  0.5600000000000001 0.03 0  0.57 0.03 0  0.58 0.03 0  0.59 0.03 0  0.6 0.03 0  0.61 0.03 0  0.62 0.03 0  0.63 0.03 0  0.64 0.03 0  0.65 0.03 0  0.66 0.03 0  0.67 0.03 0  0.68 0.03 0  0.6899999999999999 0.03 0  0.7 0.03 0  0.71 0.03 0  0.72 0.03 0  0.73 0.03 0  0.74 0.03 0  0.75 0.03 0  0.76 0.03 0  0.77 0.03 0  0.78 0.03 0  0.79 0.03 0  0.8 0.03 0  0.8100000000000001 0.03 0  0.82 0.03 0  0.83 0.03 0  0.84 0.03 0  0.85 0.03 0  0.86 0.03 0  0.87 0.03 0  0.88 0.03 0  0.89 0.03 0  0.9 0.03 0  0.91 0.03 0  0.92 0.03 0  0.93 0.03 0  0.9399999999999999 0.03 0  0.95 0.03 0  0.96 0.03 0  0.97 0.03 0  0.98 0.03 0  0.99 0.03 0  1 0.03 0  0 0.04 0  0.01 0.04 0  0.02 0.04 0  0.03 0.04 0  0.04 0.04 0  0.05 0.04 0  0.06 0.04 0  0.07000000000000001 0.04 0  0.08 0.04 0  0.09 0.04 0  0.1 0.04 0  0.11 0.04 0  0.12 0.04 0  0.13 0.04 0  0.14 0.04 0  0.15 0.04 0  0.16 0.04 0  0.17 0.04 0  0.18 0.04 0  0.19 0.04 0  0.2 0.04 0  0.21 0.04 0  0.22 0.04 0  0.23 0.04 0  0.24 0.04 0  0.25 0.04 0  0.26 0.04 0  0.27 0.04 0  0.28 0.04 0  0.29 0.04 0  0.3 0.04 0  0.31 0.04 0  0.32 0.04 0  0.33 0.04 0  0.34 0.04 0  0.35 0.04 0  0.36 0.04 0  0.37 0.04 0  0.38 0.04 0  0.39 0.04 0  0.4 0.04 0  0.41 0.04 0  0.42 0.04 0  0.43 0.04 0  0.44 0.04 0  0.45 0.04 0  0.46 0.04 0  0.47 0.04 0  0.48 0.04 0  0.49 0.04 0  0.5 0.04 0  0.51 0.04 0  0.52 0.04 0  0.53 0.04 0  0.54 0.04 0  0.55 0.04 0  0.5600000000000001 0.04 0  0.57 0.04 0  0.58 0.04 0  0.59 0.04 0  0.6 0.04 0  0.61 0.04 0  0.62 0.04 0  0.63 0.04 0  0.64 0.04 0  0.65 0.04 0  0.66 0.04 0  0.67 0.04 0  0.68 0.04 0  0.6899999999999999 0.04 0  0.7 0.04 0  0.71 0.04 0  0.72 0.04 0  0.73 0.04 0  0.74 0.04 0  0.75 0.04 0  0.76 0.04 0  0.77 0.04 0  0.78 0.04 0  0.79 0.04 0  0.8 0.04 0  0.8100000000000001 0.04 0  0.82 0.04 0  0.83 0.04 0  0.84 0.04 0  0.85 0.04 0  0.86 0.04 0  0.87 0.04 0  0.88 0.04 0  0.89 0.04 0  0.9 0.04 0  0.91 0.04 0  0.92 0.04 0  0.93 0.04 0  0.9399999999999999 0.04 0  0.95 0.04 0  0.96 0.04 0  0.97 0.04 0  0.98 0.04 0  0.99 0.04 0  1 0.04 0  0 0.05 0  0.01 0.05 0  0.02 0.05 0  0.03 0.05 0  0.04 0.05 0  0.05 0.05 0  0.06 0.05 0  0.07000000000000001 0.05 0  0.08 0.05 0  0.09 0.05 0  0.1 0.05 0  0.11 0.05 0  0.12 0.05 0  0.13 0.05 0  0.14 0.05 0  0.15 0.05 0  0.16 0.05 0  0.17 0.05 0  0.18 0.05 0  0.19 0.05 0  0.2 0.05 0  0.21 0.05 0  0.22 0.05 0  0.23 0.05 0  0.24 0.05 0  0.25 0.05 0  0.26 0.05 0  0.27 0.05 0  0.28 0.05 0  0.29 0.05 0  0.3 0.05 0  0.31 0.05 0  0.32 0.05 0  0.33 0.05 0  0.34 0.05 0  0.35 0.05 0  0.36 0.05 0  0.37 0.05 0  0.38 0.05 0  0.39 0.05 0  0.4 0.05 0  0.41 0.05 0  0.42 0.05 0  0.43 0.05 0  0.44 0.05 0  0.45 0.05 0  0.46 0.05 0  0.47 0.05 0  0.48 0.05 0  0.49 0.05 0  0.5 0.05 0  0.51 0.05 0  0.52 0.05 0  0.53 0.05 0  0.54 0.05 0  0.55 0.05 0  0.5600000000000001 0.05 0  0.57 0.05 0  0.58 0.05 0  0.59 0.05 0  0.6 0.05 0  0.61 0.05 0  0.62 0.05 0  0.63 0.05 0  0.64 0.05 0  0.65 0.05 0  0.66 0.05 0  0.67 0.05 0  0.68 0.05 0  0.6899999999999999 0.05 0  0.7 0.05 0  0.71 0.05 0  0.72 0.05 0  0.73 0.05 0  0.74 0.05 0  0.75 0.05 0  0.76 0.05 0  0.77 0.05 0  0.78 0.05 0  0.79 0.05 0  0.8 0.05 0  0.8100000000000001 0.05 0  0.82 0.05 0  0.83 0.05 0  0.84 0.05 0  0.85 0.05 0  0.86 0.05 0  0.87 0.05 0  0.88 0.05 0  0.89 0.05 0  0.9 0.05 0  0.91 0.05 0  0.92 0.05 0  0.93 0.05 0  0.9399999999999999 0.05 0  0.95 0.05 0  0.96 0.05 0  0.97 0.05 0  0.98 0.05 0  0.99 0.05 0  1 0.05 0  0 0.06 0  0.01 0.06 0  0.02 0.06 0  0.03 0.06 0  0.04 0.06 0  0.05 0.06 0  0.06 0.06 0  0.07000000000000001 0.06 0  0.08 0.06 0  0.09 0.06 0  0.1 0.06 0  0.11 0.06 0  0.12 0.06 0  0.13 0.06 0  0.14 0.06 0  0.15 0.06 0  0.16 0.06 0  0.17 0.06 0  0.18 0.06 0  0.19 0.06 0  0.2 0.06 0  0.21 0.06 0  0.22 0.06 0  0.23 0.06 0  0.24 0.06 0  0.25 0.06 0  0.26 0.06 0  0.27 0.06 0  0.28 0.06 0  0.29 0.06 0  0.3 0.06 0  0.31 0.06 0  0.32 0.06 0  0.33 0.06 0  0.34 0.06 0  0.35 0.06 0  0.36 0.06 0  0.37 0.06 0  0.38 0.06 0  0.39 0.06 0  0.4 0.06 0  0.41 0.06 0  0.42 0.06 0  0.43 0.06 0  0.44 0.06 0  0.45 0.06 0  0.46 0.06 0  0.47 0.06 0  0.48 0.06 0  0.49 0.06 0  0.5 0.06 0  0.51 0.06 0  0.52 0.06 0  0.53 0.06 0  0.54 0.06 0  0.55 0.06 0  0.5600000000000001 0.06 0  0.57 0.06 0  0.58 0.06 0  0.59 0.06 0  0.6 0.06 0  0.61 0.06 0  0.62 0.06 0  0.63 0.06 0  0.64 0.06 0  0.65 0.06 0  0.66 0.06 0  0.67 0.06 0  0.68 0.06 0  0.6899999999999999 0.06 0  0.7 0.06 0  0.71 0.06 0  0.72 0.06 0  0.73 0.06 0  0.74 0.06 0  0.75 0.06 0  0.76 0.06 0  0.77 0.06 0  0.78 0.06 0  0.79 0.06 0  0.8 0.06 0  0.8100000000000001 0.06 0  0.82 0.06 0  0.83 0.06 0  0.84 0.06 0  0.85 0.06 0  0.86 0.06 0  0.87 0.06 0  0.88 0.06 0  0.89 0.06 0  0.9 0.06 0  0.91 0.06 0  0.92 0.06 0  0.93 0.06 0  0.9399999999999999 0.06 0  0.95 0.06 0  0.96 0.06 0  0.97 0.06 0  0.98 0.06 0  0.99 0.06 0  1 0.06 0  0 0.07000000000000001 0  0.01 0.07000000000000001 0  0.02 0.07000000000000001 0  0.03 0.07000000000000001 0  0.04 0.07000000000000001 0  0.05 0.07000000000000001 0  0.06 0.07000000000000001 0  0.07000000000000001 0.07000000000000001 0  0.08 0.07000000000000001 0  0.09 0.07000000000000001 0  0.1 0.07000000000000001 0  0.11 0.07000000000000001 0  0.12 0.07000000000000001 0  0.13 0.07000000000000001 0  0.14 0.07000000000000001 0  0.15 0.07000000000000001 0  0.16 0.07000000000000001 0  0.17 0.0700
[...]
<PointData  Scalars="Indicator Function"> 
<DataArray  type="Float64"  Name="Indicator Function"  format="ascii">-8.2869587512634549e-19  9.7077046394003791e-18  5.2702039866005530e-17  1.4296282404197197e-18  1.2359517546760071e-16  -4.0438696657596569e-19  -1.9259299443872359e-33  1.2389882855102070e-16  3.0384228487264650e-16  -1.1555579666323415e-33  1.0738009549496965e-16  7.9083290193286891e-17  -7.7037197775489434e-34  -1.4712164122414021e-18  1.4915509347564003e-16  -3.2396729673335672e-18  -2.7582396099695965e-18  2.4057120209631341e-16  -1.2243119319834594e-18  -1.3909701815458009e-18  1.0104791571049144e-15  -1.9728267939494845e-18  -9.8641339697473550e-19  2.9402687807047067e-16  -3.3664765903624920e-19  -1.1513446595618164e-18  -1.3362373141907659e-18  -6.2547534359402135e-19  -1.3558546808486140e-30  -9.9119805644130062e-19  -2.2342591200102836e-18  -1.1171295600051426e-18  -1.3011062611486478e-18  -1.4975233102616336e-18  4.2157853006941217e-17  -5.1703781478673737e-19  -2.4903835006359981e-18  -5.5120382021053469e-18  -6.0060534015940359e-18  -4.5347524322078337e-18  1.0827598199850119e-15  -4.1588335276300069e-20  -1.6806619800438507e-18  -1.2153585953550837e-18  -1.3041398347312281e-18  -6.5206991736558276e-19  1.9224556717575285e-16  -7.4314743378001515e-19  -1.8186733160264617e-19  -6.2032970404155820e-19  -3.1016485202077929e-19  -3.2302052578432418e-19  -7.1627348437023285e-20  -5.9508960895988521e-19  -2.8760839149550116e-19  9.8703909649845837e-34  2.2186712959340957e-31  -7.0678204810011480e-21  -7.5231638452626401e-37  -5.2785130669598584e-21  -1.8807909613156600e-37  -8.0604344102825197e-21  -1.7038980799756981e-21  -2.5255136489965375e-21  -7.0409008318802443e-21  -1.8300629882760844e-20  -3.8364607721941350e-20  2.5353062158535097e-34  4.1749831746356181e-17  -9.4740121977893563e-20  -2.5761910961202579e-20  -8.7254971774598373e-21  -1.3996818973114874e-20  -1.6407013696811097e-19  -3.4576794357842661e-19  -1.7900904733698696e-19  -4.3139905476691760e-20  -9.2310308893992584e-20  -1.0838551072676662e-19  -1.0160671181022633e-19  -6.0532679385286497e-20  2.8858430322774036e-18  -6.4814751116735968e-20  -8.7987229593527978e-20  -8.5350622055015022e-20  -7.0107536659796957e-20  -4.8750592225916944e-20  -2.5503210030499324e-20  -1.3277981481676202e-20  -5.7536791072655575e-21  -8.8930930021449877e-22  0.0000000000000000e+00  -7.1393614009012573e-22  1.0021362101966050e-19  -1.8711405730378121e-21  -1.7025180046228518e-21  -1.1188857463739517e-21  -8.0527820771153229e-22  -1.1001093379387516e-22  -5.5005466896937674e-23  0.0000000000000000e+00  3.8518598887744717e-34  1.4928457737689926e-02  4.8805194815294266e-02  1.5404878952144093e-02  1.3453243529637227e-02  9.8182718965828045e-03  7.2847879679400155e-03  2.1070192402506032e-03  3.0545047537624673e-02  3.9119574550570024e-02  2.0105600211564544e-03  5.3759920942749874e-02  4.6576886551545089e-03  5.3006157487613219e-02  5.4774335691360936e-03  5.8380599664563312e-02  4.9909051322019907e-02  2.4733501857620546e-02  4.4110486085327673e-02  5.0114982330344435e-02  3.2150420192946498e-02  4.5085028352784662e-02  3.5539288056389715e-02  1.4562960893547397e-03  1.2129010174326405e-02  4.1481563038220835e-02  4.8143022962144656e-02  2.2535124194715258e-02  7.6152160488998331e-03  1.2961584450906097e-02  1.1375044565104549e-02  4.0248834161309775e-02  4.3411804978742953e-02  1.7327442021423936e-03  2.6110609587220546e-02  1.8628250480080044e-02  1.2177309238236038e-02  3.8774106202777631e-02  7.9908999670825487e-02  6.8240939610132015e-02  4.7570367650568560e-02  2.5075842664642412e-02  7.4918884501321936e-04  2.9901520245738368e-02  6.9431939457815480e-03  2.3493294694938313e-02  3.5519879577285661e-02  3.5948182181983826e-03  1.3387354023412065e-02  3.2762305873461754e-03  1.1174866495873648e-02  6.4767465607541890e-03  2.5806471978441197e-03  3.4899381922878139e-03  8.9752122685112633e-03  6.9348604481543348e-04  2.0674912832472172e-03  1.0483842137648113e-03  3.5948672424225922e-04  2.5334490201893992e-04  1.3424778413276040e-04  5.4337641874513683e-05  1.5795400428801119e-04  4.5995900557415384e-06  4.5495609314159617e-05  1.2683759345123391e-04  5.6254277410088612e-04  4.0984394511255805e-04  1.8338517103144388e-04  1.5570313026098332e-03  9.2817066084179033e-04  3.1436916669624345e-04  5.0428854969353926e-04  7.1768650368698051e-04  3.8433588216483902e-03  4.3071221166016641e-03  1.0711792572303744e-03  7.7713944891851005e-04  1.2743449664905065e-03  1.3153272996404544e-03  1.1727201479672790e-03  5.0409973530961445e-04  7.1091971000217973e-04  1.0002529444813359e-03  1.0849105454024312e-03  9.9508484603000671e-04  7.6540268089269627e-04  5.3106086176695248e-04  3.4372501894496324e-04  2.0629541084398178e-04  1.0545501809211977e-04  4.1789808979965938e-05  6.1508064135764219e-06  1.2861130137905085e-05  2.1803542658299174e-05  2.2805700620814033e-05  1.9266987494437121e-05  1.4509371463613397e-05  7.2519168129102474e-06  1.9817808017631059e-06  5.5005466896938003e-23  -6.7333066467662068e-19  8.8133531465699830e-03  9.6317005223904902e-03  2.1798441840947504e-02  2.0034483271382967e-02  4.5793736137889042e-02  9.7885477718579503e-04  3.7197524102599737e-02  2.2748481013594647e-02  3.3889561010311417e-02  7.3067091044156512e-02  5.8517642193243534e-02  3.7675195009279120e-03  7.6284151836868416e-02  9.3783249264687646e-02  9.5383645892983995e-02  1.4877393772564550e-02  8.3860489796143495e-02  3.9090104830689669e-03  2.8755245573255990e-02  1.0133913978452459e-02  7.1269979736002034e-02  6.3193147131899677e-02  1.9042406982654643e-02  3.7088053586598756e-03  1.3754814292045118e-02  1.1645126175861990e-02  7.2567473742946283e-03  1.7519183363119605e-02  7.7654958931237545e-03  7.6775026657911041e-02  6.0573816267878333e-02  1.8395869526249112e-02  4.4543095431229369e-02  4.5925725247742064e-02  2.5730145552947066e-02  1.2062843243810047e-02  5.2309460677721527e-02  7.6963465051066632e-02  7.4851972448948256e-02  1.2304372342033033e-01  3.8024360970897793e-02  2.0593659361949287e-02  5.8164338077487943e-03  2.2309952111521966e-02  1.8781877475515563e-02  2.5879380318807665e-02  2.1367106494872361e-04  3.5692892790744092e-02  2.0323214235680714e-02  2.2531033512637924e-02  4.5603163701379134e-03  3.0150460685897406e-03  5.3624444121911840e-03  1.8889429102557993e-02  2.1456650610387046e-03  8.5671822833184791e-04  2.6943488504568829e-03  1.0093363495019228e-03  4.4017559024618500e-04  2.8662272358668080e-04  1.1246828267788637e-04  2.1402379619894597e-04  4.3646669958657963e-05  1.0823472255461627e-04  1.4618451580571460e-04  3.1520926339530405e-04  1.1804787571517625e-03  1.4694051329778963e-04  1.3304604814644021e-03  2.4137630358892228e-03  2.3657342453292735e-04  2.3230957309345034e-04  6.0515936059863892e-04  3.4685042849287233e-03  7.0095888134460360e-03  3.4011613225794998e-03  9.9464614229537759e-04  1.6813911117223414e-03  1.5100621942864267e-03  1.7561301447026458e-03  1.0457091522614241e-03  6.6766356440699779e-04  1.4095543264760412e-03  1.5390683156190595e-03  1.4520172028983230e-03  1.1769331126058992e-03  8.5179699576603911e-04  5.7419187215716424e-04  3.6559329252360511e-04  2.0451193096934225e-04  9.1115749316144205e-05  2.4808276113696520e-05  1.1365912775467320e-05  3.0773295194515294e-05  3.8194561896164133e-05  3.6426739901541267e-05  2.9552354710989186e-05  2.2617852603585434e-05  6.2016762583014721e-06  -1.6956028740540176e-21  9.6296497219361793e-34  3.6794548897549455e-02  2.7519866001487897e-02  8.6814015939415387e-02  3.2904633909871521e-02  9.2267782693177033e-03  1.6661378242056213e-02  3.3338548262418888e-02  1.6473973627315983e-02  5.0323564699673161e-02  1.2745390892347833e-01  7.1603921593407310e-02  8.4311660701622201e-02  8.4254076722364860e-02  6.0259655368692135e-02  4.4133478261516812e-02  1.5076864002188853e-01  5.5018127025049934e-02  3.9050893159325958e-02  5.3324296491696503e-02  1.1672793027108498e-01  1.2210682564832206e-01  1.3445493213615548e-01  1.2914425399499468e-01  3.7593456997190085e-02  7.4551556669425964e-03  8.0711507078447597e-02  1.3959385101266497e-01  7.6344859555682099e-02  1.2697405862138146e-02  1.1032167331634177e-02  4.9278347749213525e-02  9.7845007078715060e-02  1.0442947491342347e-01  2.4320019389438233e-02  5.4228109594381471e-02  2.9346958747815604e-02  3.8075564284346865e-02  7.9019053734639119e-02  1.3738677858489687e-01  6.7588660396799255e-02  7.2975777123074820e-02  3.4432014994581712e-02  2.2492705831937240e-02  5.0199953099793651e-02  8.0843145652239688e-03  6.1807543687556275e-02  1.0227761285590353e-01  3.7454497129773959e-02  4.0036244441956685e-02  2.4742475814930446e-02  3.3466343773825243e-02  2.0804992493586753e-02  2.9003264896206818e-04  6.2955952948922670e-03  2.0916630312155453e-02  6.2877329506445387e-03  3.0262817699062980e-03  2.4219395321818313e-03  7.4205873585550899e-04  5.7519940734485520e-04  3.0202144029271258e-04  1.0844347460436517e-04  3.7293773576044860e-04  6.9353683216107832e-05  1.4654811288818953e-04  2.7490782106624263e-04  9.1063019255809127e-04  8.4569783827168044e-04  2.0113947040375683e-04  2.9626681961136092e-03  1.5724535415303172e-03  1.5343757324285487e-03  8.7278489210428664e-04  9.6969229573062518e-04  7.1002370264536003e-03  7.2575266084906947e-03  1.9809593062232559e-04  2.5202955298862955e-03  1.7443733370995057e-03  1.4129535714485898e-03  1.6673404661968290e-03  5.1546761267633331e-04  1.1971206311235047e-03  1.9092146928878224e-03  1.7389869363449496e-03  1.4451119801822624e-03  1.0670668120430125e-03  7.4976138525008795e-04  5.0612477894414610e-04  3.1748904373063972e-04  1.6589527265297870e-04  6.7768835117802310e-05  1.2286082345757451e-05  1.9244082642262798e-05  3.6162214206627219e-05  4.0152500270456379e-05  3.6800042264091430e-05  3.1019648263915329e-05  2.0735565193772040e-05  -2.8776377383427145e-21  -4.6187987470701447e-19  3.5213676144316558e-02  3.4371366152944345e-02  4.6368676477491440e-02  1.6306923223505271e-02  2.8120905023021579e-02  4.5654373020830301e-02  4.8892590791974611e-02  4.7909457427271276e-02  3.8778828574418445e-02  1.9468544535362444e-03  4.5043811245160950e-02  9.0795255530711730e-02  8.5318182611930415e-02  7.3835604342827779e-02  2.0273052704191566e-01  5.5276227841483838e-02  9.7865932322939199e-03  1.0986671158173701e-01  1.9960605760733916e-02  7.2107265739366364e-02  5.5883981023393564e-02  4.1968536933749571e-02  5.0408950259094816e-02  9.4841718002029191e-03  4.8286437295057133e-03  2.8763202271493156e-02  4.4831773318945362e-02  4.2267675977177961e-02  4.2741464446488124e-02  3.0181037829590668e-02  9.6514826580257382e-02  9.7892432308194555e-02  5.1406468554913501e-02  1.2688153095930163e-01  3.0559034728444127e-02  1.6881793715464818e-02  2.0407808094777481e-02  6.5305332172248917e-02  8.7836686825831470e-02  1.0958403448887521e-01  1.4127792428150840e-01  8.2592051765676220e-03  3.5947377498193822e-02  3.6445085079477241e-03  4.0235957491076703e-02  3.5456402548054648e-02  3.9832740687751429e-03  3.5942937994102517e-02  2.7866315456846823e-02  2.5873790485918726e-02  2.3241972294076860e-02  2.1755584469796592e-03  1.1358524565196046e-02  5.2789080301738137e-03  2.9001160946919447e-02  3.8335729372592216e-03  4.8268542636934701e-03  3.8961289680034630e-03  1.6596761748602601e-03  6.8359259543593733e-04  5.3810716683440785e-04  2.7360376332335860e-04  3.3093756174185437e-04  1.9674522429872501e-04  1.4370914889411411e-04  8.7020444285282545e-05  3.5883092674591046e-04  1.5761358928982165e-03  3.5107189924953795e-04  1.2630150840813284e-03  3.5813273136404366e-03  6.0376626502157873e-04  1.1444867111751599e-03  1.3630297696570416e-03  4.2641684829219451e-03  9.7895879676629678e-03  4.1285598935563439e-03  3.2344161409020109e-03  2.8616659348197244e-03  1.3945356433641496e-03  1.5788961669032759e-03  1.0396081666249981e-03  4.2325985399928703e-04  1.8469386253023091e-03  2.0894808043373210e-03  1.7119981913838384e-03  1.2772463393383676e-03  8.9271009794789286e-04  6.1650782976049661e-04  4.1665890848829960e-04  2.4862268175350743e-04  1.2131471443396392e-04  4.6507603079552165e-05  4.5809988953729433e-06  2.0516100782475269e-05  3.2504668918963019e-05  3.2815665881728253e-05  2.7180213085692002e-05  2.1756328370078270e-05  5.4347347547474378e-21  -2.6369333564010313e-18  8.8672541000397162e-02  6.8234335338545893e-02  1.4085128358440979e-02  1.0105589372957763e-01  8.7310605997747037e-02  1.7356182348206264e-02  1.3235127782937206e-02  2.7395992871072822e-02  5.6934841186838121e-02  3.5619278074045913e-02  1.3830013263399021e-01  1.4838431602079222e-01  2.6231525980610279e-02  9.5602609834620531e-02  1.5679189409709533e-02  3.0451001542081478e-03  2.0332929743495468e-01  1.9509133290741488e-02  4.8078039058898646e-02  1.7561260173695362e-02  1.0132497297998345e-01  1.4704376077029507e-01  1.8254093081785952e-01  1.8523278678753363e-01  7.4819088897798786e-02  3.5878968030972811e-03  5.7102100539004781e-02  1.5925882467670172e-01  1.0619872763166462e-01  6.5552682700013255e-03  2.7893787014795720e-02  1.0315117019515430e-01  1.5328275597483335e-01  9.5399587872332811e-02  4.2441493822263157e-03  8.0674722541505761e-02  2.9880539579846703e-02  6.4074218648054959e-02  1.0384956448330475e-01  1.4128140754432830e-01  5.4157664879655294e-02  1.0694166860193517e-01  1.8374493766432961e-02  5.9138424390223147e-02  4.6101517545355811e-02  1.6814031656910061e-02  8.1072173172288611e-02  1.2582446783931295e-01  5.0535877609336650e-02  5.7507411449621959e-02  4.6493876073545111e-02  4.8355633999894308e-02  2.7998835049689117e-02  4.7015756310276067e-04  5.0827755066174644e-03  3.2163044442622232e-02  1.1239403445021799e-02  8.7482304035699796e-04  3.4414263441705597e-03  9.5422538877407181e-04  7.5118094356306639e-04  4.2569688060442508e-04  2.2571837912170278e-04  5.1969334327502581e-04  9.1155431544093412e-06  2.7417992826013422e-04  2.4805190058267403e-04  9.3655240507054221e-04  1.1115749918098273e-03  6.4943542844070020e-04  3.3197474838979123e-03  2.2712580647325830e-03  2.3247678585457910e-03  6.4122995016023391e-04  3.5506782261579848e-04  8.3943074105558586e-03  9.3671900859344289e-03  7.2403825305767267e-04  4.4119288827342900e-03  2.2889002492951643e-03  1.1575467105984227e-03  1.5807480630589137e-03  3.3999591141157089e-04  1.0325212950440450e-03  2.3101831996882476e-03  2.0422602494039105e-03  1.5177099717512952e-03  1.0536711995555476e-03  7.2553764993415516e-04  5.0288282039881156e-04  3.2925144980585898e-04  1.7880495349286438e-04  7.9853279009672024e-05  2.5728268652322358e-05  5.0472349515885676e-06  2.2583007648241270e-05  2.7090726219386621e-05  2.3154387807924285e-05  1.5500051477177058e-05  -8.6042570164185431e-22  -8.8382436895839446e-19  7.1737175318770080e-02  2.9781526756420616e-02  2.1042260357083089e-02  9.0847760745276826e-02  3.9036712157301465e-02  2.2706669654470171e-02  2.1850751297611562e-02  6.9994137427179262e-02  2.9475140119499650e-02  2.3575360559104162e-02  1.5133759300644568e-02  2.1252127010217170e-02  1.9219972437695864e-02  1.2901902319223138e-01  5.1625753023286838e-03  2.0710034196356095e-01  4.6458329234834369e-04  5.2915838526142359e-02  1.0483114568569242e-01  9.2973325109582412e-03  6.0984558904138508e-02  1.1345282212403392e-01  1.7449657622780064e-02  2.1871719021456376e-03  8.3195936134346865e-02  3.2386937663056413e-02  8.6619334135003157e-03  7.5823573123957835e-02  1.1417020875569511e-01  6.9872901075379454e-02  2.9004753304066343e-02  8.4420672647383566e-02  8.1780921764841835e-02  7.9390875818356244e-02  1.7802294740587551e-01  6.4385680150757390e-04  2.4126943545821226e-02  9.8287524479912930e-03  7.2073967494253294e-02  1.0918500567938876e-01  1.4017588103060138e-01  1.1754697205195933e-01  3.1545877093748327e-03  3.4394749882106813e-02  1.1376956593665697e-02  5.4928222854849898e-02  5.2686611773768897e-02  2.4460448416251144e-02  8.3349859977836144e-02  1.0706134495564671e-03  1.1248257040320007e-02  7.1718363439423833e-03  1.6814923571585611e-02  2.2898378954760639e-02  3.0532090913535119e-03  3.1222109730347277e-02  1.0444473474469850e-02  1.1620869805773003e-02  3.9733577804682832e-03  2.3559468108251369e-03  7.9229682300134053e-04  6.5549160287190161e-04  3.2857397653297403e-04  3.9282774252795660e-04  3.0724402299889942e-04  1.7775152092125481e-04  4.1377993407185831e-05  3.8976798264509795e-04  1.6039005179964393e-03  2.8609565415355727e-04  9.4577160426882756e-04  4.1517204284177199e-03  4.0129421265648732e-04  1.8722844083580363e-03  1.5986490026945672e-03  4.2371097522903491e-03  1.1407255088766060e-02  5.3005100650160538e-03  4.5294254007708064e-03  4.1757807097653754e-03  1.4497322139126799e-03  1.2525488436228060e-03  9.8035658038453247e-04  2.2185316294420283e-04  1.8857021843076986e-03  2.4907111978800219e-03  1.8701806064660919e-03  1.2558907073104695e-03  8.3850544925499174e-04  5.8293553934848376e-04  4.0906032819142726e-04  2.4936298338431304e-04  1.2145873711474355e-04  4.7693206360430689e-05  8.2871419790136056e-06  1.4863318379725761e-05  2.5052681267450744e-05  2.2773863277179529e-05  1.3361562658468863e-05  -7.4171572542018990e-22  -2.5350214668187122e-20  2.9510357957096139e-02  3.0796716536083721e-02  7.1204845432934569e-03  7.3076423899544871e-02  5.0177554004631905e-02  1.0442977350312704e-01  2.9521014926341526e-03  4.5093214791489186e-02  2.6075146035503399e-03  6.7484870538155245e-02  2.1476948288851504e-02  9.9842229521037440e-02  1.1937137460194165e-01  8.5953259944238636e-03  2.6401993912708224e-02  2.9473615143682252e-02  8.2587420496770966e-02  1.7260595291863221e-01  1.1460021087464646e-02  4.3971275232459701e-02  1.7256766402078039e-03  5.6102384415568161e-02  9.1793509382706251e-02  1.5821055993949298e-01  1.5633184336916753e-01  5.3071545772349960e-02  6.8450913180314286e-03  3.3526757211706566e-02  1.0649506548048261e-01  8.1630928187957474e-02  3.0822668466317354e-02  6.3409631749491241e-02  1.1596933596298849e-01  1.8682254992708602e-01  5.7335859848827296e-02  6.4136263182072592e-02  7.7306512744415537e-02  2.2397051971464684e-02  7.9694414633495372e-02  1.1348771873410374e-01  1.3458718118642859e-01  7.5186743252672633e-02  1.1882550036213775e-01  8.2864856521152695e-03  7.6788306795954206e-02  3.8947339432386006e-02  1.1630427638832132e-02  8.8993642167759873e-02  1.0615053975977853e-01  1.8901272304713224e-02  4.5250241639971010e-02  4.6426969972743717e-02  4.5508064123894514e-02  2.1979058222695139e-02  8.2672015123681272e-03  6.5856754131100878e-03  3.8248514286012524e-02  1.0339891477214591e-02  4.3255947892777008e-03  4.1682702094860179e-03  1.2374611086480608e-03  8.4147247463206814e-04  4.7427293257109888e-04  2.7963444255342171e-04  5.2248730147843258e-04  8.4824288382555303e-05  2.7554374252608852e-04  1.8681653282112698e-04  1.0205760293268734e-03  1.1339729517533725e-03  6.4514590066001062e-04  3.2114520088003680e-03  2.7991402223793214e-03  2.3975570398810102e-03  1.4459597970496407e-04  2.6068043138669430e-05  8.9222322460404836e-03  1.0897136969916222e-02  3.3789310447757571e-04  5.9592871774491107e-03  3.1435224847342212e-03  1.0343723522109863e-03  1.2432940679544978e-03  2.6427557383646626e-04  8.2096982111920719e-04  2.4990377825287154e-03  2.4073459340767660e-03  1.6035896827223679e-03  1.0096009237570520e-03  6.6861288504870692e-04  4.7547144551820467e-04  3.2457871177292723e-04  1.7952820437443194e-04  8.0043146810341735e-05  2.6236984087512143e-05  3.7449665635643548e-06  2.0472713311753543e-05  2.3316432182870649e-05  1.5456734162527371e-05  -1.8422394425991449e-21  -4.4324471563496562e-19  4.5666886933363587e-04  1.5594602904310419e-02  2.4910977869270160e-02  4.4690250932946318e-02  3.1142698531697852e-02  8.9602243786166672e-02  6.0259255571237262e-03  3.7449281470978706e-03  5.6591691759658475e-02  1.8969158124010763e-02  1.0459711924188944e-02  1.4546350504264388e-02  2.5936315306614569e-02  4.9157432708737736e-02  8.3685676789699279e-02  1.8138007244476621e-02