<?xml version="1.0"?>
<VTKFile type="UnstructuredGrid"  version="0.1"  >
<UnstructuredGrid>
<Piece  NumberOfPoints="10201" NumberOfCells="20000">
<Points>
<DataArray  type="Float64"  NumberOfComponents="3"  format="ascii">0 0 0  0.01 0 0  0.02 0 0  0.03 0 0  0.04 0 0  0.05 0 0  0.06 0 0  0.07000000000000001 0 0  0.08 0 0  0.09 0 0  0.1 0 0  0.11 0 0  0.12 0 0  0.13 0 0  0.14 0 0  0.15 0 0  0.16 0 0  0.17 0 0  0.18 0 0  0.19 0 0  0.2 0 0  0.21 0 0  0.22 0 0  0.23 0 0  0.24 0 0  0.25 0 0  0.26 0 0  0.27 0 0  0.28 0 0  0.29 0 0  0.3 0 0  0.31 0 0  0.32 0 0  0.33 0 0  0.34 0 0  0.35 0 0  0.36 0 0  0.37 0 0  0.38 0 0  0.39 0 0  0.4 0 0  0.41 0 0  0.42 0 0  0.43 0 0  0.44 0 0  0.45 0 0  0.46 0 0  0.47 0 0  0.48 0 0  0.49 0 0  0.5 0 0  0.51 0 0  0.52 0 0  0.53 0 0  0.54 0 0  0.55 0 0  0.5600000000000001 0 0  0.57 0 0  0.58 0 0  0.59 0 0  0.6 0 0  0.61 0 0  0.62 0 0  0.63 0 0  0.64 0 0  0.65 0 0  0.66 0 0  0.67 0 0  0.68 0 0  0.6899999999999999 0 0  0.7 0 0  0.71 0 0  0.72 0 0  0.73 0 0  0.74 0 0  0.75 0 0  0.76 0 0  0.77 0 0  0.78 0 0  0.79 0 0  0.8 0 0  0.8100000000000001 0 0  0.82 0 0  0.83 0 0  0.84 0 0  0.85 0 0  0.86 0 0  0.87 0 0  0.88 0 0  0.89 0 0  0.9 0 0  0.91 0 0  0.92 0 0  0.93 0 0  0.9399999999999999 0 0  0.95 0 0  0.96 0 0  0.97 0 0  0.98 0 0  0.99 0 0  1 0 0  0 0.01 0  0.01 0.01 0  0.02 0.01 0  0.03 0.01 0  0.04 0.01 0  0.05 0.01 0  0.06 0.01 0  0.07000000000000001 0.01 0  0.08 0.01 0  0.09 0.01 0  0.1 0.01 0  0.11 0.01 0  0.12 0.01 0  0.13 0.01 0  0.14 0.01 0  0.15 0.01 0  0.16 0.01 0  0.17 0.01 0  0.18 0.01 0  0.19 0.01 0  0.2 0.01 0  0.21 0.01 0  0.22 0.01 0  0.23 0.01 0  0.24 0.01 0  0.25 0.01 0  0.26 0.01 0  0.27 0.01 0  0.28 0.01 0  0.29 0.01 0  0.3 0.01 0  0.31 0.01 0  0.32 0.01 0  0.33 0.01 0  0.34 0.01 0  0.35 0.01 0  0.36 0.01 0  0.37 0.01 0  0.38 0.01 0  0.39 0.01 0  0.4 0.01 0  0.41 0.01 0  0.42 0.01 0  0.43 0.01 0  0.44 0.01 0  0.45 0.01 0  0.46 0.01 0  0.47 0.01 0  0.48 0.01 0  0.49 0.01 0  0.5 0.01 0  0.51 0.01 0  0.52 0.01 0  0.53 0.01 0  0.54 0.01 0  0.55 0.01 0  0.5600000000000001 0.01 0  0.57 0.01 0  0.58 0.01 0  0.59 0.01 0  0.6 0.01 0  0.61 0.01 0  0.62 0.01 0  0.63 0.01 0  0.64 0.01 0  0.65 0.01 0  0.66 0.01 0  0.67 0.01 0  0.68 0.01 0  0.6899999999999999 0.01 0  0.7 0.01 0  0.71 0.01 0  0.72 0.01 0  0.73 0.01 0  0.74 0.01 0  0.75 0.01 0  0.76 0.01 0  0.77 0.01 0  0.78 0.01 0  0.79 0.01 0  0.8 0.01 0  0.8100000000000001 0.01 0  0.82 0.01 0  0.83 0.01 0  0.84 0.01 0  0.85 0.01 0  0.86 0.01 0  0.87 0.01 0  0.88 0.01 0  0.89 0.01 0  0.9 0.01 0  0.91 0.01 0  0.92 0.01 0  0.93 0.01 0  0.9399999999999999 0.01 0  0.95 0.01 0  0.96 0.01 0  0.97 0.01 0  0.98 0.01 0  0.99 0.01 0  1 0.01 0  0 0.02 0  0.01 0.02 0  0.02 0.02 0  0.03 0.02 0  0.04 0.02 0  0.05 0.02 0  0.06 0.02 0  0.07000000000000001 0.02 0  0.08 0.02 0  0.09 0.02 0  0.1 0.02 0  0.11 0.02 0  0.12 0.02 0  0.13 0.02 0  0.14 0.02 0  0.15 0.02 0  0.16 0.02 0  0.17 0.02 0  0.18 0.02 0  0.19 0.02 0  0.2 0.02 0  0.21 0.02 0  0.22 0.02 0  0.23 0.02 0  0.24 0.02 0  0.25 0.02 0  0.26 0.02 0  0.27 0.02 0  0.28 0.02 0  0.29 0.02 0  0.3 0.02 0  0.31 0.02 0  0.32 0.02 0  0.33 0.02 0  0.34 0.02 0  0.35 0.02 0  0.36 0.02 0  0.37 0.02 0  0.38 0.02 0  0.39 0.02 0  0.4 0.02 0  0.41 0.02 0  0.42 0.02 0  0.43 0.02 0  0.44 0.02 0  0.45 0.02 0  0.46 0.02 0  0.47 0.02 0  0.48 0.02 0  0.49 0.02 0  0.5 0.02 0  0.51 0.02 0  0.52 0.02 0  0.53 0.02 0  0.54 0.02 0  0.55 0.02 0  0.5600000000000001 0.02 0  0.57 0.02 0  0.58 0.02 0  0.59 0.02 0  0.6 0.02 0  0.61 0.02 0  0.62 0.02 0  0.63 0.02 0  0.64 0.02 0  0.65 0.02 0  0.66 0.02 0  0.67 0.02 0  0.68 0.02 0  0.6899999999999999 0.02 0  0.7 0.02 0  0.71 0.02 0  0.72 0.02 0  0.73 0.02 0  0.74 0.02 0  0.75 0.02 0  0.76 0.02 0  0.77 0.02 0  0.78 0.02 0  0.79 0.02 0  0.8 0.02 0  0.8100000000000001 0.02 0  0.82 0.02 0  0.83 0.02 0  0.84 0.02 0  0.85 0.02 0  0.86 0.02 0  0.87 0.02 0  0.88 0.02 0  0.89 0.02 0  0.9 0.02 0  0.91 0.02 0  0.92 0.02 0  0.93 0.02 0  0.9399999999999999 0.02 0  0.95 0.02 0  0.96 0.02 0  0.97 0.02 0  0.98 0.02 0  0.99 0.02 0  1 0.02 0  0 0.03 0  0.01 0.03 0  0.02 0.03 0  0.03 0.03 0  0.04 0.03 0  0.05 0.03 0  0.06 0.03 0  0.07000000000000001 0.03 0  0.08 0.03 0  0.09 0.03 0  0.1 0.03 0  0.11 0.03 0  0.12 0.03 0  0.13 0.03 0  0.14 0.03 0  0.15 0.03 0  0.16 0.03 0  0.17 0.03 0  0.18 0.03 0  0.19 0.03 0  0.2 0.03 0  0.21 0.03 0  0.22 0.03 0  0.23 0.03 0  0.24 0.03 0  0.25 0.03 0  0.26 0.03 0  0.27 0.03 0  0.28 0.03 0  0.29 0.03 0  0.3 0.03 0  0.31 0.03 0  0.32 0.03 0  0.33 0.03 0  0.34 0.03 0  0.35 0.03 0  0.36 0.03 0  0.37 0.03 0  0.38 0.03 0  0.39 0.03 0  0.4 0.03 0  0.41 0.03 0  0.42 0.03 0  0.43 0.03 0  0.44 0.03 0  0.45 0.03 0  0.46 0.03 0  0.47 0.03 0  0.48 0.03 0  0.49 0.03 0  0.5 0.03 0  0.51 0.03 0  0.52 0.03 0  0.53 0.03 0  0.54 0.03 0  0.55 0.03 0  0.5600000000000001 0.03 0  0.57 0.03 0  0.58 0.03 0  0.59 0.03 0  0.6 0.03 0  0.61 0.03 0  0.62 0.03 0  0.63 0.03 0  0.64 0.03 0  0.65 0.03 0  0.66 0.03 0  0.67 0.03 0  0.68 0.03 0  0.6899999999999999 0.03 0  0.7 0.03 0  0.71 0.03 0  0.72 0.03 0  0.73 0.03 0  0.74 0.03 0  0.75 0.03 0  0.76 0.03 0  0.77 0.03 0  0.78 0.03 0  0.79 0.03 0  0.8 0.03 0  0.8100000000000001 0.03 0  0.82 0.03 0  0.83 0.03 0  0.84 0.03 0  0.85 0.03 0  0.86 0.03 0  0.87 0.03 0  0.88 0.03 0  0.89 0.03 0  0.9 0.03 0  0.91 0.03 0  0.92 0.03 0  0.93 0.03 0  0.9399999999999999 0.03 0  0.95 0.03 0  0.96 0.03 0  0.97 0.03 0  0.98 0.03 0  0.99 0.03 0  1 0.03 0  0 0.04 0  0.01 0.04 0  0.02 0.04 0  0.03 0.04 0  0.04 0.04 0  0.05 0.04 0  0.06 0.04 0  0.07000000000000001 0.04 0  0.08 0.04 0  0.09 0.04 0  0.1 0.04 0  0.11 0.04 0  0.12 0.04 0  0.13 0.04 0  0.14 0.04 0  0.15 0.04 0  0.16 0.04 0  0.17 0.04 0  0.18 0.04 0  0.19 0.04 0  0.2 0.04 0  0.21 0.04 0  0.22 0.04 0  0.23 0.04 0  0.24 0.04 0  0.25 0.04 0  0.26 0.04 0  0.27 0.04 0  0.28 0.04 0  0.29 0.04 0  0.3 0.04 0  0.31 0.04 0  0.32 0.04 0  0.33 0.04 0  0.34 0.04 0  0.35 0.04 0  0.36 0.04 0  0.37 0.04 0  0.38 0.04 0  0.39 0.04 0  0.4 0.04 0  0.41 0.04 0  0.42 0.04 0  0.43 0.04 0  0.44 0.04 0  0.45 0.04 0  0.46 0.04 0  0.47 0.04 0  0.48 0.04 0  0.49 0.04 0  0.5 0.04 0  0.51 0.04 0  0.52 0.04 0  0.53 0.04 0  0.54 0.04 0  0.55 0.04 0  0.5600000000000001 0.04 0  0.57 0.04 0  0.58 0.04 0  0.59 0.04 0  0.6 0.04 0  0.61 0.04 0  0.62 0.04 0  0.63 0.04 0  0.64 0.04 0  0.65 0.04 0  0.66 0.04 0  0.67 0.04 0  0.68 0.04 0  0.6899999999999999 0.04 0  0.7 0.04 0  0.71 0.04 0  0.72 0.04 0  0.73 0.04 0  0.74 0.04 0  0.75 0.04 0  0.76 0.04 0  0.77 0.04 0  0.78 0.04 0  0.79 0.04 0  0.8 0.04 0  0.8100000000000001 0.04 0  0.82 0.04 0  0.83 0.04 0  0.84 0.04 0  0.85 0.04 0  0.86 0.04 0  0.87 0.04 0  0.88 0.04 0  0.89 0.04 0  0.9 0.04 0  0.91 0.04 0  0.92 0.04 0  0.93 0.04 0  0.9399999999999999 0.04 0  0.95 0.04 0  0.96 0.04 0  0.97 0.04 0  0.98 0.04 0  0.99 0.04 0  1 0.04 0  0 0.05 0  0.01 0.05 0  0.02 0.05 0  0.03 0.05 0  0.04 0.05 0  0.05 0.05 0  0.06 0.05 0  0.07000000000000001 0.05 0  0.08 0.05 0  0.09 0.05 0  0.1 0.05 0  0.11 0.05 0  0.12 0.05 0  0.13 0.05 0  0.14 0.05 0  0.15 0.05 0  0.16 0.05 0  0.17 0.05 0  0.18 0.05 0  0.19 0.05 0  0.2 0.05 0  0.21 0.05 0  0.22 0.05 0  0.23 0.05 0  0.24 0.05 0  0.25 0.05 0  0.26 0.05 0  0.27 0.05 0  0.28 0.05 0  0.29 0.05 0  0.3 0.05 0  0.31 0.05 0  0.32 0.05 0  0.33 0.05 0  0.34 0.05 0  0.35 0.05 0  0.36 0.05 0  0.37 0.05 0  0.38 0.05 0  0.39 0.05 0  0.4 0.05 0  0.41 0.05 0  0.42 0.05 0  0.43 0.05 0  0.44 0.05 0  0.45 0.05 0  0.46 0.05 0  0.47 0.05 0  0.48 0.05 0  0.49 0.05 0  0.5 0.05 0  0.51 0.05 0  0.52 0.05 0  0.53 0.05 0  0.54 0.05 0  0.55 0.05 0  0.5600000000000001 0.05 0  0.57 0.05 0  0.58 0.05 0  0.59 0.05 0  0.6 0.05 0  0.61 0.05 0  0.62 0.05 0  0.63 0.05 0  0.64 0.05 0  0.65 0.05 0  0.66 0.05 0  0.67 0.05 0  0.68 0.05 0  0.6899999999999999 0.05 0  0.7 0.05 0  0.71 0.05 0  0.72 0.05 0  0.73 0.05 0  0.74 0.05 0  0.75 0.05 0  0.76 0.05 0  0.77 0.05 0  0.78 0.05 0  0.79 0.05 0  0.8 0.05 0  0.8100000000000001 0.05 0  0.82 0.05 0  0.83 0.05 0  0.84 0.05 0  0.85 0.05 0  0.86 0.05 0  0.87 0.05 0  0.88 0.05 0  0.89 0.05 0  0.9 0.05 0  0.91 0.05 0  0.92 0.05 0  0.93 0.05 0  0.9399999999999999 0.05 0  0.95 0.05 0  0.96 0.05 0  0.97 0.05 0  0.98 0.05 0  0.99 0.05 0  1 0.05 0  0 0.06 0  0.01 0.06 0  0.02 0.06 0  0.03 0.06 0  0.04 0.06 0  0.05 0.06 0  0.06 0.06 0  0.07000000000000001 0.06 0  0.08 0.06 0  0.09 0.06 0  0.1 0.06 0  0.11 0.06 0  0.12 0.06 0  0.13 0.06 0  0.14 0.06 0  0.15 0.06 0  0.16 0.06 0  0.17 0.06 0  0.18 0.06 0  0.19 0.06 0  0.2 0.06 0  0.21 0.06 0  0.22 0.06 0  0.23 0.06 0  0.24 0.06 0  0.25 0.06 0  0.26 0.06 0  0.27 0.06 0  0.28 0.06 0  0.29 0.06 0  0.3 0.06 0  0.31 0.06 0  0.32 0.06 0  0.33 0.06 0  0.34 0.06 0  0.35 0.06 0  0.36 0.06 0  0.37 0.06 0  0.38 0.06 0  0.39 0.06 0  0.4 0.06 0  0.41 0.06 0  0.42 0.06 0  0.43 0.06 0  0.44 0.06 0  0.45 0.06 0  0.46 0.06 0  0.47 0.06 0  0.48 0.06 0  0.49 0.06 0  0.5 0.06 0  0.51 0.06 0  0.52 0.06 0  0.53 0.06 0  0.54 0.06 0  0.55 0.06 0  0.5600000000000001 0.06 0  0.57 0.06 0  0.58 0.06 0  0.59 0.06 0  0.6 0.06 0  0.61 0.06 0  0.62 0.06 0  0.63 0.06 0  0.64 0.06 0  0.65 0.06 0  0.66 0.06 0  0.67 0.06 0  0.68 0.06 0  0.6899999999999999 0.06 0  0.7 0.06 0  0.71 0.06 0  0.72 0.06 0  0.73 0.06 0  0.74 0.06 0  0.75 0.06 0  0.76 0.06 0  0.77 0.06 0  0.78 0.06 0  0.79 0.06 0  0.8 0.06 0  0.8100000000000001 0.06 0  0.82 0.06 0  0.83 0.06 0  0.84 0.06 0  0.85 0.06 0  0.86 0.06 0  0.87 0.06 0  0.88 0.06 0  0.89 0.06 0  0.9 0.06 0  0.91 0.06 0  0.92 0.06 0  0.93 0.06 0  0.9399999999999999 0.06 0  0.95 0.06 0  0.96 0.06 0  0.97 0.06 0  0.98 0.06 0  0.99 0.06 0  1 0.06 0  0 0.07000000000000001 0  0.01 0.07000000000000001 0  0.02 0.07000000000000001 0  0.03 0.07000000000000001 0  0.04 0.07000000000000001 0  0.05 0.07000000000000001 0  0.06 0.07000000000000001 0  0.07000000000000001 0.07000000000000001 0  0.08 0.07000000000000001 0  0.09 0.07000000000000001 0  0.1 0.07000000000000001 0  0.11 0.07000000000000001 0  0.12 0.07000000000000001 0  0.13 0.07000000000000001 0  0.14 0.07000000000000001 0  0.15 0.07000000000000001 0  0.16 0.07000000000000001 0  0.17 0.0700
[...]
<PointData  Scalars="u"> 
<DataArray  type="Float64"  Name="u"  format="ascii">0.0000000000000000e+00  0.0000000000000000e+00  0.0000000000000000e+00  0.0000000000000000e+00  0.0000000000000000e+00  0.0000000000000000e+00  0.0000000000000000e+00  0.0000000000000000e+00  0.0000000000000000e+00  0.0000000000000000e+00  0.0000000000000000e+00  0.0000000000000000e+00  0.0000000000000000e+00  0.0000000000000000e+00  0.0000000000000000e+00  0.0000000000000000e+00  0.0000000000000000e+00  0.0000000000000000e+00  0.0000000000000000e+00  0.0000000000000000e+00  0.0000000000000000e+00  0.0000000000000000e+00  0.0000000000000000e+00  0.0000000000000000e+00  0.0000000000000000e+00  0.0000000000000000e+00  0.0000000000000000e+00  0.0000000000000000e+00  0.0000000000000000e+00  0.0000000000000000e+00  0.0000000000000000e+00  0.0000000000000000e+00  0.0000000000000000e+00  0.0000000000000000e+00  0.0000000000000000e+00  0.0000000000000000e+00  0.0000000000000000e+00  0.0000000000000000e+00  0.0000000000000000e+00  0.0000000000000000e+00  0.0000000000000000e+00  0.0000000000000000e+00  0.0000000000000000e+00  0.0000000000000000e+00  0.0000000000000000e+00  0.0000000000000000e+00  0.0000000000000000e+00  0.0000000000000000e+00  0.0000000000000000e+00  0.0000000000000000e+00  0.0000000000000000e+00  0.0000000000000000e+00  0.0000000000000000e+00  0.0000000000000000e+00  0.0000000000000000e+00  0.0000000000000000e+00  0.0000000000000000e+00  0.0000000000000000e+00  0.0000000000000000e+00  0.0000000000000000e+00  0.0000000000000000e+00  0.0000000000000000e+00  0.0000000000000000e+00  0.0000000000000000e+00  0.0000000000000000e+00  0.0000000000000000e+00  0.0000000000000000e+00  0.0000000000000000e+00  0.0000000000000000e+00  0.0000000000000000e+00  0.0000000000000000e+00  0.0000000000000000e+00  0.0000000000000000e+00  0.0000000000000000e+00  0.0000000000000000e+00  0.0000000000000000e+00  0.0000000000000000e+00  0.0000000000000000e+00  0.0000000000000000e+00  0.0000000000000000e+00  0.0000000000000000e+00  0.0000000000000000e+00  0.0000000000000000e+00  0.0000000000000000e+00  0.0000000000000000e+00  0.0000000000000000e+00  0.0000000000000000e+00  0.0000000000000000e+00  0.0000000000000000e+00  0.0000000000000000e+00  0.0000000000000000e+00  0.0000000000000000e+00  0.0000000000000000e+00  0.0000000000000000e+00  0.0000000000000000e+00  0.0000000000000000e+00  0.0000000000000000e+00  0.0000000000000000e+00  0.0000000000000000e+00  0.0000000000000000e+00  0.0000000000000000e+00  0.0000000000000000e+00  -1.1164194932610517e-02  -1.8897105227972111e-02  -3.7264517925092843e-03  -7.7833574043905474e-03  3.1849706434592152e-03  -5.8251727056077534e-04  -8.9800536202896616e-03  9.9186144947484810e-03  -1.5263531747651897e-02  -1.1169965775952913e-03  1.6316856905668392e-02  -6.3993557381074630e-03  -2.1696215566392944e-02  1.9720987623579024e-02  -9.5962261897409099e-03  1.6781823373449838e-03  1.5881349040055025e-02  -1.3904392942977458e-02  2.2638405470351987e-02  -2.2283316326431116e-02  1.8476418361210369e-02  -1.9205524179932907e-02  1.1287027671595172e-02  -7.6303695579836885e-03  1.8063638599639404e-02  -2.2501763278852185e-02  1.8123634795012659e-02  -3.4087000562498366e-03  -7.9064083373338537e-03  6.5008070790405952e-03  2.1422920907109164e-02  -3.4472504424181545e-02  8.6038024561838344e-03  3.6093797030582889e-03  8.9729999300447692e-03  1.0456620297323261e-02  1.6023363990009323e-03  -6.1165275168610887e-03  -1.5463394097056330e-02  -2.4086828722164787e-02  -1.7098927897407332e-02  -7.0430241199930330e-03  -3.0688941736690557e-03  9.7322949251520841e-03  1.5667776563544383e-02  -2.4900335031052524e-02  1.5119074142048942e-02  -5.2643824468107253e-03  5.0090006811227160e-03  -4.5266662892757912e-03  5.9726035723194600e-03  -3.9585835657352577e-04  -4.3349956581233626e-03  -9.9477864692201290e-04  3.6490516990049758e-03  1.4843937980531189e-03  -1.4929182576396611e-03  1.2373553264095948e-03  -5.3122146058657898e-04  4.1226173089945850e-04  -1.1249832662618975e-04  -1.7324361671012815e-04  1.1743608377298093e-04  -4.4752553470043133e-05  2.2737251336514232e-05  1.0688721708909707e-04  1.4794179915328152e-05  -6.3435607129549778e-05  3.2365088727201815e-04  1.1891851409875878e-05  -3.2699441255449929e-04  1.8064558633606363e-04  -1.4522913250696284e-04  -4.9404979312479651e-04  -1.7801014351849246e-04  6.7895013836349264e-04  5.8082558155845741e-04  1.1141668515842309e-04  -8.6021322939051906e-05  -6.5388721566897234e-05  -1.7590479879339512e-04  4.4524604454924355e-05  2.5835215333930577e-04  1.5713046201668119e-04  -5.2768881867229706e-05  -9.9070549002041052e-05  -7.6749298856585861e-05  7.5569657160663744e-05  -1.8027712784635377e-05  -6.3061788751552690e-05  -2.9215699970143781e-05  -6.4582990305340354e-06  -9.6658293744974005e-06  -7.5050849665333489e-07  2.8794564750322655e-06  5.5286692748055481e-06  8.2516374366863031e-06  8.5034244994734514e-06  7.5347801141861972e-06  0.0000000000000000e+00  0.0000000000000000e+00  -7.3559691395965496e-04  -6.1260609410272778e-03  6.4411993571739405e-03  -7.1852441660425863e-03  -2.1935285271266387e-02  4.4898907199161977e-03  9.5349698209712310e-03  -1.1298467570492729e-02  -2.2780339637822725e-02  3.1623499998087973e-02  -2.6582369646255440e-02  -1.8235428488467752e-03  2.7265306477252817e-02  -3.6831952349136783e-02  -1.1255200523340132e-02  3.4805546473680664e-02  -2.6079772233354313e-02  2.7697938308993326e-02  -2.5018942849138774e-03  -1.8273517084616683e-03  1.9787655391292132e-02  -4.1124169271049490e-02  3.7761407256696043e-02  -1.9642482800390632e-02  2.9746302837334558e-03  1.0160604325710412e-02  -2.1320921876352161e-02  3.9106298931964677e-02  -2.8864380877083727e-02  -2.3319029140502004e-02  5.4747545689793897e-02  -7.5919854797734110e-03  -2.6445281549301678e-02  -1.7290813248694594e-04  6.0747860815929975e-03  2.5838388926210223e-02  1.9332999799611551e-02  5.2758701008847921e-03  -1.3188928978184437e-02  -4.8577644334763040e-03  -2.6462040005509439e-02  -4.1452933129314966e-02  8.4621782922033402e-04  -1.7072594430988606e-03  3.1907376612493266e-02  -1.4727119180964993e-02  1.0699910625045917e-03  -9.3260371655981937e-03  1.7253753596094119e-02  -1.2630026692700028e-02  8.1694660232765042e-03  2.2418842901348068e-03  -1.6069897326823833e-05  -1.0267287346312630e-02  4.4850775580302857e-03  5.1124403641109508e-03  -6.4547044779603505e-04  -7.8980674357022589e-04  1.4586063174401344e-03  -8.4239794804823794e-04  9.4323930936000594e-04  -6.9424475896073226e-04  1.6965223514394046e-04  -7.2611848590951568e-06  -2.2290177520203254e-05  6.8169699986222825e-05  2.5884181090423032e-04  -1.9169806576678906e-04  2.3921730358555910e-04  5.6825186806775502e-04  -4.9893007363061676e-04  -1.8494137155066016e-04  2.9082585231250387e-04  -6.7611556830082971e-04  -8.5072698416837288e-04  3.6061624984143629e-04  1.4426604336016992e-03  6.2124407648974853e-04  -7.3539725619376083e-05  -1.0435336658338394e-04  -2.0222232858743805e-04  -2.0576716373899918e-04  3.3851955123165897e-04  4.7684116384754354e-04  7.5638098756507092e-05  -1.1144932500642226e-04  -2.1882405050903001e-04  3.4112223827258290e-05  1.0330448991697275e-04  -9.3551470698449604e-05  -9.0743256490366308e-05  -2.3732809669881745e-05  -1.5676624873156433e-05  -1.6588990778011444e-05  -2.6337766434944722e-06  -2.3191889246130903e-06  3.4422598917533108e-06  7.2361640640623123e-06  1.0570367432261339e-05  0.0000000000000000e+00  0.0000000000000000e+00  1.5211321343283454e-02  8.3926987521886643e-03  -3.0455992044802940e-02  2.0677440749802371e-02  -9.2071925380255847e-04  1.0218495748465608e-03  -3.0193203094205016e-03  -7.0956761784543238e-03  2.5472555146736388e-02  -6.0787146531472394e-02  3.3532024165710168e-02  2.8854778607042542e-02  -3.7040035469047168e-02  -2.2781611188342498e-02  3.5947496356835758e-02  -5.2213060734360210e-02  2.8931880599303340e-02  1.4183194422619283e-02  -2.4125137417171719e-02  5.8226479215066816e-02  -6.2317304379371039e-02  6.8858535909698204e-02  -8.3620033502568317e-02  5.8173551290329473e-02  -2.8150971049246822e-02  4.1784816768190888e-02  -5.2869466855599859e-02  2.8884767475899787e-02  1.6221119130523383e-02  -3.2663858443426778e-02  -1.2047555589750396e-02  8.2587640265561660e-02  -8.1694260922941575e-02  1.2302315448922779e-02  -5.7369665038507524e-03  1.0500492465911053e-02  3.5438488452950473e-02  2.8972101070572701e-02  1.5797676633639825e-02  -1.5189066132550177e-02  -2.5891192889283602e-02  -2.5688530967768828e-02  -3.5711645678228286e-02  -1.3174740252030475e-02  1.6385456413675399e-02  5.5595259243678821e-02  -7.1475075271881766e-02  4.5441080108526932e-02  -2.5834056130504698e-02  2.4406635786561548e-02  -2.0099400200477853e-02  1.9683363438317648e-02  -1.3486144774469545e-03  -8.6213243758541929e-03  -8.0962022045951328e-03  1.0150965970615483e-02  4.7334334635388605e-03  -4.0858485713452944e-03  2.6326983897394527e-03  -8.4391567565644636e-04  6.4113509690797517e-04  1.0732835480841682e-04  -5.9245875171423732e-04  3.8758421279472645e-04  -1.7587194866304333e-04  4.3362726535306000e-05  2.4675206989584393e-04  1.5920739015766092e-04  -2.4060648110002617e-04  8.3526005972585284e-04  2.5869654438272417e-04  -9.6595575570575058e-04  4.0539994503519796e-04  -1.8855860160089553e-04  -1.3480919320393930e-03  -7.5372026779214299e-04  1.6631376426873474e-03  1.7410561965592191e-03  3.6445267101967150e-04  -2.9083877097771469e-04  -1.7175125664391168e-04  -4.4540045838442881e-04  6.5857847808160783e-05  7.1723075399083213e-04  5.0720638279662302e-04  -1.0690184927038072e-04  -2.2919282012491302e-04  -2.3239795189515346e-04  2.0784474677492743e-04  1.2599239922192525e-05  -1.5883578836961402e-04  -8.0306976132575689e-05  -1.3279000423857246e-05  -2.6109489885029925e-05  -1.2202695449661481e-05  -4.2918796299795996e-06  -3.6107190445514367e-06  4.9629693292869730e-07  3.2990733379961057e-07  0.0000000000000000e+00  0.0000000000000000e+00  -9.0507972105869552e-03  -9.5735265116451817e-03  1.4049034399985753e-02  3.0716135402600849e-03  -1.6965727285263490e-03  -2.3839515335558410e-02  2.6220210147385646e-02  1.9965472184059301e-02  -2.2535080798999255e-02  -7.2486193444356081e-03  1.7397527978569780e-02  -3.6155472114312887e-02  3.2317424085203099e-02  2.8528370579814766e-02  -8.3463794917940953e-02  1.2405968420747992e-02  2.5766134990190138e-02  -3.8872823688210170e-02  5.5108715613627554e-02  -2.5128900671533172e-02  3.0516860273124013e-02  -1.8341997907829503e-03  -2.5222806559312569e-02  1.8802286855854312e-02  -1.4358228400274328e-02  -4.8477701025642639e-03  4.0955716165691505e-02  -6.0222916444878608e-02  7.0339686107270177e-02  -4.0808949860061637e-02  -4.5521092786607625e-02  7.6616200242280871e-02  2.4680490517409108e-02  -8.2104928710214686e-02  2.4755262070143688e-03  4.9884731661631434e-03  3.8981637142687570e-02  4.1961177978021867e-02  2.8931893355433887e-02  6.9211747241627770e-03  5.1832239985240506e-03  -4.4119730340110908e-02  -6.5862105573089871e-02  -7.7026430567279317e-03  -1.4882679216392455e-02  5.1117847345423184e-02  7.8027205037463233e-03  -3.3052949084038108e-02  7.5867678260099856e-03  1.5231117475862524e-02  -9.8318177482915083e-03  4.0915537281937843e-03  1.1575609968680040e-02  -1.2223475370482041e-04  -1.9669356231278603e-02  3.0439938590481838e-03  1.1396359305155840e-02  6.8577961518463714e-04  -2.8594485950756750e-03  3.2852481389899061e-03  -1.7765725745613019e-03  1.6910537050129370e-03  -1.0820647259071605e-03  1.6558647177134406e-04  1.1041931495785297e-04  -1.3696368089797682e-04  1.1416705325163674e-04  4.6434623555274477e-04  -2.2648534755411931e-04  2.6342252375846680e-04  1.1673698293338120e-03  -6.6513420639896991e-04  -6.3190585375973586e-04  6.4946335927794602e-04  -1.0928219049457133e-03  -1.7773028672422051e-03  2.3838941631940648e-04  2.8297956944733161e-03  1.5014728946625578e-03  -2.6005202744016490e-05  -3.1114614160510470e-04  -3.8919303806789619e-04  -4.9365979647925237e-04  5.5730853040606256e-04  9.5756527610010660e-04  2.7121421381658118e-04  -2.1911106706749148e-04  -3.9722503202579284e-04  -2.7748181008004449e-05  2.3334392573098352e-04  -1.2636433340472051e-04  -1.7647390527309110e-04  -5.0958485203065052e-05  -1.9945036867601490e-05  -2.8464017729575719e-05  -6.8305311242484186e-06  -7.1146213317771307e-06  -1.7799700336338448e-06  1.2490235526466338e-06  0.0000000000000000e+00  0.0000000000000000e+00  2.9536698053221604e-02  2.5643699299461704e-02  -3.3444767498663824e-03  -3.6375791920546560e-02  3.9643210004066565e-02  3.4429807891509052e-03  -1.3158471241259346e-02  7.1804780554078655e-03  1.1154523344323514e-02  2.3743546902748342e-02  -7.6083942898749188e-02  6.5528328528663832e-02  1.1333067076569512e-02  -3.8787607329929724e-02  3.3259321825015210e-03  7.8500493566214039e-03  -7.0337982833128948e-02  5.5114819537598614e-02  -4.4487548266325732e-03  -5.9116251535054880e-03  6.0803294987136047e-02  -6.6761567764872937e-02  8.7884669044397484e-02  -1.1974372376274256e-01  9.1161709329269189e-02  -4.4527516435559134e-02  4.3417680272729867e-02  -5.0761961082920325e-02  1.8142028706006407e-02  4.9292096340229033e-02  -6.0931956401756922e-02  -3.6646885665225941e-02  1.3098807783753083e-01  -8.6999733610607644e-02  -1.3079707609943493e-02  -1.6645280389185637e-02  9.1540900163472640e-03  6.0285522419261529e-02  5.6548904057179959e-02  3.5493995604744713e-02  -7.9229337198504883e-03  -1.4307758754889292e-02  -3.8921613725522289e-02  -7.2631381183600935e-02  -2.0171623131320152e-02  1.5194181248810539e-02  8.4497683324516737e-02  -8.5548299375871606e-02  4.7131478925860421e-02  -3.3749127003820614e-02  3.9069684875759486e-02  -3.0250548656123241e-02  2.7241207004977730e-02  1.3873718285475180e-03  -9.5909691144643178e-03  -1.7368271672150257e-02  1.3666716619780575e-02  9.0574266261223488e-03  -4.7270920239929955e-03  2.4011222094400802e-03  2.8069860920352774e-05  2.5928624229749989e-04  6.4093084784909871e-04  -1.0217028083551532e-03  6.1066261126794977e-04  -2.3598124187992182e-04  -8.5827427957957853e-06  3.2951437415088713e-04  3.4367164193815816e-04  -3.6480949375116296e-04  1.1129955322479778e-03  6.9940735105391021e-04  -1.4126011699172837e-03  2.9844023777344028e-04  5.2935207817077559e-07  -2.0186472106263923e-03  -1.5107022805705733e-03  2.1144654175679497e-03  3.0728026051706214e-03  9.1288053116551470e-04  -3.5303881373941398e-04  -3.0840966011611454e-04  -6.6880754147611427e-04  -8.7811843784728249e-05  1.0692682938870401e-03  8.9322392814706968e-04  -5.6396190082182125e-05  -3.4987589412111491e-04  -3.9771163312004280e-04  2.3081552236142353e-04  8.5380696894015598e-05  -2.2654847905170968e-04  -1.4623924060428806e-04  -3.0027900326226294e-05  -3.5066394870499138e-05  -2.0382615310408334e-05  -5.9807497130244466e-06  -6.8770550404060965e-06  -1.8482474495596853e-06  0.0000000000000000e+00  0.0000000000000000e+00  -2.1617753086196883e-02  -5.6054799751929290e-03  4.2747870299547387e-03  2.9388880920887640e-02  -1.6212093350069786e-02  5.0496692577686568e-03  -1.7587039595715254e-02  3.1488023684008160e-02  2.0070865648156334e-02  -1.9624934519379512e-02  3.5288735366788698e-03  -1.3710277318355743e-02  -7.1867183834628144e-03  5.1085535805244907e-02  7.1663648517752117e-03  -9.1239196589918747e-02  2.5547433683700195e-02  -7.9676038185666357e-04  -2.2995169917506733e-02  5.4295921169669623e-02  -2.6999951719899516e-02  5.5237398547328821e-02  -2.4085205208795382e-02  3.0985529591824545e-03  -2.4565556107957784e-02  1.4275494306668126e-02  -1.3664236911838077e-02  5.9570403446518400e-02  -8.6196549154062510e-02  7.9634838932000060e-02  -2.6812081734317157e-02  -6.5597745051512293e-02  7.3299938002540102e-02  6.3253770773675222e-02  -1.2077346603373322e-01  2.1551478842144647e-03  5.1569821556235506e-04  4.1401226125649102e-02  6.4354486029849778e-02  5.6955044368704168e-02  3.0135629094974147e-02  8.3071264162597747e-03  -5.0323770260999406e-02  -7.7698084703202774e-02  -3.1935675497201985e-02  -2.6843381746327007e-02  6.0675131692798548e-02  3.5817834880070509e-02  -6.5659843728279488e-02  2.7204145976107826e-02  2.3910320717445777e-03  3.3174888184507247e-03  -6.5762312185305583e-03  2.2829900791862742e-02  -8.4953646121243892e-04  -2.4471336533491928e-02  -2.4059366454528366e-03  1.7395918108005413e-02  2.9805172602362148e-03  -4.3501588797268276e-03  4.2316391176004152e-03  -1.8069764009956907e-03  1.9276023098970213e-03  -9.7160244661682524e-04  4.9589472242145666e-05  3.5339472497118919e-04  -2.6093410769083221e-04  1.3305609986054859e-04  5.8736893759852985e-04  -1.2837598259998056e-04  1.9945229667915412e-04  1.6087711171341233e-03  -5.2085517760813152e-04  -1.1171819451530323e-03  8.0009354804752944e-04  -1.2308612447839351e-03  -2.5907107157669483e-03  -1.4642738653747206e-04  3.8058984649899400e-03  2.5816123100677445e-03  2.1144731045609179e-04  -4.5793334004899395e-04  -5.1893249574417179e-04  -7.1317383723715493e-04  6.3301217299834771e-04  1.3895013331434792e-03  5.2647903164059384e-04  -2.7479477769751492e-04  -5.3015291236506901e-04  -1.3187851001193041e-04  3.0379497519640239e-04  -1.0982140270730987e-04  -2.5174610117633344e-04  -9.4103199345720259e-05  -3.0874535380389567e-05  -3.8421183018013237e-05  -1.1640564665198382e-05  -7.0431253372703927e-06  -2.6892206203176914e-06  0.0000000000000000e+00  0.0000000000000000e+00  3.3021255715339477e-03  1.0356779841459069e-02  4.5767392778862199e-03  -2.4230325186415394e-02  -2.3839812940603559e-02  4.1894275802187499e-02  2.6828330210651188e-03  -2.6441326322808444e-02  1.8682617621185362e-02  2.1826428235174195e-02  1.5143511591544369e-02  -6.5354951686659696e-02  5.3129631026813715e-02  3.8507344440844886e-03  -1.3204444368610830e-02  7.3772576695906563e-03  -2.5073747730421422e-02  -6.0594268798146944e-02  4.6794411519152306e-02  -4.5193353121438171e-03  1.1758143436560181e-02  4.7647060278501345e-02  -4.0233226391632015e-02  7.0639665055073214e-02  -1.0535118366404254e-01  7.4233042927295961e-02  -3.6338717237351388e-02  3.4066292239813306e-02  -3.1612979339987093e-02  -1.1074648669707531e-03  7.2033884445971613e-02  -7.7616583597970135e-02  -5.3452846701354161e-02  1.5399336008792580e-01  -6.3934917305943570e-02  -5.8121761998840428e-02  -2.1386206469053828e-02  9.1521597696000156e-03  7.8069988414732241e-02  8.1409150758670140e-02  5.5809661780840236e-02  9.4951944254168218e-03  -5.1576171659123930e-03  -5.4822462138792605e-02  -9.7694049788002280e-02  -3.2298719839950855e-02  1.1024828539404313e-02  9.9851913686000535e-02  -7.2155435392863038e-02  1.8554935386628162e-02  -1.8618623141937657e-02  3.4897868460876280e-02  -2.6352120685457222e-02  2.3425449733360793e-02  9.7435244289868564e-03  -1.1219661300799658e-02  -2.4796304729534140e-02  1.2712210964686520e-02  1.4687212917937429e-02  -3.8184881393439362e-03  1.2420290231060348e-03  1.1727289800798678e-03  -7.9032595759874144e-05  1.0778812347724100e-03  -1.1584080322147871e-03  7.8945050035663386e-04  -8.3707659927418366e-05  -9.0067178112005522e-05  4.1336033646948914e-04  4.9170676943739006e-04  -3.3488812821822833e-04  1.1985310535860328e-03  1.1436095530516523e-03  -1.5365512414777321e-03  -4.9668950463962390e-05  2.1700407380472283e-04  -2.4486072918420477e-03  -2.2856119834644209e-03  2.1522148377888023e-03  4.3096584449786226e-03  1.7046222851794222e-03  -2.9504126318444620e-04  -4.8601993419074367e-04  -8.3220470773929720e-04  -2.6610147889574780e-04  1.3294925388351673e-03  1.3118943332354753e-03  9.5253598564368227e-05  -4.5550525118851572e-04  -5.1775989068750976e-04  1.8162353511518763e-04  1.6105127341198343e-04  -2.4538349556206204e-04  -2.0987907507679840e-04  -5.5679197045506227e-05  -4.0879479066763445e-05  -2.6413325858749163e-05  -7.1005615407399892e-06  -5.3555295532376187e-06  0.0000000000000000e+00  0.0000000000000000e+00  6.8813216387213529e-03  7.8018221381373539e-03  6.7074458881579684e-03  8.9393233491651177e-03  1.3600441054815645e-02  -3.1741235491603084e-02  9