<?xml version="1.0"?>
<VTKFile type="UnstructuredGrid"  version="0.1"  >
<UnstructuredGrid>
<Piece  NumberOfPoints="10201" NumberOfCells="20000">
<Points>
<DataArray  type="Float64"  NumberOfComponents="3"  format="ascii">0 0 0  0.01 0 0  0.02 0 0  0.03 0 0  0.04 0 0  0.05 0 0  0.06 0 0  0.07000000000000001 0 0  0.08 0 0  0.09 0 0  0.1 0 0  0.11 0 0  0.12 0 0  0.13 0 0  0.14 0 0  0.15 0 0  0.16 0 0  0.17 0 0  0.18 0 0  0.19 0 0  0.2 0 0  0.21 0 0  0.22 0 0  0.23 0 0  0.24 0 0  0.25 0 0  0.26 0 0  0.27 0 0  0.28 0 0  0.29 0 0  0.3 0 0  0.31 0 0  0.32 0 0  0.33 0 0  0.34 0 0  0.35 0 0  0.36 0 0  0.37 0 0  0.38 0 0  0.39 0 0  0.4 0 0  0.41 0 0  0.42 0 0  0.43 0 0  0.44 0 0  0.45 0 0  0.46 0 0  0.47 0 0  0.48 0 0  0.49 0 0  0.5 0 0  0.51 0 0  0.52 0 0  0.53 0 0  0.54 0 0  0.55 0 0  0.5600000000000001 0 0  0.57 0 0  0.58 0 0  0.59 0 0  0.6 0 0  0.61 0 0  0.62 0 0  0.63 0 0  0.64 0 0  0.65 0 0  0.66 0 0  0.67 0 0  0.68 0 0  0.6899999999999999 0 0  0.7 0 0  0.71 0 0  0.72 0 0  0.73 0 0  0.74 0 0  0.75 0 0  0.76 0 0  0.77 0 0  0.78 0 0  0.79 0 0  0.8 0 0  0.8100000000000001 0 0  0.82 0 0  0.83 0 0  0.84 0 0  0.85 0 0  0.86 0 0  0.87 0 0  0.88 0 0  0.89 0 0  0.9 0 0  0.91 0 0  0.92 0 0  0.93 0 0  0.9399999999999999 0 0  0.95 0 0  0.96 0 0  0.97 0 0  0.98 0 0  0.99 0 0  1 0 0  0 0.01 0  0.01 0.01 0  0.02 0.01 0  0.03 0.01 0  0.04 0.01 0  0.05 0.01 0  0.06 0.01 0  0.07000000000000001 0.01 0  0.08 0.01 0  0.09 0.01 0  0.1 0.01 0  0.11 0.01 0  0.12 0.01 0  0.13 0.01 0  0.14 0.01 0  0.15 0.01 0  0.16 0.01 0  0.17 0.01 0  0.18 0.01 0  0.19 0.01 0  0.2 0.01 0  0.21 0.01 0  0.22 0.01 0  0.23 0.01 0  0.24 0.01 0  0.25 0.01 0  0.26 0.01 0  0.27 0.01 0  0.28 0.01 0  0.29 0.01 0  0.3 0.01 0  0.31 0.01 0  0.32 0.01 0  0.33 0.01 0  0.34 0.01 0  0.35 0.01 0  0.36 0.01 0  0.37 0.01 0  0.38 0.01 0  0.39 0.01 0  0.4 0.01 0  0.41 0.01 0  0.42 0.01 0  0.43 0.01 0  0.44 0.01 0  0.45 0.01 0  0.46 0.01 0  0.47 0.01 0  0.48 0.01 0  0.49 0.01 0  0.5 0.01 0  0.51 0.01 0  0.52 0.01 0  0.53 0.01 0  0.54 0.01 0  0.55 0.01 0  0.5600000000000001 0.01 0  0.57 0.01 0  0.58 0.01 0  0.59 0.01 0  0.6 0.01 0  0.61 0.01 0  0.62 0.01 0  0.63 0.01 0  0.64 0.01 0  0.65 0.01 0  0.66 0.01 0  0.67 0.01 0  0.68 0.01 0  0.6899999999999999 0.01 0  0.7 0.01 0  0.71 0.01 0  0.72 0.01 0  0.73 0.01 0  0.74 0.01 0  0.75 0.01 0  0.76 0.01 0  0.77 0.01 0  0.78 0.01 0  0.79 0.01 0  0.8 0.01 0  0.8100000000000001 0.01 0  0.82 0.01 0  0.83 0.01 0  0.84 0.01 0  0.85 0.01 0  0.86 0.01 0  0.87 0.01 0  0.88 0.01 0  0.89 0.01 0  0.9 0.01 0  0.91 0.01 0  0.92 0.01 0  0.93 0.01 0  0.9399999999999999 0.01 0  0.95 0.01 0  0.96 0.01 0  0.97 0.01 0  0.98 0.01 0  0.99 0.01 0  1 0.01 0  0 0.02 0  0.01 0.02 0  0.02 0.02 0  0.03 0.02 0  0.04 0.02 0  0.05 0.02 0  0.06 0.02 0  0.07000000000000001 0.02 0  0.08 0.02 0  0.09 0.02 0  0.1 0.02 0  0.11 0.02 0  0.12 0.02 0  0.13 0.02 0  0.14 0.02 0  0.15 0.02 0  0.16 0.02 0  0.17 0.02 0  0.18 0.02 0  0.19 0.02 0  0.2 0.02 0  0.21 0.02 0  0.22 0.02 0  0.23 0.02 0  0.24 0.02 0  0.25 0.02 0  0.26 0.02 0  0.27 0.02 0  0.28 0.02 0  0.29 0.02 0  0.3 0.02 0  0.31 0.02 0  0.32 0.02 0  0.33 0.02 0  0.34 0.02 0  0.35 0.02 0  0.36 0.02 0  0.37 0.02 0  0.38 0.02 0  0.39 0.02 0  0.4 0.02 0  0.41 0.02 0  0.42 0.02 0  0.43 0.02 0  0.44 0.02 0  0.45 0.02 0  0.46 0.02 0  0.47 0.02 0  0.48 0.02 0  0.49 0.02 0  0.5 0.02 0  0.51 0.02 0  0.52 0.02 0  0.53 0.02 0  0.54 0.02 0  0.55 0.02 0  0.5600000000000001 0.02 0  0.57 0.02 0  0.58 0.02 0  0.59 0.02 0  0.6 0.02 0  0.61 0.02 0  0.62 0.02 0  0.63 0.02 0  0.64 0.02 0  0.65 0.02 0  0.66 0.02 0  0.67 0.02 0  0.68 0.02 0  0.6899999999999999 0.02 0  0.7 0.02 0  0.71 0.02 0  0.72 0.02 0  0.73 0.02 0  0.74 0.02 0  0.75 0.02 0  0.76 0.02 0  0.77 0.02 0  0.78 0.02 0  0.79 0.02 0  0.8 0.02 0  0.8100000000000001 0.02 0  0.82 0.02 0  0.83 0.02 0  0.84 0.02 0  0.85 0.02 0  0.86 0.02 0  0.87 0.02 0  0.88 0.02 0  0.89 0.02 0  0.9 0.02 0  0.91 0.02 0  0.92 0.02 0  0.93 0.02 0  0.9399999999999999 0.02 0  0.95 0.02 0  0.96 0.02 0  0.97 0.02 0  0.98 0.02 0  0.99 0.02 0  1 0.02 0  0 0.03 0  0.01 0.03 0  0.02 0.03 0  0.03 0.03 0  0.04 0.03 0  0.05 0.03 0  0.06 0.03 0  0.07000000000000001 0.03 0  0.08 0.03 0  0.09 0.03 0  0.1 0.03 0  0.11 0.03 0  0.12 0.03 0  0.13 0.03 0  0.14 0.03 0  0.15 0.03 0  0.16 0.03 0  0.17 0.03 0  0.18 0.03 0  0.19 0.03 0  0.2 0.03 0  0.21 0.03 0  0.22 0.03 0  0.23 0.03 0  0.24 0.03 0  0.25 0.03 0  0.26 0.03 0  0.27 0.03 0  0.28 0.03 0  0.29 0.03 0  0.3 0.03 0  0.31 0.03 0  0.32 0.03 0  0.33 0.03 0  0.34 0.03 0  0.35 0.03 0  0.36 0.03 0  0.37 0.03 0  0.38 0.03 0  0.39 0.03 0  0.4 0.03 0  0.41 0.03 0  0.42 0.03 0  0.43 0.03 0  0.44 0.03 0  0.45 0.03 0  0.46 0.03 0  0.47 0.03 0  0.48 0.03 0  0.49 0.03 0  0.5 0.03 0  0.51 0.03 0  0.52 0.03 0  0.53 0.03 0  0.54 0.03 0  0.55 0.03 0  0.5600000000000001 0.03 0  0.57 0.03 0  0.58 0.03 0  0.59 0.03 0  0.6 0.03 0  0.61 0.03 0  0.62 0.03 0  0.63 0.03 0  0.64 0.03 0  0.65 0.03 0  0.66 0.03 0  0.67 0.03 0  0.68 0.03 0  0.6899999999999999 0.03 0  0.7 0.03 0  0.71 0.03 0  0.72 0.03 0  0.73 0.03 0  0.74 0.03 0  0.75 0.03 0  0.76 0.03 0  0.77 0.03 0  0.78 0.03 0  0.79 0.03 0  0.8 0.03 0  0.8100000000000001 0.03 0  0.82 0.03 0  0.83 0.03 0  0.84 0.03 0  0.85 0.03 0  0.86 0.03 0  0.87 0.03 0  0.88 0.03 0  0.89 0.03 0  0.9 0.03 0  0.91 0.03 0  0.92 0.03 0  0.93 0.03 0  0.9399999999999999 0.03 0  0.95 0.03 0  0.96 0.03 0  0.97 0.03 0  0.98 0.03 0  0.99 0.03 0  1 0.03 0  0 0.04 0  0.01 0.04 0  0.02 0.04 0  0.03 0.04 0  0.04 0.04 0  0.05 0.04 0  0.06 0.04 0  0.07000000000000001 0.04 0  0.08 0.04 0  0.09 0.04 0  0.1 0.04 0  0.11 0.04 0  0.12 0.04 0  0.13 0.04 0  0.14 0.04 0  0.15 0.04 0  0.16 0.04 0  0.17 0.04 0  0.18 0.04 0  0.19 0.04 0  0.2 0.04 0  0.21 0.04 0  0.22 0.04 0  0.23 0.04 0  0.24 0.04 0  0.25 0.04 0  0.26 0.04 0  0.27 0.04 0  0.28 0.04 0  0.29 0.04 0  0.3 0.04 0  0.31 0.04 0  0.32 0.04 0  0.33 0.04 0  0.34 0.04 0  0.35 0.04 0  0.36 0.04 0  0.37 0.04 0  0.38 0.04 0  0.39 0.04 0  0.4 0.04 0  0.41 0.04 0  0.42 0.04 0  0.43 0.04 0  0.44 0.04 0  0.45 0.04 0  0.46 0.04 0  0.47 0.04 0  0.48 0.04 0  0.49 0.04 0  0.5 0.04 0  0.51 0.04 0  0.52 0.04 0  0.53 0.04 0  0.54 0.04 0  0.55 0.04 0  0.5600000000000001 0.04 0  0.57 0.04 0  0.58 0.04 0  0.59 0.04 0  0.6 0.04 0  0.61 0.04 0  0.62 0.04 0  0.63 0.04 0  0.64 0.04 0  0.65 0.04 0  0.66 0.04 0  0.67 0.04 0  0.68 0.04 0  0.6899999999999999 0.04 0  0.7 0.04 0  0.71 0.04 0  0.72 0.04 0  0.73 0.04 0  0.74 0.04 0  0.75 0.04 0  0.76 0.04 0  0.77 0.04 0  0.78 0.04 0  0.79 0.04 0  0.8 0.04 0  0.8100000000000001 0.04 0  0.82 0.04 0  0.83 0.04 0  0.84 0.04 0  0.85 0.04 0  0.86 0.04 0  0.87 0.04 0  0.88 0.04 0  0.89 0.04 0  0.9 0.04 0  0.91 0.04 0  0.92 0.04 0  0.93 0.04 0  0.9399999999999999 0.04 0  0.95 0.04 0  0.96 0.04 0  0.97 0.04 0  0.98 0.04 0  0.99 0.04 0  1 0.04 0  0 0.05 0  0.01 0.05 0  0.02 0.05 0  0.03 0.05 0  0.04 0.05 0  0.05 0.05 0  0.06 0.05 0  0.07000000000000001 0.05 0  0.08 0.05 0  0.09 0.05 0  0.1 0.05 0  0.11 0.05 0  0.12 0.05 0  0.13 0.05 0  0.14 0.05 0  0.15 0.05 0  0.16 0.05 0  0.17 0.05 0  0.18 0.05 0  0.19 0.05 0  0.2 0.05 0  0.21 0.05 0  0.22 0.05 0  0.23 0.05 0  0.24 0.05 0  0.25 0.05 0  0.26 0.05 0  0.27 0.05 0  0.28 0.05 0  0.29 0.05 0  0.3 0.05 0  0.31 0.05 0  0.32 0.05 0  0.33 0.05 0  0.34 0.05 0  0.35 0.05 0  0.36 0.05 0  0.37 0.05 0  0.38 0.05 0  0.39 0.05 0  0.4 0.05 0  0.41 0.05 0  0.42 0.05 0  0.43 0.05 0  0.44 0.05 0  0.45 0.05 0  0.46 0.05 0  0.47 0.05 0  0.48 0.05 0  0.49 0.05 0  0.5 0.05 0  0.51 0.05 0  0.52 0.05 0  0.53 0.05 0  0.54 0.05 0  0.55 0.05 0  0.5600000000000001 0.05 0  0.57 0.05 0  0.58 0.05 0  0.59 0.05 0  0.6 0.05 0  0.61 0.05 0  0.62 0.05 0  0.63 0.05 0  0.64 0.05 0  0.65 0.05 0  0.66 0.05 0  0.67 0.05 0  0.68 0.05 0  0.6899999999999999 0.05 0  0.7 0.05 0  0.71 0.05 0  0.72 0.05 0  0.73 0.05 0  0.74 0.05 0  0.75 0.05 0  0.76 0.05 0  0.77 0.05 0  0.78 0.05 0  0.79 0.05 0  0.8 0.05 0  0.8100000000000001 0.05 0  0.82 0.05 0  0.83 0.05 0  0.84 0.05 0  0.85 0.05 0  0.86 0.05 0  0.87 0.05 0  0.88 0.05 0  0.89 0.05 0  0.9 0.05 0  0.91 0.05 0  0.92 0.05 0  0.93 0.05 0  0.9399999999999999 0.05 0  0.95 0.05 0  0.96 0.05 0  0.97 0.05 0  0.98 0.05 0  0.99 0.05 0  1 0.05 0  0 0.06 0  0.01 0.06 0  0.02 0.06 0  0.03 0.06 0  0.04 0.06 0  0.05 0.06 0  0.06 0.06 0  0.07000000000000001 0.06 0  0.08 0.06 0  0.09 0.06 0  0.1 0.06 0  0.11 0.06 0  0.12 0.06 0  0.13 0.06 0  0.14 0.06 0  0.15 0.06 0  0.16 0.06 0  0.17 0.06 0  0.18 0.06 0  0.19 0.06 0  0.2 0.06 0  0.21 0.06 0  0.22 0.06 0  0.23 0.06 0  0.24 0.06 0  0.25 0.06 0  0.26 0.06 0  0.27 0.06 0  0.28 0.06 0  0.29 0.06 0  0.3 0.06 0  0.31 0.06 0  0.32 0.06 0  0.33 0.06 0  0.34 0.06 0  0.35 0.06 0  0.36 0.06 0  0.37 0.06 0  0.38 0.06 0  0.39 0.06 0  0.4 0.06 0  0.41 0.06 0  0.42 0.06 0  0.43 0.06 0  0.44 0.06 0  0.45 0.06 0  0.46 0.06 0  0.47 0.06 0  0.48 0.06 0  0.49 0.06 0  0.5 0.06 0  0.51 0.06 0  0.52 0.06 0  0.53 0.06 0  0.54 0.06 0  0.55 0.06 0  0.5600000000000001 0.06 0  0.57 0.06 0  0.58 0.06 0  0.59 0.06 0  0.6 0.06 0  0.61 0.06 0  0.62 0.06 0  0.63 0.06 0  0.64 0.06 0  0.65 0.06 0  0.66 0.06 0  0.67 0.06 0  0.68 0.06 0  0.6899999999999999 0.06 0  0.7 0.06 0  0.71 0.06 0  0.72 0.06 0  0.73 0.06 0  0.74 0.06 0  0.75 0.06 0  0.76 0.06 0  0.77 0.06 0  0.78 0.06 0  0.79 0.06 0  0.8 0.06 0  0.8100000000000001 0.06 0  0.82 0.06 0  0.83 0.06 0  0.84 0.06 0  0.85 0.06 0  0.86 0.06 0  0.87 0.06 0  0.88 0.06 0  0.89 0.06 0  0.9 0.06 0  0.91 0.06 0  0.92 0.06 0  0.93 0.06 0  0.9399999999999999 0.06 0  0.95 0.06 0  0.96 0.06 0  0.97 0.06 0  0.98 0.06 0  0.99 0.06 0  1 0.06 0  0 0.07000000000000001 0  0.01 0.07000000000000001 0  0.02 0.07000000000000001 0  0.03 0.07000000000000001 0  0.04 0.07000000000000001 0  0.05 0.07000000000000001 0  0.06 0.07000000000000001 0  0.07000000000000001 0.07000000000000001 0  0.08 0.07000000000000001 0  0.09 0.07000000000000001 0  0.1 0.07000000000000001 0  0.11 0.07000000000000001 0  0.12 0.07000000000000001 0  0.13 0.07000000000000001 0  0.14 0.07000000000000001 0  0.15 0.07000000000000001 0  0.16 0.07000000000000001 0  0.17 0.0700
[...]
<PointData  Scalars="Indicator Function"> 
<DataArray  type="Float64"  Name="Indicator Function"  format="ascii">-3.7073784775752620e-19  1.1267860905699093e-18  2.7357746546853620e-17  1.0263275616707113e-18  7.0177898707763657e-17  -1.7632059477413553e-19  -2.5906340452023154e-19  3.1913742630145953e-17  1.3915558981688547e-16  -1.8887995129322733e-19  4.4987550135036811e-17  3.5816495775421351e-17  -1.5446229821928130e-19  -4.4579508279958855e-19  3.2899522312071756e-16  9.6296497219361793e-35  -7.7886544803027001e-19  3.3232190791732995e-16  -6.8197652957412852e-19  -9.2087426643062691e-19  7.3795807573993320e-16  -1.6646917822269928e-18  -8.0185598260591137e-19  3.9290943147690126e-17  -2.8389497021053175e-19  -7.4284068481379561e-19  -6.3068166343942233e-19  -1.0037753201079666e-18  1.0116754635575019e-15  -1.5703914961583848e-18  -2.7613001929553405e-18  -1.3806500964776706e-18  -1.4146177023497864e-18  -2.2710530717557521e-18  7.2312512340056506e-17  -9.4548743179992853e-19  -3.8714160536741291e-18  -6.2437927555789421e-18  -5.8239393529799864e-18  -6.6628813054520187e-18  5.2485052826580353e-16  -3.0122812859836237e-19  -1.9924249359712068e-18  -2.0146318978630985e-18  -1.4560470781763460e-18  -7.2802353908814431e-19  1.5797967758827246e-16  -7.9992420161709954e-19  -2.4744559132375425e-19  -5.0578802254524651e-19  -2.5289401127262335e-19  -4.7941619140769339e-19  -1.4708800556234838e-19  -6.0392394178725880e-19  -4.6978186139138198e-19  -4.1802412308674362e-21  8.2350752248193538e-19  -5.7335990546352794e-20  -2.8469947268254505e-20  -1.7037583542889274e-20  -1.2177298717974694e-20  -4.8913223550665908e-20  -3.0594898889115872e-20  -1.5647388630014173e-21  -8.2351363662582300e-21  -1.0146737608962707e-20  -2.4259299422132507e-20  1.3616926559925378e-34  2.1259223576525645e-17  -5.7326659912556189e-20  -1.8549488075288688e-20  -2.3885828509741607e-21  -4.5705961946194088e-22  -7.0080157848993468e-20  -1.8458795403315753e-19  -1.2300955087890915e-19  -3.2712819218078371e-20  -8.7983510907706064e-20  -1.0254817388705553e-19  -5.8311316077211349e-20  -2.3947329517787438e-20  1.3584924172013351e-17  -1.7676663150573817e-20  -9.1999116705574388e-20  -9.1712727502298223e-20  -5.1033321340988212e-20  -5.6772411262349115e-21  -1.5946031286782658e-20  -2.8166940484785545e-20  -9.6762818465747366e-21  -1.6653056406634019e-21  -4.8755347114431422e-21  -4.9406736911490754e-21  2.4314192798327795e-18  -2.2902798618464156e-21  -1.0489525706572287e-21  -4.0908686829808115e-23  -2.5225508607033437e-22  -8.3001361308140878e-22  -1.1754943508222875e-37  3.7615819226313200e-37  0.0000000000000000e+00  1.4500514169741305e-02  2.7352785746065256e-02  6.1116612030855371e-03  7.2251813618817787e-03  6.5431753091131932e-04  3.6413256850506321e-03  2.8462085657252859e-03  2.5958324518827441e-02  2.1796508528684377e-02  3.4025587130477176e-03  3.0828609618141028e-02  5.5650907896251604e-03  1.6061460550238150e-02  1.0656179922053885e-02  4.1793651333273306e-02  1.9949574490223814e-02  4.0560053209715927e-03  2.4570793955723740e-02  3.3177992025215958e-02  1.7918857014078700e-02  4.2116882383583833e-02  2.9988421160496846e-02  1.4444953217875296e-02  1.0228394256420067e-02  2.6763656250584428e-02  2.2722701635641499e-02  1.2054312010090662e-02  1.2055252625362285e-02  1.5061016342452296e-02  2.0759150056472643e-02  4.9743162080207001e-02  2.3937425016925085e-02  1.3514774520234279e-02  3.4154267810674113e-02  2.1475096039803663e-02  1.7032387382150582e-02  6.1225037895816563e-02  9.5021735943602345e-02  9.6651471940688460e-02  7.4127150009268200e-02  3.9578739748737914e-02  5.4264435508363934e-03  3.3179115021396241e-02  1.9702824347321735e-02  2.6229812314835562e-02  2.9028637929332468e-02  1.0135000676909341e-02  1.4410153345309646e-02  4.4575834915205276e-03  9.1114669994529270e-03  6.6739808551723821e-03  5.2994038963300903e-03  2.4873406523950392e-03  9.6356562305753585e-03  3.6450095483429013e-03  7.5304531398644349e-05  2.0657467652757814e-03  1.0257379512685499e-03  6.1384363916039831e-04  4.3873342374920051e-04  1.3087269878515526e-04  8.1570595203249734e-04  1.4329572492959201e-04  2.8187829441381307e-05  1.3425711356101244e-04  3.1471752942888274e-04  2.7965792263669957e-04  1.3585352117881174e-04  7.1469034190071610e-04  6.7536012593197444e-04  8.6057766700726378e-05  1.6467308255159195e-05  5.5171861302370610e-04  1.7953618418506737e-03  2.4275600430779046e-03  1.0021630484661162e-03  5.8930176176310450e-04  1.2903191468732194e-03  1.2403301696157281e-03  8.9079460825899860e-04  3.0063610131130913e-04  1.7520028561555397e-04  8.1866581969476724e-04  1.2479758410071746e-03  1.0597619012524641e-03  6.7107976378580141e-04  3.8027799379648330e-04  4.4217607596615520e-04  2.8632245270271081e-04  8.6764464317814718e-05  2.9999479450998704e-05  7.2830085513249631e-05  1.0580295139623366e-04  8.5553680987184488e-05  5.9104753811047215e-05  3.0647361581022197e-05  9.8396618128043374e-06  4.5442236465146776e-06  1.3894317760104700e-05  3.8564478721816327e-22  -9.0958518366780344e-19  2.5996606197620990e-03  6.6565165974870975e-03  3.5162204378125477e-04  8.5011000884376488e-03  2.6548394015874381e-02  5.0122882661122062e-03  2.2322201307446870e-02  2.0088014071894647e-04  1.2032926245321481e-02  3.3706096929496256e-02  2.5155690954280618e-02  1.5899385601842970e-02  4.9916874528168391e-02  4.9815760316594120e-02  3.3872352769292353e-02  4.8261068763156946e-03  6.0034049357456848e-02  1.6701674532133833e-02  1.1302354791992352e-02  1.4045620009724069e-02  3.2182726405962668e-02  3.0474550982608810e-02  3.4703561809558012e-02  1.9192446745571072e-02  1.5689104492627170e-04  2.4562165372873767e-02  3.1744008051839495e-02  5.0450751305115872e-02  1.9827859716947390e-02  4.8792949598919437e-02  4.9537955566219483e-02  2.4619681048131368e-02  3.7327699043145778e-02  3.6936474787673028e-02  3.7382053705497159e-02  8.0342790185465793e-03  5.6835697519885299e-02  1.0037879030732379e-01  1.1380046016679306e-01  1.2777191765201357e-01  6.9549945402053170e-02  7.1469960345308288e-03  1.3632268185960054e-02  4.2081289797657913e-02  1.4850255672624584e-02  3.7482820289798167e-03  7.6288704752184950e-03  1.6909724476062538e-02  1.0165328544292399e-02  1.4951528722284869e-02  4.4141781014195060e-03  6.0186310389969766e-03  5.6652292636626741e-03  1.4473124448633554e-02  6.2873758349252240e-03  3.5463112737159515e-04  1.5063280419238794e-03  1.5279273429601808e-03  1.5235402390040883e-03  1.1570299946505405e-03  1.2074299410601704e-03  1.3117793367617304e-03  4.2138333195137958e-04  5.9567376842504400e-05  1.4485021028947106e-04  2.5905462595953290e-04  5.4740172065830255e-04  1.0894775827871257e-04  5.4262844166993670e-04  1.2152189803937335e-03  1.2687300682155607e-04  1.6643195728805702e-04  6.3607241227608895e-05  1.6116249288727952e-03  2.9889019897719037e-03  2.2209865378697161e-03  2.8067652219547132e-04  1.3782395482798270e-03  1.5169139182758060e-03  1.3206241908165007e-03  7.2458568795168794e-04  1.3105703326305059e-04  6.5391545500701463e-04  1.5388782170315779e-03  1.4070869360243482e-03  1.0702141258943640e-03  4.9294414845818437e-04  5.5378019240465755e-04  4.9623648687808998e-04  1.7650991096944749e-04  1.0707847078654139e-05  6.3237891876558099e-05  1.2071121056734685e-04  1.3151870921184679e-04  9.1570271159689733e-05  6.2758591620994624e-05  3.0128517751544370e-05  8.8786983881670627e-06  9.1546193204635627e-06  3.8051590181827951e-22  5.7777898331617076e-34  2.0029307388578926e-02  7.1773572490780885e-03  3.8445798984366980e-02  1.8522597665957131e-02  5.2873822459415507e-04  1.3753538855283435e-03  3.7111571217657052e-04  6.1814187085284253e-03  4.4179818724780287e-02  6.8138020870303503e-02  4.0517507854105954e-02  4.4537191142696261e-02  2.6161528821614783e-02  1.2053307564794757e-02  2.9595197796704904e-02  9.4176057643042238e-02  3.0539347397049296e-03  1.0868467735988020e-02  3.8540938183736419e-02  6.9653812165330523e-02  5.8700942223633257e-02  9.9303908953890824e-02  9.6198890313019467e-02  6.2848621769318699e-02  2.9607085746259604e-02  4.9577334128372209e-02  5.3041988078122521e-02  2.4817801006184904e-02  3.1946084913932318e-02  3.4912300796830158e-02  4.2374915342298015e-02  1.0828776588856361e-01  7.0812158625509491e-02  5.3632280315644631e-03  4.9638252847835976e-02  2.6949802970455350e-02  3.8034922846304428e-02  9.4110550914437666e-02  1.3211477803659730e-01  1.1597855168963976e-01  9.4473216218227185e-02  5.1343214745401759e-02  2.4795972991143868e-02  4.3933011049941663e-02  1.9033322169975626e-02  6.0774982295368402e-02  7.7104114779130262e-02  4.1766051854278341e-02  3.8022459157139317e-02  2.1852423423251579e-02  2.4944922436104952e-02  1.9072931889536286e-02  3.9126394212235672e-03  5.6498825208266858e-03  1.6540071302691629e-02  4.9580959261511968e-04  1.7494495338324519e-03  5.3581728156833989e-03  2.5998183051752877e-03  1.2339771818848906e-03  6.8548466154382697e-04  4.2013665487740597e-05  1.5427223025618923e-03  2.6939677498225874e-04  1.0180881941207394e-04  2.1892605861210102e-04  4.8753335366216413e-04  4.4408550938658086e-04  5.2763078047514465e-05  1.2319581164003471e-03  9.7521052377467653e-04  5.5277713696501448e-04  2.2716362406536493e-04  7.2579925663744454e-04  2.7419490647437234e-03  3.2738284954930866e-03  5.5294015712518648e-04  1.3244618540627557e-03  1.5752078987730132e-03  1.3402951313828326e-03  1.0729656718356730e-03  2.8010943498383683e-04  2.6059976060906562e-04  1.3481109938614498e-03  1.7692410496136415e-03  1.1877262142495661e-03  7.5572545582660482e-04  4.0231726913982888e-04  7.0035933921700562e-04  3.4039490877957589e-04  2.9009619053247082e-05  5.5711345348235160e-05  7.6342669062874394e-05  1.4528471078965565e-04  1.1239314602356618e-04  7.9538962794858050e-05  4.8038368072807208e-05  2.4909884601874744e-05  1.0923691316374233e-05  -1.5159667016670761e-21  -3.4313182547223061e-19  7.1290465163374693e-03  8.8158276042916445e-03  1.6411004578390759e-02  1.4805177342355211e-03  4.2228517070923245e-03  2.6160870359384872e-02  2.7739524490217937e-02  3.0775845243795261e-02  1.1562268403690677e-02  6.3459117357641415e-03  2.0110012942005012e-02  3.8258682733954719e-02  5.2661987179931834e-02  5.1296065927926807e-02  9.6309823862371483e-02  3.2618073240523781e-03  2.2124270246242812e-03  7.6690210318904342e-02  4.1886815198018436e-02  3.8073666930532067e-02  4.5255962702683672e-02  9.1716588922358608e-03  1.2666115750684034e-02  1.9681710614592639e-02  1.7332343011374981e-02  6.8541987688002359e-03  5.6247604562861896e-02  6.9624764858554608e-02  7.9166653978651191e-02  3.2912287216025050e-02  6.4100583531390434e-02  6.9482837048661941e-02  5.1339094623742317e-02  8.7917304943526439e-02  2.8085544961776465e-02  3.8011072549346256e-02  1.4428075359368204e-02  6.7473490008120571e-02  1.1418472775325168e-01  1.3061150972466115e-01  1.4038536473508825e-01  5.7688774259080221e-02  1.8675326717217580e-02  1.0483028735130530e-02  5.3616346540271149e-02  2.8376942970841569e-02  1.5037198498255149e-02  4.0024896530975559e-02  5.7965188690228331e-04  7.6479087126822762e-03  1.3537962272242580e-02  5.2288655932793712e-04  1.3002876060633771e-02  5.7054712245023986e-03  2.1788679420602908e-02  6.4381196502426826e-03  3.9610463302119240e-03  1.1668211096751457e-03  4.0008791243901706e-03  3.4860180005184499e-03  2.4483009092635018e-03  2.1148334636144090e-03  1.8598095452500947e-03  5.0742360610150103e-04  3.9576212950949544e-04  1.7286575709434814e-04  3.0708155862747350e-04  7.2081610587706286e-04  4.5970279976627801e-05  5.4412219442318704e-04  1.6826254209757949e-03  3.2887247985687072e-06  4.5389884347159188e-04  3.3165333178101678e-04  1.8485086209712204e-03  3.6021458423825697e-03  2.3554660076120469e-03  1.1463866903983092e-03  1.7620133673013159e-03  1.4118886326035189e-03  1.1976307357333962e-03  6.7526264454409164e-04  5.0921973517625965e-05  7.8599973524769455e-04  1.9182900535058389e-03  1.5141620488682941e-03  9.8042139370409947e-04  3.7615520723195494e-04  5.8365308459226608e-04  6.4146283956964415e-04  1.3196467191170782e-04  6.4506116998524173e-05  5.2966695059515261e-05  1.0857500517581767e-04  1.3965486649133104e-04  8.8388897589967421e-05  6.4320729835328153e-05  3.1794422706939737e-05  1.4386020983321123e-05  -5.8148732628440907e-22  -1.2500450187626101e-18  3.8281935378814816e-02  3.4053593026546994e-02  3.9372099371802307e-03  4.2869254830744226e-02  3.9818119555336665e-02  4.5610110881885296e-03  1.5600566783065883e-02  7.9676792420540730e-03  2.3999160372373235e-02  4.2431875296880618e-02  7.9022821161623458e-02  7.5024782127785114e-02  2.1259962041218113e-02  2.9790246317561983e-02  2.0186030790556187e-02  6.8783012692107898e-03  1.1099725407320626e-01  3.0722039298077389e-02  3.1896396044368204e-02  2.3112301038316064e-02  6.8434762497430371e-02  6.5221047243396044e-02  1.1809313211002845e-01  1.3011315696186884e-01  9.8944657821605775e-02  4.7683826440221587e-02  4.9076691072499574e-02  5.1456334965549189e-02  1.7411569489345548e-02  6.2096474025942025e-02  6.1164963871571165e-02  6.3714882289745020e-02  1.5166148797748311e-01  7.7693288090518758e-02  2.0627255908967537e-02  5.8482561993971109e-02  3.0506966660701972e-02  5.2956015573211064e-02  1.0803393451393749e-01  1.3900887122310673e-01  1.1668815823833056e-01  1.0953269357484156e-01  4.7416903297109611e-02  4.9290400321876461e-02  4.1890695619690908e-02  1.8935343462738573e-02  8.1954467732964373e-02  9.2805282422253527e-02  4.7308936641538242e-02  4.7309038245429320e-02  3.4949120240522415e-02  3.5340881939328279e-02  2.5765472829025689e-02  4.6648949128598729e-03  5.4957650879691872e-03  2.3306305660358316e-02  4.0142930530320314e-03  4.3716997738887176e-03  6.7728510969664981e-03  2.2713467241694753e-03  4.6658397018546123e-04  1.0409881995404325e-04  6.8064082786198344e-04  2.1564245301797023e-03  5.3845089962826847e-04  2.1074400625971791e-04  2.5143011407349975e-04  5.4742161162705952e-04  5.9094591810826698e-04  1.0074014919459322e-04  1.4251181946291552e-03  1.2988428760402893e-03  8.8604158579381922e-04  2.7266339179438608e-04  4.3391858415489101e-04  3.0869783663858698e-03  3.7127360006609204e-03  2.9321000362781823e-04  2.0293343457894108e-03  1.6873456540913226e-03  1.1700344019608319e-03  1.0224897549887487e-03  1.7919077093723196e-04  1.2599279050444278e-04  1.5491608463023105e-03  2.0113255646915934e-03  1.1356692366173847e-03  6.6611695268671296e-04  2.8761756113137416e-04  7.8731796842669230e-04  3.9739872322050711e-04  3.5981271770662256e-05  8.3868076607897750e-05  5.9137521338048923e-05  1.4299940968641852e-04  1.1307410515182122e-04  7.4771548338449550e-05  4.7453829486831071e-05  2.1752833064687462e-05  -1.2075248059621718e-21  -1.1946691380561610e-19  2.2982767296958681e-02  3.5738019162572274e-03  8.2855709280620256e-03  3.3867765821533717e-02  2.0818447830205387e-02  1.1308966618286777e-03  1.8275481760328435e-02  3.4259499167221236e-02  2.7214924831855756e-02  9.5155709000429075e-03  1.8188446809460440e-02  9.1839493620145003e-03  9.1926986111793632e-03  7.1584010529266329e-02  2.6655922222611830e-02  9.9682897192374914e-02  1.7285747137485367e-02  2.6696071368339517e-02  6.1237055295290263e-02  3.9396268147453166e-02  4.2859199343615165e-02  6.6581288809281367e-02  1.3799302384762149e-02  1.6021521708955457e-02  2.0975036679666752e-02  9.4533292945697348e-03  1.3346952964469007e-02  7.2564243713282864e-02  9.5063704836934923e-02  8.7734544191989755e-02  2.1273503182208647e-02  7.7885401222663270e-02  6.7333855567718245e-02  7.9907178249963462e-02  1.2333918835461384e-01  1.8423585229821626e-02  4.0307240445541015e-02  1.1508544457983352e-02  7.7092244381208208e-02  1.2903204986067454e-01  1.4452616778110844e-01  1.3889966081607050e-01  5.4398073611945090e-02  1.8307080273286893e-02  2.1393809579050814e-02  6.0141402610652428e-02  3.6051546060592847e-02  3.5248947445061012e-02  7.0911194547936443e-02  2.0091160856634042e-02  5.1398116229423732e-03  2.4838091830174042e-03  9.5844050171411139e-03  2.2280488545778163e-02  4.0136521832261707e-03  2.4739012273920936e-02  9.4122581092859446e-03  8.6243163403417703e-03  1.9108615606510665e-04  6.1429316173769394e-03  4.5177991138956996e-03  2.7622248298508892e-03  2.3198297613074305e-03  1.7781189846132015e-03  7.6434429918574673e-04  7.3822988056010288e-04  1.6519049062043432e-04  3.6275574381964941e-04  8.0296656446820493e-04  1.1002365047809936e-04  4.4565341027530457e-04  2.0034530055785126e-03  9.5779385570696755e-05  7.8087269963936646e-04  6.0630939873916785e-04  1.8195864516021109e-03  4.0432965276124876e-03  2.5472737952581905e-03  1.7364296594927513e-03  2.2084145697811512e-03  1.3343731151147134e-03  1.0172377454666847e-03  6.5820222790898507e-04  1.7286676744848259e-04  8.3104928971864040e-04  2.1798485562350722e-03  1.6316581896327327e-03  8.6169461157894675e-04  2.9671829269852732e-04  5.3680038430940573e-04  7.5323193537251895e-04  1.2670587989312626e-04  1.2459859701649854e-04  5.8931133507995534e-05  9.7032542023742840e-05  1.4503610205484634e-04  8.9638046784209060e-05  6.3421471186376891e-05  3.0361180775740487e-05  -1.6853840976016852e-21  -4.8231130112828279e-19  2.1521245939923176e-03  1.5734408786812766e-02  9.0628382549196636e-03  2.6179070874794153e-02  2.8212948986062386e-02  4.5028031860139643e-02  1.5247304008159362e-03  2.9520607210370000e-02  1.8898145158629760e-02  3.2748221690888299e-02  3.2897848491042991e-02  6.5858132919645845e-02  6.4505780081154027e-02  1.0306005137421572e-02  4.9354105424274522e-03  2.6548484825628552e-02  2.2153152183230093e-02  9.5402941371541192e-02  2.5034082915826369e-02  3.3193386711957942e-02  8.6025809168122393e-03  5.1641806432009434e-02  4.2809046002020290e-02  1.0068632663558315e-01  1.1476002679212871e-01  8.8307643994522983e-02  4.3746530959306078e-02  4.0021790997855619e-02  3.3123718714485335e-02  2.7992990106645659e-03  8.0618955027043901e-02  7.9466040607757193e-02  7.2718235543914891e-02  1.7283191877643944e-01  6.0151567689333531e-02  5.8539281594846913e-02  5.7427202933048670e-02  2.9302634364003932e-02  6.4229834165109620e-02  1.1995506737934988e-01  1.4556236545906179e-01  1.2688179062230640e-01  1.1841275886942186e-01  3.6615263447868390e-02  6.1960765264939537e-02  4.2587297310505118e-02  1.8326049617990611e-02  9.1407416349376880e-02  8.4002416866002932e-02  2.3114326291967930e-02  3.2933437033003568e-02  3.0081266717768021e-02  3.2764654940075237e-02  2.2111532148497228e-02  1.0544468247150737e-02  7.0450679374621690e-03  2.8334665085168124e-02  4.4639337686325073e-03  8.1218040928171878e-03  6.7371724481908694e-03  5.7424129583811634e-04  7.8539070954291885e-04  5.6206357000758325e-04  1.1579903790472257e-03  2.3962603476581691e-03  6.2365641871923799e-04  4.4445040287058459e-04  2.5554358042558043e-04  6.2749657971854320e-04  6.9939526497725044e-04  1.0900217072379453e-04  1.4511025536228790e-03  1.6072201161795661e-03  9.7356312489305997e-04  8.3396157796088898e-05  1.1242320879410904e-04  3.2803956317222840e-03  4.1154766480658318e-03  2.4795225325374031e-04  2.7453371694516021e-03  1.9258341786804628e-03  1.0281137555582462e-03  8.8157128366954797e-04  1.3652249985662062e-04  1.7051191243298958e-05  1.7371718622748329e-03  2.2552132719549532e-03  1.1781570449255323e-03  5.4745682328694088e-04  2.2733332440063805e-04  7.9584331945901118e-04  4.9401497766625273e-04  6.9458619474352889e-05  1.2266020364198239e-04  5.3538685231686586e-05  1.3455151240407347e-04  1.1650663337898362e-04  7.4010816303911908e-05  4.3874593688718785e-05  -6.0406393022977848e-21  -2.4176227193712989e-19  9.6516253339684940e-03  8.9236251639985848e-03  1.0398070267334204e-02  1.3838905192606051e-02  1.6333463799081144e-02  3.8436195210974182e-02  4.6549485110719789e-03  8.4264917409068458e-03  2.7503948409196406e-02  2.4516615221333211e-02  3.4651680657185988e-03  8.5274765342509117e-03  1.2070649787206461e-02  1.5583159170426497e-02  5.8322833121713887e-02  1.8214259940945159e-02