<?xml version="1.0"?>
<VTKFile type="UnstructuredGrid"  version="0.1"  >
<UnstructuredGrid>
<Piece  NumberOfPoints="10201" NumberOfCells="20000">
<Points>
<DataArray  type="Float64"  NumberOfComponents="3"  format="ascii">0 0 0  0.01 0 0  0.02 0 0  0.03 0 0  0.04 0 0  0.05 0 0  0.06 0 0  0.07000000000000001 0 0  0.08 0 0  0.09 0 0  0.1 0 0  0.11 0 0  0.12 0 0  0.13 0 0  0.14 0 0  0.15 0 0  0.16 0 0  0.17 0 0  0.18 0 0  0.19 0 0  0.2 0 0  0.21 0 0  0.22 0 0  0.23 0 0  0.24 0 0  0.25 0 0  0.26 0 0  0.27 0 0  0.28 0 0  0.29 0 0  0.3 0 0  0.31 0 0  0.32 0 0  0.33 0 0  0.34 0 0  0.35 0 0  0.36 0 0  0.37 0 0  0.38 0 0  0.39 0 0  0.4 0 0  0.41 0 0  0.42 0 0  0.43 0 0  0.44 0 0  0.45 0 0  0.46 0 0  0.47 0 0  0.48 0 0  0.49 0 0  0.5 0 0  0.51 0 0  0.52 0 0  0.53 0 0  0.54 0 0  0.55 0 0  0.5600000000000001 0 0  0.57 0 0  0.58 0 0  0.59 0 0  0.6 0 0  0.61 0 0  0.62 0 0  0.63 0 0  0.64 0 0  0.65 0 0  0.66 0 0  0.67 0 0  0.68 0 0  0.6899999999999999 0 0  0.7 0 0  0.71 0 0  0.72 0 0  0.73 0 0  0.74 0 0  0.75 0 0  0.76 0 0  0.77 0 0  0.78 0 0  0.79 0 0  0.8 0 0  0.8100000000000001 0 0  0.82 0 0  0.83 0 0  0.84 0 0  0.85 0 0  0.86 0 0  0.87 0 0  0.88 0 0  0.89 0 0  0.9 0 0  0.91 0 0  0.92 0 0  0.93 0 0  0.9399999999999999 0 0  0.95 0 0  0.96 0 0  0.97 0 0  0.98 0 0  0.99 0 0  1 0 0  0 0.01 0  0.01 0.01 0  0.02 0.01 0  0.03 0.01 0  0.04 0.01 0  0.05 0.01 0  0.06 0.01 0  0.07000000000000001 0.01 0  0.08 0.01 0  0.09 0.01 0  0.1 0.01 0  0.11 0.01 0  0.12 0.01 0  0.13 0.01 0  0.14 0.01 0  0.15 0.01 0  0.16 0.01 0  0.17 0.01 0  0.18 0.01 0  0.19 0.01 0  0.2 0.01 0  0.21 0.01 0  0.22 0.01 0  0.23 0.01 0  0.24 0.01 0  0.25 0.01 0  0.26 0.01 0  0.27 0.01 0  0.28 0.01 0  0.29 0.01 0  0.3 0.01 0  0.31 0.01 0  0.32 0.01 0  0.33 0.01 0  0.34 0.01 0  0.35 0.01 0  0.36 0.01 0  0.37 0.01 0  0.38 0.01 0  0.39 0.01 0  0.4 0.01 0  0.41 0.01 0  0.42 0.01 0  0.43 0.01 0  0.44 0.01 0  0.45 0.01 0  0.46 0.01 0  0.47 0.01 0  0.48 0.01 0  0.49 0.01 0  0.5 0.01 0  0.51 0.01 0  0.52 0.01 0  0.53 0.01 0  0.54 0.01 0  0.55 0.01 0  0.5600000000000001 0.01 0  0.57 0.01 0  0.58 0.01 0  0.59 0.01 0  0.6 0.01 0  0.61 0.01 0  0.62 0.01 0  0.63 0.01 0  0.64 0.01 0  0.65 0.01 0  0.66 0.01 0  0.67 0.01 0  0.68 0.01 0  0.6899999999999999 0.01 0  0.7 0.01 0  0.71 0.01 0  0.72 0.01 0  0.73 0.01 0  0.74 0.01 0  0.75 0.01 0  0.76 0.01 0  0.77 0.01 0  0.78 0.01 0  0.79 0.01 0  0.8 0.01 0  0.8100000000000001 0.01 0  0.82 0.01 0  0.83 0.01 0  0.84 0.01 0  0.85 0.01 0  0.86 0.01 0  0.87 0.01 0  0.88 0.01 0  0.89 0.01 0  0.9 0.01 0  0.91 0.01 0  0.92 0.01 0  0.93 0.01 0  0.9399999999999999 0.01 0  0.95 0.01 0  0.96 0.01 0  0.97 0.01 0  0.98 0.01 0  0.99 0.01 0  1 0.01 0  0 0.02 0  0.01 0.02 0  0.02 0.02 0  0.03 0.02 0  0.04 0.02 0  0.05 0.02 0  0.06 0.02 0  0.07000000000000001 0.02 0  0.08 0.02 0  0.09 0.02 0  0.1 0.02 0  0.11 0.02 0  0.12 0.02 0  0.13 0.02 0  0.14 0.02 0  0.15 0.02 0  0.16 0.02 0  0.17 0.02 0  0.18 0.02 0  0.19 0.02 0  0.2 0.02 0  0.21 0.02 0  0.22 0.02 0  0.23 0.02 0  0.24 0.02 0  0.25 0.02 0  0.26 0.02 0  0.27 0.02 0  0.28 0.02 0  0.29 0.02 0  0.3 0.02 0  0.31 0.02 0  0.32 0.02 0  0.33 0.02 0  0.34 0.02 0  0.35 0.02 0  0.36 0.02 0  0.37 0.02 0  0.38 0.02 0  0.39 0.02 0  0.4 0.02 0  0.41 0.02 0  0.42 0.02 0  0.43 0.02 0  0.44 0.02 0  0.45 0.02 0  0.46 0.02 0  0.47 0.02 0  0.48 0.02 0  0.49 0.02 0  0.5 0.02 0  0.51 0.02 0  0.52 0.02 0  0.53 0.02 0  0.54 0.02 0  0.55 0.02 0  0.5600000000000001 0.02 0  0.57 0.02 0  0.58 0.02 0  0.59 0.02 0  0.6 0.02 0  0.61 0.02 0  0.62 0.02 0  0.63 0.02 0  0.64 0.02 0  0.65 0.02 0  0.66 0.02 0  0.67 0.02 0  0.68 0.02 0  0.6899999999999999 0.02 0  0.7 0.02 0  0.71 0.02 0  0.72 0.02 0  0.73 0.02 0  0.74 0.02 0  0.75 0.02 0  0.76 0.02 0  0.77 0.02 0  0.78 0.02 0  0.79 0.02 0  0.8 0.02 0  0.8100000000000001 0.02 0  0.82 0.02 0  0.83 0.02 0  0.84 0.02 0  0.85 0.02 0  0.86 0.02 0  0.87 0.02 0  0.88 0.02 0  0.89 0.02 0  0.9 0.02 0  0.91 0.02 0  0.92 0.02 0  0.93 0.02 0  0.9399999999999999 0.02 0  0.95 0.02 0  0.96 0.02 0  0.97 0.02 0  0.98 0.02 0  0.99 0.02 0  1 0.02 0  0 0.03 0  0.01 0.03 0  0.02 0.03 0  0.03 0.03 0  0.04 0.03 0  0.05 0.03 0  0.06 0.03 0  0.07000000000000001 0.03 0  0.08 0.03 0  0.09 0.03 0  0.1 0.03 0  0.11 0.03 0  0.12 0.03 0  0.13 0.03 0  0.14 0.03 0  0.15 0.03 0  0.16 0.03 0  0.17 0.03 0  0.18 0.03 0  0.19 0.03 0  0.2 0.03 0  0.21 0.03 0  0.22 0.03 0  0.23 0.03 0  0.24 0.03 0  0.25 0.03 0  0.26 0.03 0  0.27 0.03 0  0.28 0.03 0  0.29 0.03 0  0.3 0.03 0  0.31 0.03 0  0.32 0.03 0  0.33 0.03 0  0.34 0.03 0  0.35 0.03 0  0.36 0.03 0  0.37 0.03 0  0.38 0.03 0  0.39 0.03 0  0.4 0.03 0  0.41 0.03 0  0.42 0.03 0  0.43 0.03 0  0.44 0.03 0  0.45 0.03 0  0.46 0.03 0  0.47 0.03 0  0.48 0.03 0  0.49 0.03 0  0.5 0.03 0  0.51 0.03 0  0.52 0.03 0  0.53 0.03 0  0.54 0.03 0  0.55 0.03 0  0.5600000000000001 0.03 0  0.57 0.03 0  0.58 0.03 0  0.59 0.03 0  0.6 0.03 0  0.61 0.03 0  0.62 0.03 0  0.63 0.03 0  0.64 0.03 0  0.65 0.03 0  0.66 0.03 0  0.67 0.03 0  0.68 0.03 0  0.6899999999999999 0.03 0  0.7 0.03 0  0.71 0.03 0  0.72 0.03 0  0.73 0.03 0  0.74 0.03 0  0.75 0.03 0  0.76 0.03 0  0.77 0.03 0  0.78 0.03 0  0.79 0.03 0  0.8 0.03 0  0.8100000000000001 0.03 0  0.82 0.03 0  0.83 0.03 0  0.84 0.03 0  0.85 0.03 0  0.86 0.03 0  0.87 0.03 0  0.88 0.03 0  0.89 0.03 0  0.9 0.03 0  0.91 0.03 0  0.92 0.03 0  0.93 0.03 0  0.9399999999999999 0.03 0  0.95 0.03 0  0.96 0.03 0  0.97 0.03 0  0.98 0.03 0  0.99 0.03 0  1 0.03 0  0 0.04 0  0.01 0.04 0  0.02 0.04 0  0.03 0.04 0  0.04 0.04 0  0.05 0.04 0  0.06 0.04 0  0.07000000000000001 0.04 0  0.08 0.04 0  0.09 0.04 0  0.1 0.04 0  0.11 0.04 0  0.12 0.04 0  0.13 0.04 0  0.14 0.04 0  0.15 0.04 0  0.16 0.04 0  0.17 0.04 0  0.18 0.04 0  0.19 0.04 0  0.2 0.04 0  0.21 0.04 0  0.22 0.04 0  0.23 0.04 0  0.24 0.04 0  0.25 0.04 0  0.26 0.04 0  0.27 0.04 0  0.28 0.04 0  0.29 0.04 0  0.3 0.04 0  0.31 0.04 0  0.32 0.04 0  0.33 0.04 0  0.34 0.04 0  0.35 0.04 0  0.36 0.04 0  0.37 0.04 0  0.38 0.04 0  0.39 0.04 0  0.4 0.04 0  0.41 0.04 0  0.42 0.04 0  0.43 0.04 0  0.44 0.04 0  0.45 0.04 0  0.46 0.04 0  0.47 0.04 0  0.48 0.04 0  0.49 0.04 0  0.5 0.04 0  0.51 0.04 0  0.52 0.04 0  0.53 0.04 0  0.54 0.04 0  0.55 0.04 0  0.5600000000000001 0.04 0  0.57 0.04 0  0.58 0.04 0  0.59 0.04 0  0.6 0.04 0  0.61 0.04 0  0.62 0.04 0  0.63 0.04 0  0.64 0.04 0  0.65 0.04 0  0.66 0.04 0  0.67 0.04 0  0.68 0.04 0  0.6899999999999999 0.04 0  0.7 0.04 0  0.71 0.04 0  0.72 0.04 0  0.73 0.04 0  0.74 0.04 0  0.75 0.04 0  0.76 0.04 0  0.77 0.04 0  0.78 0.04 0  0.79 0.04 0  0.8 0.04 0  0.8100000000000001 0.04 0  0.82 0.04 0  0.83 0.04 0  0.84 0.04 0  0.85 0.04 0  0.86 0.04 0  0.87 0.04 0  0.88 0.04 0  0.89 0.04 0  0.9 0.04 0  0.91 0.04 0  0.92 0.04 0  0.93 0.04 0  0.9399999999999999 0.04 0  0.95 0.04 0  0.96 0.04 0  0.97 0.04 0  0.98 0.04 0  0.99 0.04 0  1 0.04 0  0 0.05 0  0.01 0.05 0  0.02 0.05 0  0.03 0.05 0  0.04 0.05 0  0.05 0.05 0  0.06 0.05 0  0.07000000000000001 0.05 0  0.08 0.05 0  0.09 0.05 0  0.1 0.05 0  0.11 0.05 0  0.12 0.05 0  0.13 0.05 0  0.14 0.05 0  0.15 0.05 0  0.16 0.05 0  0.17 0.05 0  0.18 0.05 0  0.19 0.05 0  0.2 0.05 0  0.21 0.05 0  0.22 0.05 0  0.23 0.05 0  0.24 0.05 0  0.25 0.05 0  0.26 0.05 0  0.27 0.05 0  0.28 0.05 0  0.29 0.05 0  0.3 0.05 0  0.31 0.05 0  0.32 0.05 0  0.33 0.05 0  0.34 0.05 0  0.35 0.05 0  0.36 0.05 0  0.37 0.05 0  0.38 0.05 0  0.39 0.05 0  0.4 0.05 0  0.41 0.05 0  0.42 0.05 0  0.43 0.05 0  0.44 0.05 0  0.45 0.05 0  0.46 0.05 0  0.47 0.05 0  0.48 0.05 0  0.49 0.05 0  0.5 0.05 0  0.51 0.05 0  0.52 0.05 0  0.53 0.05 0  0.54 0.05 0  0.55 0.05 0  0.5600000000000001 0.05 0  0.57 0.05 0  0.58 0.05 0  0.59 0.05 0  0.6 0.05 0  0.61 0.05 0  0.62 0.05 0  0.63 0.05 0  0.64 0.05 0  0.65 0.05 0  0.66 0.05 0  0.67 0.05 0  0.68 0.05 0  0.6899999999999999 0.05 0  0.7 0.05 0  0.71 0.05 0  0.72 0.05 0  0.73 0.05 0  0.74 0.05 0  0.75 0.05 0  0.76 0.05 0  0.77 0.05 0  0.78 0.05 0  0.79 0.05 0  0.8 0.05 0  0.8100000000000001 0.05 0  0.82 0.05 0  0.83 0.05 0  0.84 0.05 0  0.85 0.05 0  0.86 0.05 0  0.87 0.05 0  0.88 0.05 0  0.89 0.05 0  0.9 0.05 0  0.91 0.05 0  0.92 0.05 0  0.93 0.05 0  0.9399999999999999 0.05 0  0.95 0.05 0  0.96 0.05 0  0.97 0.05 0  0.98 0.05 0  0.99 0.05 0  1 0.05 0  0 0.06 0  0.01 0.06 0  0.02 0.06 0  0.03 0.06 0  0.04 0.06 0  0.05 0.06 0  0.06 0.06 0  0.07000000000000001 0.06 0  0.08 0.06 0  0.09 0.06 0  0.1 0.06 0  0.11 0.06 0  0.12 0.06 0  0.13 0.06 0  0.14 0.06 0  0.15 0.06 0  0.16 0.06 0  0.17 0.06 0  0.18 0.06 0  0.19 0.06 0  0.2 0.06 0  0.21 0.06 0  0.22 0.06 0  0.23 0.06 0  0.24 0.06 0  0.25 0.06 0  0.26 0.06 0  0.27 0.06 0  0.28 0.06 0  0.29 0.06 0  0.3 0.06 0  0.31 0.06 0  0.32 0.06 0  0.33 0.06 0  0.34 0.06 0  0.35 0.06 0  0.36 0.06 0  0.37 0.06 0  0.38 0.06 0  0.39 0.06 0  0.4 0.06 0  0.41 0.06 0  0.42 0.06 0  0.43 0.06 0  0.44 0.06 0  0.45 0.06 0  0.46 0.06 0  0.47 0.06 0  0.48 0.06 0  0.49 0.06 0  0.5 0.06 0  0.51 0.06 0  0.52 0.06 0  0.53 0.06 0  0.54 0.06 0  0.55 0.06 0  0.5600000000000001 0.06 0  0.57 0.06 0  0.58 0.06 0  0.59 0.06 0  0.6 0.06 0  0.61 0.06 0  0.62 0.06 0  0.63 0.06 0  0.64 0.06 0  0.65 0.06 0  0.66 0.06 0  0.67 0.06 0  0.68 0.06 0  0.6899999999999999 0.06 0  0.7 0.06 0  0.71 0.06 0  0.72 0.06 0  0.73 0.06 0  0.74 0.06 0  0.75 0.06 0  0.76 0.06 0  0.77 0.06 0  0.78 0.06 0  0.79 0.06 0  0.8 0.06 0  0.8100000000000001 0.06 0  0.82 0.06 0  0.83 0.06 0  0.84 0.06 0  0.85 0.06 0  0.86 0.06 0  0.87 0.06 0  0.88 0.06 0  0.89 0.06 0  0.9 0.06 0  0.91 0.06 0  0.92 0.06 0  0.93 0.06 0  0.9399999999999999 0.06 0  0.95 0.06 0  0.96 0.06 0  0.97 0.06 0  0.98 0.06 0  0.99 0.06 0  1 0.06 0  0 0.07000000000000001 0  0.01 0.07000000000000001 0  0.02 0.07000000000000001 0  0.03 0.07000000000000001 0  0.04 0.07000000000000001 0  0.05 0.07000000000000001 0  0.06 0.07000000000000001 0  0.07000000000000001 0.07000000000000001 0  0.08 0.07000000000000001 0  0.09 0.07000000000000001 0  0.1 0.07000000000000001 0  0.11 0.07000000000000001 0  0.12 0.07000000000000001 0  0.13 0.07000000000000001 0  0.14 0.07000000000000001 0  0.15 0.07000000000000001 0  0.16 0.07000000000000001 0  0.17 0.0700
[...]
<PointData  Scalars="Indicator Function"> 
<DataArray  type="Float64"  Name="Indicator Function"  format="ascii">-3.7615819226313200e-36  -6.5653103057926189e-21  1.7270498754740625e-19  -1.5556619803320674e-20  4.0856855734523967e-19  -1.2713751468714922e-20  -1.1685450967574129e-20  1.3224147451934061e-18  1.5401307065169157e-18  -4.1341753664165944e-21  3.8624669070560865e-20  8.2511825206130654e-20  -1.4245181134662656e-20  -2.0763932212924887e-34  1.1204291617140644e-17  -2.1338758221694443e-20  2.6481536735324493e-34  1.0015945297987768e-17  -5.6066180383866084e-21  -2.5856446797788463e-20  2.5233960550318129e-17  -7.2492332383134944e-20  -9.0898963787897369e-20  4.4540492256070085e-18  -2.9063821090506564e-20  -2.4137883076260753e-20  -1.8389405583492454e-20  -9.3632495905670262e-20  7.3219058038753400e-17  -1.0761118034342694e-19  -1.8822398519310572e-19  -1.0000401459401926e-19  -7.8601326535835950e-20  -1.0402588501809060e-19  5.1488922372486658e-18  -4.2555036831700846e-20  -2.4604616218957997e-19  -4.1119053865406475e-19  -4.2507751394270826e-19  -3.7969330708394755e-19  3.5243594371136431e-17  -3.1349318310000829e-20  -9.1224198234636049e-20  -1.0186014984742312e-19  -1.0404809941695319e-19  -5.2024049708475393e-20  6.6695552056556859e-18  -1.6364146372943168e-20  -1.4369611622557393e-20  -1.6674953396811857e-20  -9.7982669223245112e-21  -1.5929888767307437e-20  -4.0965687409207208e-21  -1.6089112877058428e-20  -1.0342046864521606e-20  2.0688700574472260e-36  3.9481563859938335e-33  -2.3509887016445750e-38  -3.8237230277284130e-23  -4.2137901823873728e-23  -3.4333663159949749e-23  -2.6098677359166943e-23  -1.9647005677776899e-23  -1.5113465532562943e-23  -1.2224026461467111e-23  -1.0508971558526839e-23  -9.6823077904361766e-24  -9.3566531661348805e-24  2.1505993684529338e-21  -9.0448981926103728e-24  -8.5877600910780414e-24  -9.8350135263676865e-24  -1.1468677539279757e-23  -1.5220797409304413e-23  -1.7115390569381613e-23  -1.9238680161503281e-23  -1.6968565092982499e-23  -1.0002350421796229e-23  -6.3193087772468394e-24  -9.3536238194471060e-24  -1.0689481602579780e-23  6.2780148431818031e-21  -1.6679335144272239e-23  -1.9579254196521893e-23  -1.6959454892355444e-23  -1.1943904280108359e-23  -7.2427370592922390e-24  -3.6340002285101703e-24  -1.0331231693757579e-24  -1.1988734785462008e-25  -1.2490353126947014e-24  -2.1963812357040250e-24  -2.8990044496898373e-24  2.4940312069393579e-23  -3.4669996679606655e-24  -3.2476293090841155e-24  -2.6667948396091746e-24  -1.8108177340323780e-24  -9.4545223623834098e-25  -1.6071211827648462e-40  4.5917748078995606e-41  -1.5046327690525280e-36  6.0585037717632928e-05  1.0893738108903800e-04  4.8876481319724431e-05  2.0380810011873171e-06  3.8548241777545383e-05  2.9448942366276469e-04  6.3261658661509628e-05  5.3170483585024983e-04  2.8882962062186168e-04  7.4474682558712464e-05  3.5857032708316801e-04  3.0156582878484474e-04  1.0583545540714547e-04  5.4249314545638805e-04  6.6140768582347443e-04  3.8440489430308875e-04  2.8611569991788188e-04  2.0199970326789307e-04  9.3157667330914914e-04  8.6323734951144809e-04  1.3651030284737077e-03  1.3059057644316185e-03  1.6374901577741610e-03  1.0471345106653450e-03  8.6965888982208433e-04  2.1960971603086815e-04  2.2146922251809202e-04  1.6867330946821713e-03  1.1973669845504089e-03  1.3398671945070225e-03  3.6030243428894285e-03  8.5077547065274639e-04  9.9056788426409655e-04  1.5187895326703427e-03  6.2883533533123306e-04  1.6147146740289695e-03  4.1889693612033978e-03  5.3128655460411784e-03  5.4439810026367767e-03  4.1179560438749608e-03  2.1074622144607639e-03  5.6473911303695520e-04  1.3609795041882387e-03  1.1544595794929112e-03  1.8743639270511949e-03  1.2007769274419858e-03  5.8958050805938474e-04  5.1771982039046567e-04  2.2234700747895397e-04  3.5301977008205844e-04  2.7874584165026283e-04  1.4759444364086541e-04  6.8917819832948034e-05  2.5537678111489469e-04  5.8617363063783462e-05  1.1437582500614222e-05  8.4331400288058846e-06  3.4397017400091562e-06  1.9848820011965024e-06  1.2708926812383655e-06  8.8729300164853690e-07  6.5320366548229961e-07  4.9956912656747287e-07  3.9490770762609020e-07  3.2280840967717697e-07  2.7345763667381007e-07  2.3877330087710708e-07  2.1777169039555709e-07  1.9895147279650345e-07  1.7506055508679457e-07  1.7029555895431437e-07  1.7669187936344002e-07  1.9889877996515445e-07  2.2707010974354774e-07  2.4327072849374877e-07  2.4919595192680255e-07  1.8108051775567068e-07  1.0878268546691959e-07  9.8500689624960430e-08  1.2792058615889129e-07  1.2860428836920307e-07  1.5817089307776586e-07  2.2811985455032724e-07  2.3864856033942924e-07  1.8619009876476028e-07  1.2206720207859933e-07  6.9439950646184371e-08  3.0744352976838656e-08  3.2389159940946503e-09  1.6324501829016552e-08  3.0336826279193719e-08  4.0117677037675816e-08  4.6172985216654714e-08  4.8507960359436321e-08  4.6895125329422251e-08  4.1194379384420169e-08  3.1848715024412629e-08  2.0326360910704029e-08  7.3701195274838650e-09  2.0456190984130305e-25  -8.7383727099708313e-21  1.7854124693168391e-05  4.9847272462887212e-07  7.8717579231910969e-05  1.3298928021826550e-04  2.2198019027433219e-04  2.0052416300975795e-04  4.8661110587063541e-04  1.5391325231796490e-04  1.4061808952530049e-04  3.0811599835787584e-04  3.5977740111635989e-04  4.7175757488269885e-04  1.2056225174313945e-03  5.3750321602119002e-04  1.2871331390132014e-04  3.7713249817717743e-04  7.0431804212891375e-04  1.3563991181974918e-03  6.2297785915225545e-04  8.9197894175208656e-04  1.8554136126041265e-05  3.9469697478903616e-04  1.0279892994576405e-03  7.3749524608732609e-05  9.4821082443426814e-04  2.2332486039603194e-03  2.6933663651702348e-03  2.9740223321889935e-03  1.0506400686160058e-04  2.9412873407469310e-03  1.9580133071905158e-03  3.3076618487074632e-03  2.6879016306074798e-03  1.6261775283297826e-03  2.1119896550298475e-03  5.4346316612694011e-04  4.1346194475201980e-03  7.2981025153016120e-03  7.5660436941323668e-03  7.3728267142704907e-03  4.6030785120987775e-03  4.0015327080294971e-04  1.0646530460930222e-03  2.7880365875632700e-03  9.5090295217002110e-04  1.2450309598413718e-03  1.3093758351211046e-03  4.7940803151731427e-04  2.8446704846566377e-04  1.2598095581547493e-04  1.1926535771831271e-04  4.6115464544084766e-04  6.8710010134987953e-05  3.1717259904836837e-04  2.5138833812807958e-04  4.7318433934030152e-06  1.5387081399048235e-05  7.0232750241807054e-06  3.6516385680019503e-06  2.2738390161981454e-06  1.5505175687692861e-06  1.1203291850343855e-06  8.4169103024608985e-07  6.5233760427906519e-07  5.2175927146778060e-07  4.3081986425358406e-07  3.6856160234961068e-07  3.2504596734205128e-07  2.9995600672317927e-07  2.6456283707695263e-07  2.3997292070176701e-07  2.4559056425185408e-07  2.6245262433253207e-07  3.0889819152633904e-07  3.3665074907786181e-07  3.6461742826051380e-07  3.2694453384396057e-07  2.0204252654962296e-07  1.3961998282331406e-07  1.7193318556292197e-07  2.0279030683797158e-07  2.0333525206861960e-07  2.9436526516893748e-07  3.7050075658707751e-07  3.2834623235466417e-07  2.3427879699355816e-07  1.4957876109049268e-07  8.5798941173199759e-08  3.9515138632691747e-08  5.8342151330635103e-09  1.9191026752986894e-08  3.7966734772856068e-08  5.1553437579704468e-08  6.0106350268241790e-08  6.3263289730366446e-08  6.0507043580431191e-08  5.1731393054348722e-08  3.8044018787373028e-08  2.1902743428132947e-08  5.4713092626833831e-24  -5.9466509043400830e-21  1.5741652832179675e-04  3.4398497541170710e-05  1.3186178736223928e-04  1.2997937300234172e-04  4.6682192168769983e-05  1.5357850231464067e-04  5.0710351155973247e-04  1.2914344985996969e-04  9.4348710783502283e-04  7.5595671283044355e-04  3.7336411132814283e-04  4.9526334812801352e-04  2.8973675410531397e-04  4.7245005170726718e-04  8.3659445136094121e-04  1.4882870604912674e-03  1.0856800978090251e-03  9.6836210219604859e-05  1.6388854023339220e-04  1.5130552972544324e-03  1.6762532396905584e-03  2.7583676331057977e-03  3.0641983988595051e-03  3.5659436679985378e-03  2.2745832835731148e-03  1.3510893088077320e-03  5.2902519894510332e-05  1.2808191764609614e-03  3.7421239876224656e-03  2.4576999675065591e-03  3.0762532862540918e-03  6.9697494382730037e-03  1.7087943025193226e-03  2.0554333458189999e-03  2.7030315287760987e-03  1.3028271530817928e-03  2.6657730346859353e-03  7.0780051792556486e-03  8.9412044720811133e-03  8.8902717079469597e-03  6.7742054421862990e-03  3.4855397344991036e-03  1.4937882813952513e-03  2.2244092563201757e-03  2.2793982227137179e-03  3.8531118873498180e-03  2.3372748438377114e-03  1.1399356896041703e-03  9.9180901162510731e-04  5.2137617221769024e-04  7.0739795208357183e-04  5.3144677249098717e-04  2.8974225153070697e-04  1.2080108569941996e-04  4.8368991212836891e-04  8.0201348957467414e-05  2.4873040731825472e-06  1.2470281252164493e-05  5.1820818755810226e-06  3.2685959033144982e-06  2.2059477877946191e-06  1.5888190841138860e-06  1.1903940993681893e-06  9.1952722833817730e-07  7.3046301338542404e-07  5.9792250310099060e-07  5.0537344951416752e-07  4.3924452237526646e-07  3.9790105121231694e-07  3.6304809174072753e-07  3.1648879167937199e-07  3.0672248126885295e-07  3.1731909321006923e-07  3.5360709932303704e-07  4.0415090135336596e-07  4.2749162361129974e-07  4.4535173076604387e-07  3.2693891485636520e-07  1.9750783449826420e-07  1.8660393039462723e-07  2.4997458036313790e-07  2.4951537111732192e-07  2.9400500283942760e-07  4.2484758964130880e-07  4.4291979636249770e-07  3.4386461653425473e-07  2.3314286091127908e-07  1.4834226633407329e-07  8.6962668918207282e-08  4.2129419558074934e-08  8.4954106913178771e-09  1.7383838934117314e-08  3.7230579383523667e-08  5.1531174366703488e-08  6.0001250447436925e-08  6.1956463561216106e-08  5.6744549732863012e-08  4.4411640324172981e-08  2.6132013601195693e-08  -3.2527207074294900e-24  -4.5573153865149739e-21  1.0712533918755383e-04  4.9949088693273841e-05  1.0287992260345516e-04  7.4745013221372744e-05  2.1639626664165859e-04  2.8331183161549230e-04  2.9618567047796153e-04  6.6164541699386846e-04  1.2251544490081488e-04  3.5098604931101248e-04  2.3677116992286827e-04  5.7672057639912881e-04  8.4122785714894855e-04  1.5313215112944169e-03  9.2597514197499252e-04  4.4584761269842252e-04  2.3068536084548750e-04  8.8912996186051821e-04  1.9145964398794174e-03  1.0465735863205499e-03  1.4472329972015196e-03  4.5029072057544577e-04  8.3159792801953408e-05  9.4370804213284552e-04  3.7415055137147855e-04  1.5388826184513486e-03  3.2087273094714894e-03  3.8193078069209598e-03  3.9523811571224319e-03  9.6586529511567798e-05  4.2414669181384890e-03  2.3197826087429929e-03  5.1954956890703733e-03  4.1332352259989937e-03  2.1422883151020556e-03  2.9158811448925866e-03  6.0411922257448940e-04  5.3781316143657054e-03  9.5643194041719806e-03  9.7229822206350014e-03  9.4578153892100024e-03  5.6278450760359417e-03  2.5314146033531790e-04  1.6981051993926260e-03  3.8843679715819812e-03  1.2888170684022214e-03  2.2080107962720980e-03  2.2355827562676261e-03  9.3123633926203004e-04  5.1390821202117675e-04  7.5740619106740541e-05  2.3389199589290678e-04  6.9306981900059048e-04  9.2094628036206200e-05  4.4542401706431674e-04  3.5650362651894852e-04  2.2745094002701988e-05  9.2380722270824407e-06  6.9975927029330539e-06  3.9802884733170502e-06  2.7619704722641540e-06  2.0228648420169960e-06  1.5362581235625176e-06  1.1981095631437232e-06  9.5710426247993217e-07  7.8483479115931428e-07  6.6106278938546757e-07  5.7359408094169218e-07  5.1017239648551836e-07  4.7233863378649330e-07  4.1946144223209509e-07  3.8004617476534224e-07  3.8435036480759421e-07  4.0159795749629074e-07  4.6078466919787031e-07  4.9465733222124608e-07  5.2796673694698644e-07  4.7881986669680587e-07  3.0242143493262249e-07  2.1701897801169561e-07  2.6734319752617932e-07  3.1311078909718055e-07  3.0372127876926135e-07  4.2373564243663969e-07  5.3041571724977909e-07  4.6700483812041152e-07  3.3429790091369770e-07  2.2296787837042651e-07  1.4347173829271905e-07  8.6359205142441986e-08  4.3778572546298227e-08  1.0718267684695314e-08  1.5493198499342908e-08  3.5837523260812022e-08  5.0221466378118366e-08  5.7897902862724989e-08  5.7778050286167533e-08  4.8846895834738976e-08  3.0401267620441805e-08  7.5942421402512798e-24  4.1847598889273435e-36  1.4237880455708973e-04  2.3832639667906145e-04  4.7471664518173195e-05  1.4865374902936631e-04  2.1566806010084837e-04  7.2212653767470396e-05  2.2518648962127741e-04  6.5113637499434229e-04  2.1537845737719811e-04  1.1109504750883815e-03  9.7114468804424903e-04  5.7073874390738664e-04  4.6832953638689028e-04  3.3332651601489954e-04  7.6001786108427093e-04  8.7524466932733689e-04  1.8822339866531286e-03  1.4120017271008502e-03  3.3057332805819319e-05  1.3177485809676265e-04  1.7581462860922640e-03  1.9364338362401680e-03  3.2581696322731037e-03  3.8074972053829506e-03  4.5032865746052588e-03  2.8610708351496698e-03  1.5723785959200955e-03  1.3299392924857780e-04  1.6929747511948642e-03  4.8376196079612617e-03  3.2627662582396678e-03  3.9111316016371541e-03  8.7840097326787984e-03  1.9526262589282107e-03  2.7477777286036200e-03  3.4281280670686071e-03  1.7362979782551658e-03  3.2095537294488472e-03  8.6300174201281027e-03  1.0838410053088660e-02  1.0637453590886909e-02  8.1517980884557185e-03  3.9971866379213137e-03  2.2052123542519019e-03  2.9407922801868236e-03  2.8297809000721250e-03  4.8852581224434859e-03  2.8407918766566675e-03  1.3377677443014077e-03  1.1863222145086553e-03  6.2707929880456855e-04  8.6161913051791136e-04  6.5172700263296064e-04  3.9509058551465029e-04  1.6117925152751101e-04  6.2031292055297221e-04  9.5638941871121957e-05  1.8103608933190980e-05  1.0131643453931518e-05  4.6873830683568730e-06  3.2874729378980864e-06  2.4343215171255880e-06  1.8760187352056274e-06  1.4804849248714209e-06  1.1928867616112600e-06  9.8183888411505363e-07  8.2784097278005023e-07  7.1619461544783433e-07  6.3353074190575888e-07  5.7974097175071863e-07  5.3268886952469547e-07  4.6934131826852470e-07  4.5243989584123631e-07  4.6118363542437781e-07  5.0109511077909445e-07  5.6184752297933989e-07  5.8800867469371992e-07  6.0619592373687700e-07  4.5366388062900984e-07  2.8589453304765704e-07  2.7348137517654818e-07  3.5551471113500422e-07  3.5243536028706677e-07  4.0095318210413826e-07  5.6356718365473864e-07  5.8541113395779170e-07  4.5668585137818812e-07  3.1630246233327573e-07  2.1288628012914656e-07  1.3993595792563463e-07  8.6542651683208888e-08  4.5457763903896826e-08  1.2538588940742857e-08  1.4062494296603725e-08  3.4676755848852921e-08  4.8669000892511672e-08  5.4723916768158312e-08  5.0956389115702158e-08  3.4645381891244708e-08  -1.9232050336295652e-24  -7.5231638452626401e-37  9.6527844054025552e-06  1.4308378378543525e-04  7.1666412180700298e-05  1.4735480698869707e-04  1.0105830522812033e-04  2.3377271847958801e-04  3.3121830800939169e-04  4.0389454127082500e-04  7.5190299430228790e-04  1.7367962306584733e-04  4.1667599642557159e-04  2.1395841519014533e-04  6.9415363957845691e-04  1.1365850203762368e-03  1.7271530751608764e-03  1.1395017499456817e-03  5.3573395916638579e-04  2.9265132763527622e-04  1.0953573856734521e-03  2.2507859191800371e-03  1.1198589170275364e-03  1.5135034279387693e-03  3.5367656998266451e-04  2.7847484566609462e-04  1.3363425388011061e-03  1.3570747989356658e-04  1.5638561614422176e-03  3.6548679995443353e-03  4.5088905799241770e-03  4.7427916496165677e-03  1.0993566329831041e-05  5.1324426088483000e-03  3.0678241489368709e-03  5.9364608167435376e-03  4.8411522821830612e-03  2.7140247489843565e-03  3.4700143516317459e-03  6.7784024856054701e-04  6.3898620772997487e-03  1.1290779179379365e-02  1.1472921992323443e-02  1.1012511083944479e-02  6.4000126466663238e-03  6.3592525108055410e-05  2.1956779766194776e-03  4.7495652606934511e-03  1.7356813044147258e-03  2.5316560255889907e-03  2.5769918556232461e-03  9.8519152693547296e-04  5.0104617000769726e-04  1.7941361560299418e-04  2.1158009637249923e-04  8.1292212991050021e-04  1.1496495239940724e-04  5.5860607070922104e-04  4.1953468163774500e-04  3.2475993796802660e-05  4.5235889324205005e-06  6.6505937377204726e-06  4.1077639394938639e-06  3.0131187521299381e-06  2.3118986500477898e-06  1.8222942517381423e-06  1.4668955705365521e-06  1.2048641043255386e-06  1.0120798356394180e-06  8.6981359511878557e-07  7.6618658105015260e-07  6.8933366488535986e-07  6.4094112889876981e-07  5.7287568159668488e-07  5.2207512530386018e-07  5.2366655005629938e-07  5.4066658205830019e-07  6.0802550096149040e-07  6.4821520937447528e-07  6.8501978851052910e-07  6.1681267895125114e-07  4.0004663535737951e-07  2.9789108429890691e-07  3.6114084780976627e-07  4.1433466386857851e-07  4.0221730716518443e-07  5.4404839045276504e-07  6.6811943182519663e-07  5.8868423128807077e-07  4.2782150481620050e-07  2.9535456682954452e-07  2.0250333715559389e-07  1.3604649135458896e-07  8.5794180213288546e-08  4.5712652079850916e-08  1.2772012408226909e-08  1.4021402249454288e-08  3.4333586074444345e-08  4.6822434643872068e-08  4.9030801173066616e-08  3.6574002376981133e-08  -2.0302649770809807e-24  -6.6041672866117616e-21  5.8069509241408254e-05  1.5366957358087368e-04  2.4925037927652817e-04  5.8706304354510431e-06  1.8987805628747971e-04  3.1739025191970501e-04  3.5182136676510438e-05  2.8072743243341052e-04  7.8808952906911367e-04  2.8269016155318196e-04  1.2843042112352281e-03  1.1693609180358153e-03  6.8891990559329054e-04  5.3874587147896157e-04  3.9323265381220612e-04  9.0900797231244690e-04  1.0487467543140196e-03  2.3283623912202238e-03  1.6420810463859878e-03  2.3161403173896556e-04  3.9942990144616817e-04  2.2397431385503029e-03  2.3177906029969559e-03  3.7127125056260887e-03  4.3487886664309939e-03  5.2234864892522241e-03  3.3775253502125774e-03  1.9749061890258156e-03  2.7593012136034085e-04  1.3491480508767586e-03  5.2971975100049550e-03  4.0766253604190856e-03  4.1870719549705485e-03  1.0377890886085653e-02  2.6575755431548160e-03  3.1356715418779588e-03  4.2094139350624081e-03  1.9230185920023539e-03  3.9258208275720760e-03  1.0207222652043818e-02  1.2534721776590966e-02  1.2314553754129513e-02  9.3288199839336745e-03  4.3233546854099508e-03  2.7991884796541998e-03  3.6998862200979090e-03  2.9205814883077339e-03  5.6615250662712191e-03  3.4882504303099414e-03  1.7294240835014382e-03  1.4843403052638270e-03  7.4031016267459438e-04  9.9204707140332447e-04  7.9734106088292730e-04  4.4412595982728457e-04  2.1829442302915672e-04  7.3321497494109318e-04  9.7906299307151621e-05  2.2834846185839607e-05  8.2270274081319293e-06  5.0819659897668486e-06  3.7559778845021334e-06  2.8838069586094130e-06  2.2671608491519571e-06  1.8147557262214190e-06  1.4799530715127122e-06  1.2314656124530076e-06  1.0480150058949783e-06  9.1329715263658586e-07  8.1192397211413413e-07  7.4498698776743629e-07  6.8330245278382966e-07  6.0444342660142999e-07  5.8235299839601542e-07  5.8954085958451289e-07  6.3456297618271018e-07  7.0359664655314908e-07  7.3636366277618865e-07  7.4792441102470848e-07  5.5707509597528052e-07  3.6032927909322749e-07  3.5178271658947489e-07  4.4865561133171463e-07  4.4366851812168388e-07  5.0563774690462451e-07  6.9258148540014547e-07  7.1103309813948679e-07  5.5756209888794444e-07  3.9371300943909696e-07  2.7490916540967146e-07  1.9200685898434979e-07  1.3106920566428799e-07  8.3309708575735530e-08  4.4009299703712299e-08  1.1214253699990486e-08  1.5221639093768145e-08  3.4100229294913464e-08  4.2693490656055514e-08  3.5457494420531824e-08  -4.9207158376490497e-24  -1.6706369864237234e-22  1.2340335206132379e-04  7.0170645552458576e-05  1.7583233366094442e-04  9.6224959866074569e-05  1.7558524956074107e-04  1.4187012014111946e-04  2.3673728539471998e-04  3.7048391832354189e-04  5.6873478341740093e-04  7.9730803667731336e-04  2.4526853699814071e-04  3.9841770930575674e-04  3.1647272566369405e-04  8.6814295473509428e-04  1.4738563560867232e-03  1.9521844920221045e-