<?xml version="1.0"?>
<VTKFile type="UnstructuredGrid"  version="0.1"  >
<UnstructuredGrid>
<Piece  NumberOfPoints="10201" NumberOfCells="20000">
<Points>
<DataArray  type="Float64"  NumberOfComponents="3"  format="ascii">0 0 0  0.01 0 0  0.02 0 0  0.03 0 0  0.04 0 0  0.05 0 0  0.06 0 0  0.07000000000000001 0 0  0.08 0 0  0.09 0 0  0.1 0 0  0.11 0 0  0.12 0 0  0.13 0 0  0.14 0 0  0.15 0 0  0.16 0 0  0.17 0 0  0.18 0 0  0.19 0 0  0.2 0 0  0.21 0 0  0.22 0 0  0.23 0 0  0.24 0 0  0.25 0 0  0.26 0 0  0.27 0 0  0.28 0 0  0.29 0 0  0.3 0 0  0.31 0 0  0.32 0 0  0.33 0 0  0.34 0 0  0.35 0 0  0.36 0 0  0.37 0 0  0.38 0 0  0.39 0 0  0.4 0 0  0.41 0 0  0.42 0 0  0.43 0 0  0.44 0 0  0.45 0 0  0.46 0 0  0.47 0 0  0.48 0 0  0.49 0 0  0.5 0 0  0.51 0 0  0.52 0 0  0.53 0 0  0.54 0 0  0.55 0 0  0.5600000000000001 0 0  0.57 0 0  0.58 0 0  0.59 0 0  0.6 0 0  0.61 0 0  0.62 0 0  0.63 0 0  0.64 0 0  0.65 0 0  0.66 0 0  0.67 0 0  0.68 0 0  0.6899999999999999 0 0  0.7 0 0  0.71 0 0  0.72 0 0  0.73 0 0  0.74 0 0  0.75 0 0  0.76 0 0  0.77 0 0  0.78 0 0  0.79 0 0  0.8 0 0  0.8100000000000001 0 0  0.82 0 0  0.83 0 0  0.84 0 0  0.85 0 0  0.86 0 0  0.87 0 0  0.88 0 0  0.89 0 0  0.9 0 0  0.91 0 0  0.92 0 0  0.93 0 0  0.9399999999999999 0 0  0.95 0 0  0.96 0 0  0.97 0 0  0.98 0 0  0.99 0 0  1 0 0  0 0.01 0  0.01 0.01 0  0.02 0.01 0  0.03 0.01 0  0.04 0.01 0  0.05 0.01 0  0.06 0.01 0  0.07000000000000001 0.01 0  0.08 0.01 0  0.09 0.01 0  0.1 0.01 0  0.11 0.01 0  0.12 0.01 0  0.13 0.01 0  0.14 0.01 0  0.15 0.01 0  0.16 0.01 0  0.17 0.01 0  0.18 0.01 0  0.19 0.01 0  0.2 0.01 0  0.21 0.01 0  0.22 0.01 0  0.23 0.01 0  0.24 0.01 0  0.25 0.01 0  0.26 0.01 0  0.27 0.01 0  0.28 0.01 0  0.29 0.01 0  0.3 0.01 0  0.31 0.01 0  0.32 0.01 0  0.33 0.01 0  0.34 0.01 0  0.35 0.01 0  0.36 0.01 0  0.37 0.01 0  0.38 0.01 0  0.39 0.01 0  0.4 0.01 0  0.41 0.01 0  0.42 0.01 0  0.43 0.01 0  0.44 0.01 0  0.45 0.01 0  0.46 0.01 0  0.47 0.01 0  0.48 0.01 0  0.49 0.01 0  0.5 0.01 0  0.51 0.01 0  0.52 0.01 0  0.53 0.01 0  0.54 0.01 0  0.55 0.01 0  0.5600000000000001 0.01 0  0.57 0.01 0  0.58 0.01 0  0.59 0.01 0  0.6 0.01 0  0.61 0.01 0  0.62 0.01 0  0.63 0.01 0  0.64 0.01 0  0.65 0.01 0  0.66 0.01 0  0.67 0.01 0  0.68 0.01 0  0.6899999999999999 0.01 0  0.7 0.01 0  0.71 0.01 0  0.72 0.01 0  0.73 0.01 0  0.74 0.01 0  0.75 0.01 0  0.76 0.01 0  0.77 0.01 0  0.78 0.01 0  0.79 0.01 0  0.8 0.01 0  0.8100000000000001 0.01 0  0.82 0.01 0  0.83 0.01 0  0.84 0.01 0  0.85 0.01 0  0.86 0.01 0  0.87 0.01 0  0.88 0.01 0  0.89 0.01 0  0.9 0.01 0  0.91 0.01 0  0.92 0.01 0  0.93 0.01 0  0.9399999999999999 0.01 0  0.95 0.01 0  0.96 0.01 0  0.97 0.01 0  0.98 0.01 0  0.99 0.01 0  1 0.01 0  0 0.02 0  0.01 0.02 0  0.02 0.02 0  0.03 0.02 0  0.04 0.02 0  0.05 0.02 0  0.06 0.02 0  0.07000000000000001 0.02 0  0.08 0.02 0  0.09 0.02 0  0.1 0.02 0  0.11 0.02 0  0.12 0.02 0  0.13 0.02 0  0.14 0.02 0  0.15 0.02 0  0.16 0.02 0  0.17 0.02 0  0.18 0.02 0  0.19 0.02 0  0.2 0.02 0  0.21 0.02 0  0.22 0.02 0  0.23 0.02 0  0.24 0.02 0  0.25 0.02 0  0.26 0.02 0  0.27 0.02 0  0.28 0.02 0  0.29 0.02 0  0.3 0.02 0  0.31 0.02 0  0.32 0.02 0  0.33 0.02 0  0.34 0.02 0  0.35 0.02 0  0.36 0.02 0  0.37 0.02 0  0.38 0.02 0  0.39 0.02 0  0.4 0.02 0  0.41 0.02 0  0.42 0.02 0  0.43 0.02 0  0.44 0.02 0  0.45 0.02 0  0.46 0.02 0  0.47 0.02 0  0.48 0.02 0  0.49 0.02 0  0.5 0.02 0  0.51 0.02 0  0.52 0.02 0  0.53 0.02 0  0.54 0.02 0  0.55 0.02 0  0.5600000000000001 0.02 0  0.57 0.02 0  0.58 0.02 0  0.59 0.02 0  0.6 0.02 0  0.61 0.02 0  0.62 0.02 0  0.63 0.02 0  0.64 0.02 0  0.65 0.02 0  0.66 0.02 0  0.67 0.02 0  0.68 0.02 0  0.6899999999999999 0.02 0  0.7 0.02 0  0.71 0.02 0  0.72 0.02 0  0.73 0.02 0  0.74 0.02 0  0.75 0.02 0  0.76 0.02 0  0.77 0.02 0  0.78 0.02 0  0.79 0.02 0  0.8 0.02 0  0.8100000000000001 0.02 0  0.82 0.02 0  0.83 0.02 0  0.84 0.02 0  0.85 0.02 0  0.86 0.02 0  0.87 0.02 0  0.88 0.02 0  0.89 0.02 0  0.9 0.02 0  0.91 0.02 0  0.92 0.02 0  0.93 0.02 0  0.9399999999999999 0.02 0  0.95 0.02 0  0.96 0.02 0  0.97 0.02 0  0.98 0.02 0  0.99 0.02 0  1 0.02 0  0 0.03 0  0.01 0.03 0  0.02 0.03 0  0.03 0.03 0  0.04 0.03 0  0.05 0.03 0  0.06 0.03 0  0.07000000000000001 0.03 0  0.08 0.03 0  0.09 0.03 0  0.1 0.03 0  0.11 0.03 0  0.12 0.03 0  0.13 0.03 0  0.14 0.03 0  0.15 0.03 0  0.16 0.03 0  0.17 0.03 0  0.18 0.03 0  0.19 0.03 0  0.2 0.03 0  0.21 0.03 0  0.22 0.03 0  0.23 0.03 0  0.24 0.03 0  0.25 0.03 0  0.26 0.03 0  0.27 0.03 0  0.28 0.03 0  0.29 0.03 0  0.3 0.03 0  0.31 0.03 0  0.32 0.03 0  0.33 0.03 0  0.34 0.03 0  0.35 0.03 0  0.36 0.03 0  0.37 0.03 0  0.38 0.03 0  0.39 0.03 0  0.4 0.03 0  0.41 0.03 0  0.42 0.03 0  0.43 0.03 0  0.44 0.03 0  0.45 0.03 0  0.46 0.03 0  0.47 0.03 0  0.48 0.03 0  0.49 0.03 0  0.5 0.03 0  0.51 0.03 0  0.52 0.03 0  0.53 0.03 0  0.54 0.03 0  0.55 0.03 0  0.5600000000000001 0.03 0  0.57 0.03 0  0.58 0.03 0  0.59 0.03 0  0.6 0.03 0  0.61 0.03 0  0.62 0.03 0  0.63 0.03 0  0.64 0.03 0  0.65 0.03 0  0.66 0.03 0  0.67 0.03 0  0.68 0.03 0  0.6899999999999999 0.03 0  0.7 0.03 0  0.71 0.03 0  0.72 0.03 0  0.73 0.03 0  0.74 0.03 0  0.75 0.03 0  0.76 0.03 0  0.77 0.03 0  0.78 0.03 0  0.79 0.03 0  0.8 0.03 0  0.8100000000000001 0.03 0  0.82 0.03 0  0.83 0.03 0  0.84 0.03 0  0.85 0.03 0  0.86 0.03 0  0.87 0.03 0  0.88 0.03 0  0.89 0.03 0  0.9 0.03 0  0.91 0.03 0  0.92 0.03 0  0.93 0.03 0  0.9399999999999999 0.03 0  0.95 0.03 0  0.96 0.03 0  0.97 0.03 0  0.98 0.03 0  0.99 0.03 0  1 0.03 0  0 0.04 0  0.01 0.04 0  0.02 0.04 0  0.03 0.04 0  0.04 0.04 0  0.05 0.04 0  0.06 0.04 0  0.07000000000000001 0.04 0  0.08 0.04 0  0.09 0.04 0  0.1 0.04 0  0.11 0.04 0  0.12 0.04 0  0.13 0.04 0  0.14 0.04 0  0.15 0.04 0  0.16 0.04 0  0.17 0.04 0  0.18 0.04 0  0.19 0.04 0  0.2 0.04 0  0.21 0.04 0  0.22 0.04 0  0.23 0.04 0  0.24 0.04 0  0.25 0.04 0  0.26 0.04 0  0.27 0.04 0  0.28 0.04 0  0.29 0.04 0  0.3 0.04 0  0.31 0.04 0  0.32 0.04 0  0.33 0.04 0  0.34 0.04 0  0.35 0.04 0  0.36 0.04 0  0.37 0.04 0  0.38 0.04 0  0.39 0.04 0  0.4 0.04 0  0.41 0.04 0  0.42 0.04 0  0.43 0.04 0  0.44 0.04 0  0.45 0.04 0  0.46 0.04 0  0.47 0.04 0  0.48 0.04 0  0.49 0.04 0  0.5 0.04 0  0.51 0.04 0  0.52 0.04 0  0.53 0.04 0  0.54 0.04 0  0.55 0.04 0  0.5600000000000001 0.04 0  0.57 0.04 0  0.58 0.04 0  0.59 0.04 0  0.6 0.04 0  0.61 0.04 0  0.62 0.04 0  0.63 0.04 0  0.64 0.04 0  0.65 0.04 0  0.66 0.04 0  0.67 0.04 0  0.68 0.04 0  0.6899999999999999 0.04 0  0.7 0.04 0  0.71 0.04 0  0.72 0.04 0  0.73 0.04 0  0.74 0.04 0  0.75 0.04 0  0.76 0.04 0  0.77 0.04 0  0.78 0.04 0  0.79 0.04 0  0.8 0.04 0  0.8100000000000001 0.04 0  0.82 0.04 0  0.83 0.04 0  0.84 0.04 0  0.85 0.04 0  0.86 0.04 0  0.87 0.04 0  0.88 0.04 0  0.89 0.04 0  0.9 0.04 0  0.91 0.04 0  0.92 0.04 0  0.93 0.04 0  0.9399999999999999 0.04 0  0.95 0.04 0  0.96 0.04 0  0.97 0.04 0  0.98 0.04 0  0.99 0.04 0  1 0.04 0  0 0.05 0  0.01 0.05 0  0.02 0.05 0  0.03 0.05 0  0.04 0.05 0  0.05 0.05 0  0.06 0.05 0  0.07000000000000001 0.05 0  0.08 0.05 0  0.09 0.05 0  0.1 0.05 0  0.11 0.05 0  0.12 0.05 0  0.13 0.05 0  0.14 0.05 0  0.15 0.05 0  0.16 0.05 0  0.17 0.05 0  0.18 0.05 0  0.19 0.05 0  0.2 0.05 0  0.21 0.05 0  0.22 0.05 0  0.23 0.05 0  0.24 0.05 0  0.25 0.05 0  0.26 0.05 0  0.27 0.05 0  0.28 0.05 0  0.29 0.05 0  0.3 0.05 0  0.31 0.05 0  0.32 0.05 0  0.33 0.05 0  0.34 0.05 0  0.35 0.05 0  0.36 0.05 0  0.37 0.05 0  0.38 0.05 0  0.39 0.05 0  0.4 0.05 0  0.41 0.05 0  0.42 0.05 0  0.43 0.05 0  0.44 0.05 0  0.45 0.05 0  0.46 0.05 0  0.47 0.05 0  0.48 0.05 0  0.49 0.05 0  0.5 0.05 0  0.51 0.05 0  0.52 0.05 0  0.53 0.05 0  0.54 0.05 0  0.55 0.05 0  0.5600000000000001 0.05 0  0.57 0.05 0  0.58 0.05 0  0.59 0.05 0  0.6 0.05 0  0.61 0.05 0  0.62 0.05 0  0.63 0.05 0  0.64 0.05 0  0.65 0.05 0  0.66 0.05 0  0.67 0.05 0  0.68 0.05 0  0.6899999999999999 0.05 0  0.7 0.05 0  0.71 0.05 0  0.72 0.05 0  0.73 0.05 0  0.74 0.05 0  0.75 0.05 0  0.76 0.05 0  0.77 0.05 0  0.78 0.05 0  0.79 0.05 0  0.8 0.05 0  0.8100000000000001 0.05 0  0.82 0.05 0  0.83 0.05 0  0.84 0.05 0  0.85 0.05 0  0.86 0.05 0  0.87 0.05 0  0.88 0.05 0  0.89 0.05 0  0.9 0.05 0  0.91 0.05 0  0.92 0.05 0  0.93 0.05 0  0.9399999999999999 0.05 0  0.95 0.05 0  0.96 0.05 0  0.97 0.05 0  0.98 0.05 0  0.99 0.05 0  1 0.05 0  0 0.06 0  0.01 0.06 0  0.02 0.06 0  0.03 0.06 0  0.04 0.06 0  0.05 0.06 0  0.06 0.06 0  0.07000000000000001 0.06 0  0.08 0.06 0  0.09 0.06 0  0.1 0.06 0  0.11 0.06 0  0.12 0.06 0  0.13 0.06 0  0.14 0.06 0  0.15 0.06 0  0.16 0.06 0  0.17 0.06 0  0.18 0.06 0  0.19 0.06 0  0.2 0.06 0  0.21 0.06 0  0.22 0.06 0  0.23 0.06 0  0.24 0.06 0  0.25 0.06 0  0.26 0.06 0  0.27 0.06 0  0.28 0.06 0  0.29 0.06 0  0.3 0.06 0  0.31 0.06 0  0.32 0.06 0  0.33 0.06 0  0.34 0.06 0  0.35 0.06 0  0.36 0.06 0  0.37 0.06 0  0.38 0.06 0  0.39 0.06 0  0.4 0.06 0  0.41 0.06 0  0.42 0.06 0  0.43 0.06 0  0.44 0.06 0  0.45 0.06 0  0.46 0.06 0  0.47 0.06 0  0.48 0.06 0  0.49 0.06 0  0.5 0.06 0  0.51 0.06 0  0.52 0.06 0  0.53 0.06 0  0.54 0.06 0  0.55 0.06 0  0.5600000000000001 0.06 0  0.57 0.06 0  0.58 0.06 0  0.59 0.06 0  0.6 0.06 0  0.61 0.06 0  0.62 0.06 0  0.63 0.06 0  0.64 0.06 0  0.65 0.06 0  0.66 0.06 0  0.67 0.06 0  0.68 0.06 0  0.6899999999999999 0.06 0  0.7 0.06 0  0.71 0.06 0  0.72 0.06 0  0.73 0.06 0  0.74 0.06 0  0.75 0.06 0  0.76 0.06 0  0.77 0.06 0  0.78 0.06 0  0.79 0.06 0  0.8 0.06 0  0.8100000000000001 0.06 0  0.82 0.06 0  0.83 0.06 0  0.84 0.06 0  0.85 0.06 0  0.86 0.06 0  0.87 0.06 0  0.88 0.06 0  0.89 0.06 0  0.9 0.06 0  0.91 0.06 0  0.92 0.06 0  0.93 0.06 0  0.9399999999999999 0.06 0  0.95 0.06 0  0.96 0.06 0  0.97 0.06 0  0.98 0.06 0  0.99 0.06 0  1 0.06 0  0 0.07000000000000001 0  0.01 0.07000000000000001 0  0.02 0.07000000000000001 0  0.03 0.07000000000000001 0  0.04 0.07000000000000001 0  0.05 0.07000000000000001 0  0.06 0.07000000000000001 0  0.07000000000000001 0.07000000000000001 0  0.08 0.07000000000000001 0  0.09 0.07000000000000001 0  0.1 0.07000000000000001 0  0.11 0.07000000000000001 0  0.12 0.07000000000000001 0  0.13 0.07000000000000001 0  0.14 0.07000000000000001 0  0.15 0.07000000000000001 0  0.16 0.07000000000000001 0  0.17 0.0700
[...]
<PointData  Scalars="Indicator Function"> 
<DataArray  type="Float64"  Name="Indicator Function"  format="ascii">-6.9691938837449753e-19  6.0574797125126632e-18  4.1495518453172598e-17  1.1285743881119209e-18  9.5952372607982673e-17  -2.5960863148295731e-19  -1.7333369499485123e-33  9.2118696435428468e-17  2.1671488836271755e-16  -9.6296497219361793e-34  8.6129995287842163e-17  6.1294132551454095e-17  0.0000000000000000e+00  -1.0568656104379938e-18  1.2293490280049577e-16  -2.1081892673187250e-18  -1.8627992669853854e-18  2.1283335760916956e-16  -9.0336268680355846e-19  -1.0431522708988353e-18  8.0460161593143608e-16  -1.5443560031224780e-18  -7.7217800156123428e-19  1.4250625916961965e-16  -2.5273649323052862e-19  -9.0841011580812801e-19  -1.0639118248098569e-18  -5.0418823932573256e-19  1.5597628298595824e-17  -7.9001552826616330e-19  -1.9259766625790629e-18  -9.6298833128953145e-19  -9.4490458775173018e-19  -1.1602601188776697e-18  3.8800578884149893e-17  -3.8397176471652120e-19  -2.2002342630345747e-18  -4.5651917133831383e-18  -4.9552274569577916e-18  -3.8163922309186152e-18  8.4570843879727937e-16  3.8518598887744717e-34  -1.2847281979995482e-18  -9.1020059698153213e-19  -1.1374935235751409e-18  -5.6874676178754474e-19  1.5321636486793750e-16  -5.8288325931397804e-19  -1.9599932690075068e-19  -4.6653370469991248e-19  -2.3326685234995629e-19  -3.0427845768641234e-19  -7.1604868307343029e-20  -4.5814540094894882e-19  -2.1862340506563529e-19  8.4259435066941569e-34  1.1093356479670479e-31  -1.5046327690525280e-36  -1.1284745767893960e-36  1.8807909613156600e-37  -2.3901319504876456e-22  -1.8807909613156600e-37  -1.3668244557940115e-21  -4.3734174219450048e-22  -3.7777296921508428e-21  -5.7987188611621496e-21  -2.1807243299863859e-20  -8.3043206491258642e-21  2.1369073341968072e-17  -5.8154437741055656e-20  -1.9976366442714310e-20  -5.1271477473663623e-21  -1.6605278304782810e-22  -6.0641087325202590e-20  -2.0740245442900533e-19  -1.2590456311642665e-19  -3.6840817881078625e-20  -7.3484495794878811e-20  -7.2862534829168355e-20  -6.1440250456228813e-20  -3.2172770775460432e-20  1.4568640000045353e-17  -1.4465162658841545e-20  -4.7843113565901931e-20  -4.5708407286730197e-20  -3.6707418825953828e-20  -2.3398500947057843e-20  -1.0026720039983549e-20  -3.5227198312025480e-21  -4.8099179230961467e-22  -9.4039548065783001e-38  -3.9443574256460857e-22  -8.6721972420899168e-22  1.4202610901689426e-20  -1.0767173801261750e-21  -9.5236582541310338e-22  -7.0023755097285036e-22  -5.2864956214902889e-22  -2.0169845395284929e-22  5.8774717541114375e-39  2.3509887016445750e-38  1.9259299443872359e-34  1.2554583591162662e-02  3.8618028366119266e-02  1.1808213632927377e-02  1.0214922818720927e-02  7.2465314480373239e-03  4.6766933440352439e-03  1.2774901846820778e-03  2.4219244496192827e-02  3.0309569800849111e-02  6.3063802126465604e-04  4.1874595445444036e-02  3.4634729604349707e-03  3.8077596554793397e-02  7.3508120159563161e-03  4.7895121623918673e-02  3.8558841727265578e-02  1.4277787475012876e-02  3.2547070877351321e-02  3.7583521428084930e-02  2.5649964601341706e-02  3.7727456543391005e-02  2.7820644480759125e-02  2.7595729357098933e-03  9.1057918138874767e-03  3.2728923672424581e-02  3.8331463182149882e-02  1.8165295734015281e-02  3.7527255828841131e-03  9.9822085542208110e-03  9.2405502777551888e-03  3.4695311119661357e-02  3.3366679429556824e-02  3.3854808241904304e-04  2.0732114114911791e-02  1.3834040771984928e-02  1.1649360756717035e-02  3.3811216450162704e-02  6.5333574571987352e-02  5.6598654828770946e-02  4.0450683101873448e-02  2.1876280687274170e-02  1.6318141312865670e-04  2.3143605735132532e-02  4.8249134100274461e-03  2.0491261635637425e-02  2.8308724665694080e-02  4.1302648369567737e-03  1.0500291317787725e-02  3.5308099823803552e-03  8.4043240745692114e-03  5.8031122575973454e-03  2.5798372658149098e-03  2.3108334225439408e-03  7.0977971167087974e-03  3.8947058399785457e-04  1.6049286796984475e-03  6.5778425771938502e-04  2.5129319486145979e-04  1.2887360294572373e-04  6.7647132101595760e-05  1.8182887795854308e-05  4.9245040878358316e-05  1.9913321704003085e-06  1.9313069058467284e-05  6.8053528135507963e-05  1.8729937629848492e-04  2.9919468304773591e-04  3.3764581752467932e-05  6.5578552964247710e-04  7.1972445174099708e-04  1.8472496547610102e-04  5.9826820148644231e-06  2.5214132639318277e-04  1.9665527567557248e-03  2.7529540875509163e-03  8.9161793036607784e-04  6.6366517472499990e-04  9.9194640415479975e-04  8.1660153674624947e-04  6.9850838786776322e-04  2.3031891996947980e-04  1.8625513834639743e-04  5.3213467326423426e-04  5.9579757707844386e-04  5.2551067555764582e-04  3.9850673320637048e-04  2.6187796095268270e-04  1.5317368932351447e-04  7.7716767406446074e-05  3.0843819157537445e-05  5.1647233337475537e-06  7.1055226529423051e-06  1.2069680380712762e-05  1.3405498411837262e-05  1.2693666761759679e-05  1.0809464124923548e-05  8.3930666075669376e-06  5.5685199429182649e-06  1.3429441088842664e-06  -1.8028827396948020e-23  -5.2421879318467683e-19  5.7809125775409023e-03  5.4152069178035576e-03  1.5672083203005765e-02  1.5624094314400141e-02  3.6325867737886444e-02  1.2065898124265739e-04  2.8614986913625854e-02  1.6538408748382850e-02  2.3409888239695701e-02  5.5768381702291259e-02  4.5606193867171990e-02  6.3132381797879854e-03  6.0235598145141782e-02  7.4598745718678028e-02  6.7272356413322285e-02  7.5360606139575374e-03  7.0271225243221810e-02  5.0392310511650469e-03  1.7299954631565424e-02  4.8602345754858983e-03  5.0548689326487289e-02  4.9788380992082916e-02  2.4837759383178670e-02  1.7472549337527157e-03  1.1029850031901951e-02  4.7276631436206145e-03  5.2018724780628642e-04  2.0107207262802143e-02  7.8644658060100167e-03  5.9354134360625893e-02  5.1773138624207946e-02  1.5278484269396970e-02  3.4655590001808324e-02  3.3744098756572583e-02  2.0498469484861396e-02  1.1733472697371317e-02  4.4415616645514633e-02  6.5119867107658727e-02  6.3377398006919106e-02  1.0048422654446973e-01  3.3957003728546827e-02  1.4730948733944147e-02  3.2404754618015150e-03  1.7891487918490438e-02  1.7131216956279397e-02  1.8647122907994747e-02  1.7519868540468711e-04  2.7028036401117467e-02  1.6687374737197114e-02  1.6704828722571285e-02  4.2341709420119509e-03  3.4287726536949225e-03  4.9260860155334726e-03  1.4575573959980732e-02  1.7457796250632664e-03  4.7769664328244988e-04  2.0118852895590305e-03  6.0596755562269467e-04  2.9238339740159840e-04  1.3442809086544613e-04  8.1656255917596880e-05  3.9827223107487410e-05  4.6871937545918707e-05  2.5295276196981604e-05  4.9608035331420742e-05  1.0801299960638591e-04  5.1053139442582148e-04  8.6135244065979681e-05  2.6261097321195621e-04  1.3675608247120518e-03  2.7374860233074033e-04  5.2460601344664608e-04  1.9347086683237940e-04  1.4855176709431845e-03  3.9937491385663177e-03  2.7863134536938550e-03  5.5134910083699036e-04  1.4574377081951653e-03  1.1861265115494547e-03  9.7424292867546222e-04  6.8482343616298928e-04  9.7137684515548805e-05  5.9363003185005194e-04  9.1686729811172815e-04  7.8692631347898449e-04  6.1996081092090185e-04  4.3638312746564995e-04  2.7626232159972471e-04  1.5564580895598853e-04  7.3454530991265258e-05  2.4171117391559699e-05  1.3758518638576548e-06  1.2859379398843265e-05  1.7199931241218459e-05  1.8019436879091875e-05  1.6498896366131311e-05  1.3489551269163955e-05  1.0644545375990916e-05  5.0700116217019898e-06  1.2664898184444050e-21  9.6296497219361793e-34  2.6701011426310324e-02  1.8263516695892205e-02  6.6400686671927361e-02  2.6840287695523643e-02  7.9901514832844914e-03  1.1388621950677830e-02  2.3642339169024220e-02  1.1831716529126179e-02  3.9459908857872456e-02  9.7134285421850444e-02  5.6691203206516390e-02  6.4402362091763976e-02  6.2832197643283613e-02  4.0146916064154554e-02  3.4008106926037604e-02  1.2300778115652868e-01  3.5997213954364921e-02  2.2637113252505604e-02  4.4408853762905133e-02  8.6943928585197769e-02  9.0561854733797478e-02  1.0856941504294307e-01  1.0513039199544559e-01  3.6597274657655297e-02  7.5487544885553311e-03  6.1577952119012694e-02  1.0718068583814619e-01  5.7970499545957212e-02  3.4202325569565625e-03  1.0897054801492731e-02  3.9991383153754709e-02  8.4621120816547560e-02  8.1754538121706286e-02  1.9427588649887351e-02  4.2599472040428125e-02  2.1418912696731296e-02  3.3653263023237769e-02  6.7543246092146750e-02  1.1143206445576735e-01  5.8744743766456123e-02  6.2247506639261915e-02  3.0568560592110435e-02  1.7299793223891597e-02  3.8589963451117273e-02  6.8368070866663081e-03  5.2603673992328376e-02  8.1340315350551140e-02  3.1791612264705817e-02  3.1890426055212931e-02  2.1188599796470312e-02  2.5607479410914648e-02  1.7459858420890609e-02  7.5334553082990661e-04  4.1591738642019491e-03  1.6584880137886979e-02  5.1132267124634669e-03  2.3149078543061329e-03  1.5666053802163894e-03  5.4272320022729975e-04  3.1745206317171479e-04  1.7047131867705228e-04  7.2136039292635933e-05  1.2327538293311688e-04  9.3298286421588419e-06  6.7492165954182861e-05  1.2115966887023872e-04  2.6895903725658192e-04  5.9352199871473001e-04  2.3791911572305455e-04  1.1235019686249550e-03  1.3600392945305119e-03  6.8674738014560665e-04  1.7489506750713063e-04  2.1107096028623513e-04  3.4640243406116752e-03  4.8310607018919724e-03  8.1221335780617672e-04  1.9048452712635223e-03  1.6292563757238840e-03  9.6947028878678198e-04  9.5951183958990890e-04  2.7827261597897619e-04  2.3621748601677838e-04  1.0584206990587265e-03  1.0448024018555144e-03  7.7060193189449190e-04  5.5682370914174545e-04  3.7538508204596670e-04  2.3460862606381218e-04  1.2950052612348888e-04  5.8598313507517470e-05  1.7576140529865758e-05  3.0597627373327939e-06  1.2349949044284610e-05  1.5948365513098186e-05  1.6250827601362114e-05  1.4514352162980950e-05  1.1587292722746256e-05  8.0437769885504146e-06  -1.2695338988880705e-36  -3.9687601639856023e-19  2.3672532306192089e-02  2.4239226726306295e-02  3.5545393983954586e-02  8.6829850685581286e-03  2.1538580428080222e-02  3.4973627821374177e-02  3.8555331216532401e-02  3.8116017899071319e-02  2.8398347691273310e-02  3.7343825579992172e-03  3.2831863698525747e-02  6.9419468376390611e-02  6.9057766753889999e-02  5.7578359868607924e-02  1.5498013642985453e-01  3.2813868581528717e-02  1.1384925204680088e-02  9.3995636268008012e-02  2.5485680329705895e-02  4.8777301342316927e-02  4.0601776517660122e-02  2.5260799111039501e-02  3.4350325050664716e-02  3.2757041396270095e-03  4.3124073641528215e-03  2.0794268177477933e-02  3.9212975750761561e-02  4.0773074714216338e-02  4.1968100911794939e-02  2.5298213257225470e-02  7.4450068389899524e-02  7.9701113089548414e-02  4.1829707687632132e-02  9.8257464245988510e-02  2.1451543857485836e-02  1.5310516143421833e-02  1.8899400980513115e-02  5.5654969634801363e-02  7.5577015284770274e-02  9.0638328458437015e-02  1.1554840424360079e-01  1.2047989518346307e-02  2.6567474370417243e-02  3.5328870887050626e-03  3.2361223647827314e-02  3.0787573062064463e-02  2.6994660241584531e-04  2.9221816620706945e-02  1.9877882878603204e-02  2.0451293868763643e-02  1.6710242899427179e-02  9.4932222898298346e-04  1.0276502863160611e-02  5.0148786738255140e-03  2.2317377771270019e-02  3.2759007394300536e-03  4.0096672025206901e-03  2.9258836636186481e-03  9.9353827178928896e-04  5.0150974590963042e-04  2.9171575139846109e-04  2.0281456744644966e-04  1.1514864020707121e-04  1.3976351437997896e-04  6.7367200384819192e-05  4.9427323352092449e-07  1.0947114697100924e-04  6.3141411227581230e-04  1.1248037212425675e-04  1.0198202456587666e-04  1.9021298669046735e-03  3.9569900261387776e-04  1.0567105045938255e-03  3.6937970675035174e-04  1.6537900553192483e-03  5.3979012411138182e-03  3.7339676034479148e-03  1.4754168616519492e-03  2.4256208901257755e-03  1.3849010677807686e-03  8.8314133578318191e-04  7.1514967694303027e-04  6.7137260628810381e-05  7.0183234617963834e-04  1.3040970206734705e-03  9.9562222711771313e-04  6.8001588627495801e-04  4.5896104278792313e-04  2.9908066692155538e-04  1.8172670108229386e-04  9.6167982272283127e-05  4.1201057798173956e-05  1.1272296747165511e-05  3.2079298413820838e-06  9.8309811070952062e-06  1.2432400940467334e-05  1.2009694961027800e-05  9.6111942699344644e-06  7.1152256547617954e-06  1.2497300796113966e-21  -2.0892736645080251e-18  6.4895577346504377e-02  5.1745151172303813e-02  1.0459316933024971e-02  7.3650985339143382e-02  6.7258543300252438e-02  1.2561015530675367e-02  1.2442464082880347e-02  1.8381981875035768e-02  4.2378969015394667e-02  3.0396694787026085e-02  1.0358562548295377e-01  1.1355820073165135e-01  2.0234112576884150e-02  6.9259713275475657e-02  1.6373191605266391e-02  4.6862541550898073e-03  1.5724963936770320e-01  5.5289066770856593e-03  3.7636725259133551e-02  1.8964058043031622e-02  8.0765349451528287e-02  1.0590820012060896e-01  1.3921725146757358e-01  1.4778113162937045e-01  7.1638871959316508e-02  1.0581484762012873e-02  4.4006340763277127e-02  1.1836966611652525e-01  7.6266055678789968e-02  1.5492050669055740e-02  2.7249916614954319e-02  8.0438915652953177e-02  1.3008042156562666e-01  7.6807701177118826e-02  3.3044971017885351e-03  6.1824677462607419e-02  2.2709869084135251e-02  5.4024934507979509e-02  8.7419536674280998e-02  1.1545695214989743e-01  4.9575352870923892e-02  8.8560001560645848e-02  1.8708916363704541e-02  4.6205073302276765e-02  3.5768827559360915e-02  1.2810174141273467e-02  6.8483899757747504e-02  9.9342109611658749e-02  4.1367554776345149e-02  4.5138784109178424e-02  3.7832649236603316e-02  3.6906819125241491e-02  2.3052379043861964e-02  1.6049698256060253e-03  3.1997900005797659e-03  2.5323774990745423e-02  8.7589953495761687e-03  6.3090094898654104e-04  2.3002965954291876e-03  6.8789264087076472e-04  4.4027083501890768e-04  2.6530724234933537e-04  1.6012893424366203e-04  2.0373708492407529e-04  8.1593640923983499e-05  1.3481304732389647e-04  8.4378056595993772e-05  2.6559380361815374e-04  6.9850616096187046e-04  3.7291419267145948e-04  1.1760598128939749e-03  1.7790257781083875e-03  8.6422027780769630e-04  4.1911384741617888e-04  4.1943054484729941e-05  3.9343714349350627e-03  6.0315644770141614e-03  1.0148377455117871e-03  2.8635538820468032e-03  2.2239757392416722e-03  1.0116253359338558e-03  9.1074327215296606e-04  2.2434372537798040e-04  8.5068087697882938e-05  1.2161873870573973e-03  1.2996035079391375e-03  8.6176034636292179e-04  5.6259643307707144e-04  3.6816068323330503e-04  2.3425436578148226e-04  1.3503792669285298e-04  6.5558403839684808e-05  2.4701850607456405e-05  4.3170764030135396e-06  4.8951822504834770e-06  8.8074713134079103e-06  9.5918046311496307e-06  8.0388870834762266e-06  4.7953926782777114e-06  -2.6619776817713928e-22  -8.6425904900698195e-19  5.0180617149189075e-02  2.0416347738124382e-02  1.5125233281291688e-02  6.6360778009773733e-02  3.0660301875380332e-02  1.4704084426933540e-02  1.5793840689507992e-02  5.3420270467183395e-02  2.5173081775444011e-02  1.8593894406072280e-02  1.3510653347438870e-02  1.5718914851696564e-02  1.4764452608720186e-02  1.0153813934448166e-01  8.0372217472336090e-03  1.5516809781268215e-01  4.0510150415703893e-03  4.8880411849622253e-02  8.2466643916619856e-02  2.1404351150595295e-02  4.5879648451547919e-02  8.0295311845031761e-02  1.3384383295729080e-02  7.4852057019536974e-03  5.6572128271575019e-02  2.0835740987338348e-02  6.5229160083932168e-03  5.9851904920906855e-02  9.1768704540116847e-02  6.0787308388043401e-02  2.1104641913506451e-02  6.7495956207309540e-02  6.6202125756177496e-02  6.6853393971686575e-02  1.3737694531285380e-01  7.4393029461240030e-04  2.0775480573322850e-02  1.1456507858472404e-02  6.1444326310389076e-02  9.3163008434024738e-02  1.1403745760137909e-01  9.9081028991439016e-02  8.5948898373483327e-03  2.5271285253932348e-02  8.7725231721833240e-03  4.3652064358653687e-02  4.3826366550796587e-02  2.2431007537490406e-02  6.5975306880888013e-02  9.0001089103525429e-04  9.0775915086573709e-03  4.2556090597985416e-03  1.2016822456411598e-02  1.9245244196593219e-02  3.5105295874958403e-03  2.4019609416659888e-02  8.4015123602170141e-03  9.1237028118728702e-03  2.9262236178404732e-03  1.4516018851642250e-03  5.7500839825386707e-04  3.3824006289507875e-04  2.2541405699973171e-04  1.3830736723354455e-04  1.7273254059634442e-04  9.4038920443666093e-05  3.5809937733376784e-05  1.1185071998429311e-04  6.6654135826315199e-04  1.3942060138812413e-04  1.9100568221881281e-05  2.1160816593577287e-03  5.9285551401305585e-04  1.2763201734543033e-03  3.7206610473926874e-04  1.6218949193037306e-03  6.1152712863709619e-03  4.4947928274965011e-03  1.7950987009083699e-03  3.1973458377238606e-03  1.6600900479132672e-03  8.4287479271880138e-04  6.7634263425341002e-04  1.3639194542283215e-04  6.6391821687826686e-04  1.5015286437150845e-03  1.1631369068768936e-03  7.1000832231579117e-04  4.4685335741470204e-04  2.9033698137180688e-04  1.8126507774916819e-04  9.8543131836233277e-05  4.3273563189416270e-05  1.3278780864040773e-05  6.4020676039268414e-07  6.6224473828830035e-06  8.6788673962474225e-06  7.6671382741853685e-06  4.3584587730659671e-06  -2.4194306408686686e-22  -3.4736459080278010e-19  1.7204171558633050e-02  2.3155497429321662e-02  1.1085503449033596e-03  5.2328926311648885e-02  3.8203189839326468e-02  7.7048759903742936e-02  2.0662832551400535e-03  3.4598877153700497e-02  3.6441700352536871e-04  5.1477107814416563e-02  2.0836241899456084e-02  7.5318257307639899e-02  8.9999481519912577e-02  4.7728429787558830e-03  1.7573830927271248e-02  2.5262019798046268e-02  6.0621092048464040e-02  1.3024402259541340e-01  7.3664164098806622e-03  3.9056899507280640e-02  2.5228543482960237e-03  5.0755020359773216e-02  6.8457029491901203e-02  1.1707936777707469e-01  1.1941049850659032e-01  5.4239117278567929e-02  1.5308528979616315e-02  2.9882312390050000e-02  8.0281921643345744e-02  5.6427901572302923e-02  3.5727589920439229e-02  5.4820019494184094e-02  8.8099342524811830e-02  1.5377937258113666e-01  4.7764763732256577e-02  4.7197552010655931e-02  5.9631292672946527e-02  1.8351378806277793e-02  6.6738028568088567e-02  9.5495410951524501e-02  1.1194140260895648e-01  6.5743048384947156e-02  9.8206140394553554e-02  6.3796990069023740e-04  5.9756577105634832e-02  3.1195078877969448e-02  9.0274835319660296e-03  7.4808243048752499e-02  8.3495322121048099e-02  1.6467204224133586e-02  3.4876660439942815e-02  3.7304275418875397e-02  3.4269646825001714e-02  1.8612810430652545e-02  7.8488606352977303e-03  4.2688610650916149e-03  2.9830290263062598e-02  8.0382800682528774e-03  3.3703327709235331e-03  2.7235083595162400e-03  8.0387155282807775e-04  4.3668641106975250e-04  2.3679847171165813e-04  1.1792232622088972e-04  1.6110416894300964e-04  5.2059754280551542e-05  9.8569214560390150e-05  1.0533953671968890e-04  3.4757015406369497e-04  7.3883201197716994e-04  3.4472725262904954e-04  1.2295166826862068e-03  1.9946418438654997e-03  8.0625569579309087e-04  5.3438696603468451e-04  8.2640483969902804e-05  4.1883801491258794e-03  6.7359149921000123e-03  1.3333197270348066e-03  3.4103678296326587e-03  2.8006150036294121e-03  1.1392438017427181e-03  8.2814235747679852e-04  1.6136017827076091e-04  2.8651354926192776e-05  1.2548711873402681e-03  1.5021055010619173e-03  9.7944363304370056e-04  5.7124557212075329e-04  3.5343450340821921e-04  2.2708757693179512e-04  1.3646740164360046e-04  6.9528275002809074e-05  2.8133833349889092e-05  6.9578662468459755e-06  2.6817203037483118e-06  6.7409185546322189e-06  7.3122138304730955e-06  4.9322182006520891e-06  -1.6885090392357581e-22  -6.5073655028474224e-19  6.2575641668044203e-03  1.3545278006320577e-02  1.5771362240035662e-02  3.1357642242929529e-02  2.4590229251556021e-02  6.4324503053984503e-02  4.6371649458090422e-03  1.8927763268190014e-03  4.3224023772935265e-02  1.8193352766866226e-02  1.0817748725382216e-02  7.3028890491512186e-03  1.7313660560493410e-02  3.4458324497809757e-02  6.8127035115990150e-02  7.4174562199775243e-03  1