<?xml version="1.0"?>
<VTKFile type="UnstructuredGrid"  version="0.1"  >
<UnstructuredGrid>
<Piece  NumberOfPoints="10201" NumberOfCells="20000">
<Points>
<DataArray  type="Float64"  NumberOfComponents="3"  format="ascii">0 0 0  0.01 0 0  0.02 0 0  0.03 0 0  0.04 0 0  0.05 0 0  0.06 0 0  0.07000000000000001 0 0  0.08 0 0  0.09 0 0  0.1 0 0  0.11 0 0  0.12 0 0  0.13 0 0  0.14 0 0  0.15 0 0  0.16 0 0  0.17 0 0  0.18 0 0  0.19 0 0  0.2 0 0  0.21 0 0  0.22 0 0  0.23 0 0  0.24 0 0  0.25 0 0  0.26 0 0  0.27 0 0  0.28 0 0  0.29 0 0  0.3 0 0  0.31 0 0  0.32 0 0  0.33 0 0  0.34 0 0  0.35 0 0  0.36 0 0  0.37 0 0  0.38 0 0  0.39 0 0  0.4 0 0  0.41 0 0  0.42 0 0  0.43 0 0  0.44 0 0  0.45 0 0  0.46 0 0  0.47 0 0  0.48 0 0  0.49 0 0  0.5 0 0  0.51 0 0  0.52 0 0  0.53 0 0  0.54 0 0  0.55 0 0  0.5600000000000001 0 0  0.57 0 0  0.58 0 0  0.59 0 0  0.6 0 0  0.61 0 0  0.62 0 0  0.63 0 0  0.64 0 0  0.65 0 0  0.66 0 0  0.67 0 0  0.68 0 0  0.6899999999999999 0 0  0.7 0 0  0.71 0 0  0.72 0 0  0.73 0 0  0.74 0 0  0.75 0 0  0.76 0 0  0.77 0 0  0.78 0 0  0.79 0 0  0.8 0 0  0.8100000000000001 0 0  0.82 0 0  0.83 0 0  0.84 0 0  0.85 0 0  0.86 0 0  0.87 0 0  0.88 0 0  0.89 0 0  0.9 0 0  0.91 0 0  0.92 0 0  0.93 0 0  0.9399999999999999 0 0  0.95 0 0  0.96 0 0  0.97 0 0  0.98 0 0  0.99 0 0  1 0 0  0 0.01 0  0.01 0.01 0  0.02 0.01 0  0.03 0.01 0  0.04 0.01 0  0.05 0.01 0  0.06 0.01 0  0.07000000000000001 0.01 0  0.08 0.01 0  0.09 0.01 0  0.1 0.01 0  0.11 0.01 0  0.12 0.01 0  0.13 0.01 0  0.14 0.01 0  0.15 0.01 0  0.16 0.01 0  0.17 0.01 0  0.18 0.01 0  0.19 0.01 0  0.2 0.01 0  0.21 0.01 0  0.22 0.01 0  0.23 0.01 0  0.24 0.01 0  0.25 0.01 0  0.26 0.01 0  0.27 0.01 0  0.28 0.01 0  0.29 0.01 0  0.3 0.01 0  0.31 0.01 0  0.32 0.01 0  0.33 0.01 0  0.34 0.01 0  0.35 0.01 0  0.36 0.01 0  0.37 0.01 0  0.38 0.01 0  0.39 0.01 0  0.4 0.01 0  0.41 0.01 0  0.42 0.01 0  0.43 0.01 0  0.44 0.01 0  0.45 0.01 0  0.46 0.01 0  0.47 0.01 0  0.48 0.01 0  0.49 0.01 0  0.5 0.01 0  0.51 0.01 0  0.52 0.01 0  0.53 0.01 0  0.54 0.01 0  0.55 0.01 0  0.5600000000000001 0.01 0  0.57 0.01 0  0.58 0.01 0  0.59 0.01 0  0.6 0.01 0  0.61 0.01 0  0.62 0.01 0  0.63 0.01 0  0.64 0.01 0  0.65 0.01 0  0.66 0.01 0  0.67 0.01 0  0.68 0.01 0  0.6899999999999999 0.01 0  0.7 0.01 0  0.71 0.01 0  0.72 0.01 0  0.73 0.01 0  0.74 0.01 0  0.75 0.01 0  0.76 0.01 0  0.77 0.01 0  0.78 0.01 0  0.79 0.01 0  0.8 0.01 0  0.8100000000000001 0.01 0  0.82 0.01 0  0.83 0.01 0  0.84 0.01 0  0.85 0.01 0  0.86 0.01 0  0.87 0.01 0  0.88 0.01 0  0.89 0.01 0  0.9 0.01 0  0.91 0.01 0  0.92 0.01 0  0.93 0.01 0  0.9399999999999999 0.01 0  0.95 0.01 0  0.96 0.01 0  0.97 0.01 0  0.98 0.01 0  0.99 0.01 0  1 0.01 0  0 0.02 0  0.01 0.02 0  0.02 0.02 0  0.03 0.02 0  0.04 0.02 0  0.05 0.02 0  0.06 0.02 0  0.07000000000000001 0.02 0  0.08 0.02 0  0.09 0.02 0  0.1 0.02 0  0.11 0.02 0  0.12 0.02 0  0.13 0.02 0  0.14 0.02 0  0.15 0.02 0  0.16 0.02 0  0.17 0.02 0  0.18 0.02 0  0.19 0.02 0  0.2 0.02 0  0.21 0.02 0  0.22 0.02 0  0.23 0.02 0  0.24 0.02 0  0.25 0.02 0  0.26 0.02 0  0.27 0.02 0  0.28 0.02 0  0.29 0.02 0  0.3 0.02 0  0.31 0.02 0  0.32 0.02 0  0.33 0.02 0  0.34 0.02 0  0.35 0.02 0  0.36 0.02 0  0.37 0.02 0  0.38 0.02 0  0.39 0.02 0  0.4 0.02 0  0.41 0.02 0  0.42 0.02 0  0.43 0.02 0  0.44 0.02 0  0.45 0.02 0  0.46 0.02 0  0.47 0.02 0  0.48 0.02 0  0.49 0.02 0  0.5 0.02 0  0.51 0.02 0  0.52 0.02 0  0.53 0.02 0  0.54 0.02 0  0.55 0.02 0  0.5600000000000001 0.02 0  0.57 0.02 0  0.58 0.02 0  0.59 0.02 0  0.6 0.02 0  0.61 0.02 0  0.62 0.02 0  0.63 0.02 0  0.64 0.02 0  0.65 0.02 0  0.66 0.02 0  0.67 0.02 0  0.68 0.02 0  0.6899999999999999 0.02 0  0.7 0.02 0  0.71 0.02 0  0.72 0.02 0  0.73 0.02 0  0.74 0.02 0  0.75 0.02 0  0.76 0.02 0  0.77 0.02 0  0.78 0.02 0  0.79 0.02 0  0.8 0.02 0  0.8100000000000001 0.02 0  0.82 0.02 0  0.83 0.02 0  0.84 0.02 0  0.85 0.02 0  0.86 0.02 0  0.87 0.02 0  0.88 0.02 0  0.89 0.02 0  0.9 0.02 0  0.91 0.02 0  0.92 0.02 0  0.93 0.02 0  0.9399999999999999 0.02 0  0.95 0.02 0  0.96 0.02 0  0.97 0.02 0  0.98 0.02 0  0.99 0.02 0  1 0.02 0  0 0.03 0  0.01 0.03 0  0.02 0.03 0  0.03 0.03 0  0.04 0.03 0  0.05 0.03 0  0.06 0.03 0  0.07000000000000001 0.03 0  0.08 0.03 0  0.09 0.03 0  0.1 0.03 0  0.11 0.03 0  0.12 0.03 0  0.13 0.03 0  0.14 0.03 0  0.15 0.03 0  0.16 0.03 0  0.17 0.03 0  0.18 0.03 0  0.19 0.03 0  0.2 0.03 0  0.21 0.03 0  0.22 0.03 0  0.23 0.03 0  0.24 0.03 0  0.25 0.03 0  0.26 0.03 0  0.27 0.03 0  0.28 0.03 0  0.29 0.03 0  0.3 0.03 0  0.31 0.03 0  0.32 0.03 0  0.33 0.03 0  0.34 0.03 0  0.35 0.03 0  0.36 0.03 0  0.37 0.03 0  0.38 0.03 0  0.39 0.03 0  0.4 0.03 0  0.41 0.03 0  0.42 0.03 0  0.43 0.03 0  0.44 0.03 0  0.45 0.03 0  0.46 0.03 0  0.47 0.03 0  0.48 0.03 0  0.49 0.03 0  0.5 0.03 0  0.51 0.03 0  0.52 0.03 0  0.53 0.03 0  0.54 0.03 0  0.55 0.03 0  0.5600000000000001 0.03 0  0.57 0.03 0  0.58 0.03 0  0.59 0.03 0  0.6 0.03 0  0.61 0.03 0  0.62 0.03 0  0.63 0.03 0  0.64 0.03 0  0.65 0.03 0  0.66 0.03 0  0.67 0.03 0  0.68 0.03 0  0.6899999999999999 0.03 0  0.7 0.03 0  0.71 0.03 0  0.72 0.03 0  0.73 0.03 0  0.74 0.03 0  0.75 0.03 0  0.76 0.03 0  0.77 0.03 0  0.78 0.03 0  0.79 0.03 0  0.8 0.03 0  0.8100000000000001 0.03 0  0.82 0.03 0  0.83 0.03 0  0.84 0.03 0  0.85 0.03 0  0.86 0.03 0  0.87 0.03 0  0.88 0.03 0  0.89 0.03 0  0.9 0.03 0  0.91 0.03 0  0.92 0.03 0  0.93 0.03 0  0.9399999999999999 0.03 0  0.95 0.03 0  0.96 0.03 0  0.97 0.03 0  0.98 0.03 0  0.99 0.03 0  1 0.03 0  0 0.04 0  0.01 0.04 0  0.02 0.04 0  0.03 0.04 0  0.04 0.04 0  0.05 0.04 0  0.06 0.04 0  0.07000000000000001 0.04 0  0.08 0.04 0  0.09 0.04 0  0.1 0.04 0  0.11 0.04 0  0.12 0.04 0  0.13 0.04 0  0.14 0.04 0  0.15 0.04 0  0.16 0.04 0  0.17 0.04 0  0.18 0.04 0  0.19 0.04 0  0.2 0.04 0  0.21 0.04 0  0.22 0.04 0  0.23 0.04 0  0.24 0.04 0  0.25 0.04 0  0.26 0.04 0  0.27 0.04 0  0.28 0.04 0  0.29 0.04 0  0.3 0.04 0  0.31 0.04 0  0.32 0.04 0  0.33 0.04 0  0.34 0.04 0  0.35 0.04 0  0.36 0.04 0  0.37 0.04 0  0.38 0.04 0  0.39 0.04 0  0.4 0.04 0  0.41 0.04 0  0.42 0.04 0  0.43 0.04 0  0.44 0.04 0  0.45 0.04 0  0.46 0.04 0  0.47 0.04 0  0.48 0.04 0  0.49 0.04 0  0.5 0.04 0  0.51 0.04 0  0.52 0.04 0  0.53 0.04 0  0.54 0.04 0  0.55 0.04 0  0.5600000000000001 0.04 0  0.57 0.04 0  0.58 0.04 0  0.59 0.04 0  0.6 0.04 0  0.61 0.04 0  0.62 0.04 0  0.63 0.04 0  0.64 0.04 0  0.65 0.04 0  0.66 0.04 0  0.67 0.04 0  0.68 0.04 0  0.6899999999999999 0.04 0  0.7 0.04 0  0.71 0.04 0  0.72 0.04 0  0.73 0.04 0  0.74 0.04 0  0.75 0.04 0  0.76 0.04 0  0.77 0.04 0  0.78 0.04 0  0.79 0.04 0  0.8 0.04 0  0.8100000000000001 0.04 0  0.82 0.04 0  0.83 0.04 0  0.84 0.04 0  0.85 0.04 0  0.86 0.04 0  0.87 0.04 0  0.88 0.04 0  0.89 0.04 0  0.9 0.04 0  0.91 0.04 0  0.92 0.04 0  0.93 0.04 0  0.9399999999999999 0.04 0  0.95 0.04 0  0.96 0.04 0  0.97 0.04 0  0.98 0.04 0  0.99 0.04 0  1 0.04 0  0 0.05 0  0.01 0.05 0  0.02 0.05 0  0.03 0.05 0  0.04 0.05 0  0.05 0.05 0  0.06 0.05 0  0.07000000000000001 0.05 0  0.08 0.05 0  0.09 0.05 0  0.1 0.05 0  0.11 0.05 0  0.12 0.05 0  0.13 0.05 0  0.14 0.05 0  0.15 0.05 0  0.16 0.05 0  0.17 0.05 0  0.18 0.05 0  0.19 0.05 0  0.2 0.05 0  0.21 0.05 0  0.22 0.05 0  0.23 0.05 0  0.24 0.05 0  0.25 0.05 0  0.26 0.05 0  0.27 0.05 0  0.28 0.05 0  0.29 0.05 0  0.3 0.05 0  0.31 0.05 0  0.32 0.05 0  0.33 0.05 0  0.34 0.05 0  0.35 0.05 0  0.36 0.05 0  0.37 0.05 0  0.38 0.05 0  0.39 0.05 0  0.4 0.05 0  0.41 0.05 0  0.42 0.05 0  0.43 0.05 0  0.44 0.05 0  0.45 0.05 0  0.46 0.05 0  0.47 0.05 0  0.48 0.05 0  0.49 0.05 0  0.5 0.05 0  0.51 0.05 0  0.52 0.05 0  0.53 0.05 0  0.54 0.05 0  0.55 0.05 0  0.5600000000000001 0.05 0  0.57 0.05 0  0.58 0.05 0  0.59 0.05 0  0.6 0.05 0  0.61 0.05 0  0.62 0.05 0  0.63 0.05 0  0.64 0.05 0  0.65 0.05 0  0.66 0.05 0  0.67 0.05 0  0.68 0.05 0  0.6899999999999999 0.05 0  0.7 0.05 0  0.71 0.05 0  0.72 0.05 0  0.73 0.05 0  0.74 0.05 0  0.75 0.05 0  0.76 0.05 0  0.77 0.05 0  0.78 0.05 0  0.79 0.05 0  0.8 0.05 0  0.8100000000000001 0.05 0  0.82 0.05 0  0.83 0.05 0  0.84 0.05 0  0.85 0.05 0  0.86 0.05 0  0.87 0.05 0  0.88 0.05 0  0.89 0.05 0  0.9 0.05 0  0.91 0.05 0  0.92 0.05 0  0.93 0.05 0  0.9399999999999999 0.05 0  0.95 0.05 0  0.96 0.05 0  0.97 0.05 0  0.98 0.05 0  0.99 0.05 0  1 0.05 0  0 0.06 0  0.01 0.06 0  0.02 0.06 0  0.03 0.06 0  0.04 0.06 0  0.05 0.06 0  0.06 0.06 0  0.07000000000000001 0.06 0  0.08 0.06 0  0.09 0.06 0  0.1 0.06 0  0.11 0.06 0  0.12 0.06 0  0.13 0.06 0  0.14 0.06 0  0.15 0.06 0  0.16 0.06 0  0.17 0.06 0  0.18 0.06 0  0.19 0.06 0  0.2 0.06 0  0.21 0.06 0  0.22 0.06 0  0.23 0.06 0  0.24 0.06 0  0.25 0.06 0  0.26 0.06 0  0.27 0.06 0  0.28 0.06 0  0.29 0.06 0  0.3 0.06 0  0.31 0.06 0  0.32 0.06 0  0.33 0.06 0  0.34 0.06 0  0.35 0.06 0  0.36 0.06 0  0.37 0.06 0  0.38 0.06 0  0.39 0.06 0  0.4 0.06 0  0.41 0.06 0  0.42 0.06 0  0.43 0.06 0  0.44 0.06 0  0.45 0.06 0  0.46 0.06 0  0.47 0.06 0  0.48 0.06 0  0.49 0.06 0  0.5 0.06 0  0.51 0.06 0  0.52 0.06 0  0.53 0.06 0  0.54 0.06 0  0.55 0.06 0  0.5600000000000001 0.06 0  0.57 0.06 0  0.58 0.06 0  0.59 0.06 0  0.6 0.06 0  0.61 0.06 0  0.62 0.06 0  0.63 0.06 0  0.64 0.06 0  0.65 0.06 0  0.66 0.06 0  0.67 0.06 0  0.68 0.06 0  0.6899999999999999 0.06 0  0.7 0.06 0  0.71 0.06 0  0.72 0.06 0  0.73 0.06 0  0.74 0.06 0  0.75 0.06 0  0.76 0.06 0  0.77 0.06 0  0.78 0.06 0  0.79 0.06 0  0.8 0.06 0  0.8100000000000001 0.06 0  0.82 0.06 0  0.83 0.06 0  0.84 0.06 0  0.85 0.06 0  0.86 0.06 0  0.87 0.06 0  0.88 0.06 0  0.89 0.06 0  0.9 0.06 0  0.91 0.06 0  0.92 0.06 0  0.93 0.06 0  0.9399999999999999 0.06 0  0.95 0.06 0  0.96 0.06 0  0.97 0.06 0  0.98 0.06 0  0.99 0.06 0  1 0.06 0  0 0.07000000000000001 0  0.01 0.07000000000000001 0  0.02 0.07000000000000001 0  0.03 0.07000000000000001 0  0.04 0.07000000000000001 0  0.05 0.07000000000000001 0  0.06 0.07000000000000001 0  0.07000000000000001 0.07000000000000001 0  0.08 0.07000000000000001 0  0.09 0.07000000000000001 0  0.1 0.07000000000000001 0  0.11 0.07000000000000001 0  0.12 0.07000000000000001 0  0.13 0.07000000000000001 0  0.14 0.07000000000000001 0  0.15 0.07000000000000001 0  0.16 0.07000000000000001 0  0.17 0.0700
[...]
<PointData  Scalars="Indicator Function"> 
<DataArray  type="Float64"  Name="Indicator Function"  format="ascii">-1.0059426565005700e-18  3.4199455410043125e-17  1.2314511078971325e-16  2.5445060038144729e-18  7.8730050032571527e-17  -1.3663214035258050e-18  -1.4198357145184561e-18  1.0667625832649818e-16  8.9002490073623414e-16  -1.3987470095412198e-18  4.7281163008851738e-16  6.0116155938466247e-16  -3.6546990932985531e-19  -4.7793692896559739e-18  3.5866572442128025e-16  -5.1117621833995826e-18  -1.0551531296054654e-17  7.9198769953893910e-16  -3.8299394465863374e-18  -4.5442766645502524e-18  2.4113303501630169e-15  -4.5035308279127848e-18  -3.6184910621828986e-18  1.6427313532063945e-15  -8.4699161969135866e-19  -3.5220912545773199e-18  -2.0538794974172011e-18  -9.1028622677624874e-19  9.7214724712549966e-16  -1.8733907620385812e-18  -3.1430217006635789e-18  -2.4978130021027678e-18  -2.6198926068880072e-18  -5.1087092119450072e-18  -3.6611304232309931e-17  -2.5166722780181329e-18  -5.8528112233988404e-18  -1.4583580654221273e-17  -1.5338895449669009e-17  -1.5931350751369731e-17  1.7807584093272488e-15  -9.3140750328191531e-19  -5.1686476776760533e-18  -4.7208102487821224e-18  -1.8078408662396022e-18  -1.8649566210891276e-18  3.1015941303859794e-16  -2.0536400189895962e-18  -7.1715633823661436e-19  -1.3526827166080174e-18  -9.5059491124074739e-19  -3.6569439643616868e-19  -5.4394724203559838e-19  -1.2915925425768109e-18  -9.6296497219361793e-35  -1.3458392132768671e-18  3.9824999761344107e-16  -5.2508376309584699e-19  -6.5172872496087010e-19  -1.0113510109422760e-18  0.0000000000000000e+00  -1.0314695822371512e-18  -4.7368257164370695e-19  0.0000000000000000e+00  -3.0448868095904832e-20  -4.0725121008025535e-19  -1.6392652877830942e-19  -4.2052210739099909e-20  4.8125747121274819e-17  -4.8575063176780100e-19  -2.6771684097136567e-20  -6.4481963422714662e-20  -6.4281476419143604e-20  -9.9694333833326776e-19  -1.5281802340388052e-18  -8.3666648802848141e-19  -1.5214695132511405e-19  -5.0121105895636138e-19  -5.4602818427790075e-19  -2.1504765712074562e-19  -1.4651801311400886e-19  3.0149701274794501e-16  -1.6731726543850266e-19  -7.8941906494728963e-19  -7.3043174157160236e-19  -3.8485009462793778e-19  2.4074124304840448e-35  -1.8859489854766832e-19  -2.8558129013347040e-19  -3.4947725643025639e-20  -8.6241134055940226e-21  1.2037062152420224e-35  -1.1216598919360562e-19  1.2889699731513561e-16  -7.0766122542897074e-20  -2.1615836572209217e-20  -9.4149574510726465e-21  -1.7064879358814456e-20  -1.8169821282068043e-20  3.0092655381050560e-36  2.4074124304840448e-35  1.5407439555097887e-33  1.8121451891888254e-02  9.9808017978331692e-02  3.0106707321734753e-02  3.9148494238850133e-02  4.1429201073658550e-02  2.4613458255148591e-02  2.5577486379330515e-02  9.9677664183485407e-02  9.9553307484608000e-02  2.5197586043821524e-02  1.5124294483098630e-01  1.3167441179784483e-02  1.2640092501958688e-01  2.2897000498049106e-02  1.6570697483498079e-01  1.4540256385878200e-01  1.1737820772300882e-01  1.3798811091598231e-01  1.6372482154509380e-01  4.7040555127953243e-02  1.6225679806751642e-01  8.6205769826820516e-02  2.2082055083750916e-02  1.3055299814658080e-02  1.2689671089343438e-01  7.3998807513856027e-02  3.2796517693679389e-02  1.7362106351810940e-02  2.1250344518036278e-02  2.3122835492327014e-02  8.9993197644089584e-02  6.5135639496771230e-02  1.4627969724140556e-02  8.4716338750969011e-02  9.0672674667968939e-02  4.5868638670047710e-03  1.0314144184557313e-01  2.4856972915002909e-01  2.4827304061513436e-01  1.6285718092194246e-01  7.7551933297463974e-02  1.6778745938842064e-02  8.4720706051343964e-02  6.5134331612334589e-02  6.7192143550395628e-02  5.7306002748144659e-02  2.3495454676678199e-02  3.6995089697098735e-02  1.4384963613117587e-02  1.7175283707306713e-02  1.7124395552176482e-02  1.9597764772325822e-02  4.0393408155441603e-02  3.0705586961329388e-03  2.4245810265812930e-02  3.6525793436765562e-02  1.8918136318534031e-02  2.3481001943043377e-02  2.9031885667337307e-02  3.7029373104129782e-03  8.6326628856812360e-03  1.4264972661988321e-02  1.4006202815918269e-03  1.0970360880845627e-03  2.8606199209548480e-03  5.9060756313770628e-03  1.5150905649175530e-03  2.7152218838990680e-03  7.1278074207044677e-03  5.1866017465455744e-03  2.8611427681386695e-03  2.3159842659846441e-03  6.1675577123951157e-03  1.8054508952755528e-02  1.8501993253910713e-02  6.3780605705406048e-03  2.7408358131733620e-03  7.6585978468126838e-03  6.0070703855846239e-03  5.2788677541067003e-03  7.2197230293164622e-04  1.0768923286027003e-03  7.3278312663188775e-03  1.0556993993783676e-02  8.0108778602458377e-03  5.3282402038952494e-03  2.2669225299132285e-03  4.9367642636335652e-03  2.6761930354995455e-03  1.3809156066286706e-04  8.6312435347902797e-05  7.3693010588213434e-04  1.6521377756027779e-03  1.0324200171183693e-03  8.2073091991741577e-04  3.3920959094687876e-04  1.2172521553723336e-04  3.3295364680924178e-04  1.6084157801661962e-04  4.4642505807773458e-21  -3.0834391513488719e-19  1.7815313003996486e-02  3.0331595747902614e-02  5.5538368350842304e-02  3.1742789920254200e-02  8.4068054773134795e-02  2.8908817205049647e-02  1.1159630973201036e-01  1.5028154034904517e-02  1.0186355596605791e-01  1.8853740592090321e-01  5.9771769697264734e-02  2.8746130962849583e-02  2.2858485129738093e-01  2.0066543758168393e-01  2.9378070965020237e-01  6.8292057326158770e-02  2.1684171739903832e-01  1.3986084531798800e-02  1.0316070668846788e-01  3.3066949147986399e-02  2.2790603274361579e-01  7.0069588910697922e-02  7.0755021009707583e-02  8.5535735988697556e-02  2.3218584428144919e-02  1.5387028144296158e-03  5.6202953366286321e-02  1.2178074931790401e-02  2.3442433435398365e-02  1.6057610691251048e-01  9.5318447657265395e-02  1.0492814553811669e-01  8.5167427131941351e-02  1.5645016197075001e-01  4.9179839705803308e-02  7.0633072642131339e-02  1.2428602224563663e-01  2.1364086625207948e-01  2.6045034519424004e-01  3.3895600905923018e-01  1.3559955167626819e-01  4.8357493788741872e-02  4.2586472400024583e-02  6.6427185938515182e-02  1.6334133051485435e-02  3.5552869038796109e-03  5.5624619854572344e-03  4.8378113625567945e-02  5.0685492871392347e-05  5.4367055617668719e-02  4.1958347754781543e-02  8.9794479022005675e-03  1.7509408160393047e-02  6.5653177796503037e-02  4.3295047115749028e-03  1.1005837176787069e-02  9.4788250696687774e-03  1.3663292938063134e-03  5.9830424623973097e-03  3.9758846814840633e-02  1.2141505629863212e-02  2.6250645937471982e-02  6.7192360527694476e-03  2.2402681176812121e-03  2.7255677158346471e-03  9.8791939056814548e-03  8.5610658796588608e-04  1.1721412415171396e-03  8.9289205581425113e-03  8.5596694046573187e-03  2.8235578700001080e-03  3.9939434596799571e-03  1.5425365830743333e-03  1.7333850293324581e-02  2.6382997353602354e-02  1.2764008641345271e-02  1.6761654780009374e-04  7.6774385639219291e-03  7.8851182207422751e-03  6.4597714600983938e-03  4.2099299705845254e-03  5.0244834756219400e-03  5.9576666371403313e-03  1.3364964081563423e-02  1.0271988430134183e-02  8.6431862579158872e-03  2.4243455763961769e-03  5.6078264071331230e-03  5.0238077762357180e-03  5.8761024019226410e-04  8.3551989837895311e-04  3.0505972678020014e-04  2.8558402897392843e-03  8.2957717862518665e-04  1.8067052207179646e-03  5.4260999070334770e-04  1.2611277992884173e-04  4.0828842016514007e-04  5.5336204341949625e-04  1.3822993835053935e-19  2.6963019221421302e-33  7.9597047922790140e-02  6.5748043389509472e-02  1.9522216361456995e-01  6.4777019672766098e-02  1.1752076789280801e-03  9.6154307069270556e-02  1.2311573905262634e-01  8.7442533196047181e-02  1.6659526498431163e-01  3.2524530891578762e-01  2.2201353133369184e-01  2.3657287507993047e-01  1.9855610370173238e-01  1.3333143129514818e-01  1.0647356025894100e-01  3.5325237544441018e-01  1.6015994756613761e-01  1.7898484040393906e-01  1.3157457392487354e-01  3.5832017186895748e-01  2.8540102667007178e-01  3.8377748312084364e-01  2.8270870050928348e-01  2.3881510421369885e-02  4.9001966695496585e-02  2.1336067892521529e-01  2.7111917728951879e-01  1.4055683303001115e-01  4.2595257810763995e-02  1.9720027740856707e-02  8.4818238858832287e-02  1.6329564872173211e-01  1.5895037341956816e-01  5.5695399777845614e-02  1.6288885737477490e-01  1.1338615776812863e-01  3.2512887926662924e-02  1.7898682321747381e-01  3.7025132356200402e-01  2.5143398982738285e-01  1.8296342354752979e-01  1.0629752781183681e-01  5.6259520229428463e-02  1.2224212248272891e-01  5.4299224716809834e-02  1.5582054166192391e-01  1.7948276383641951e-01  9.7873967590422578e-02  9.2411030006222014e-02  1.1004407034095116e-02  4.3706779156816360e-02  5.3274336607285269e-02  1.0407312051724790e-02  7.2004834365273357e-02  1.3533364987377970e-02  4.0445474705880474e-02  7.9889803458598724e-02  6.3316279546137638e-02  5.7799537778545573e-02  6.0184196765321718e-02  4.4201087183437480e-03  5.6352951954149822e-03  2.7461431771666121e-02  6.5036681501131474e-03  1.7007815112478385e-03  2.2803634418906071e-03  1.0700033544986616e-02  6.4662660525637147e-03  5.6665134273626355e-03  1.2210300637380262e-02  5.0965498788581743e-03  1.8078348200365295e-03  4.2171875611309619e-03  1.0318523544641071e-02  2.7205198494041141e-02  2.2740815420303560e-02  1.3784324397525347e-03  4.8891148007138814e-03  9.3072743627157367e-03  5.2482116977017297e-03  6.8431355562943658e-03  2.1796036413369371e-03  2.3164417931089546e-03  1.3933116164874802e-02  1.3927620405232904e-02  7.1665954807981517e-03  6.5811129889254850e-03  1.3376876636474761e-03  8.5318400429182286e-03  2.1989823055771950e-03  1.8436751274578187e-03  1.9980351584994866e-04  7.5883888280482259e-04  3.3660645987229824e-03  8.0889571705493953e-04  1.4658146404401167e-03  5.1635459606776720e-04  4.9099390766881362e-05  3.0719984819777468e-04  -1.9560225997682864e-34  -2.0743375108719635e-20  8.2161632804314974e-02  7.0510359547955898e-02  9.1255794877137600e-02  5.2462515012344085e-02  5.9074861816212139e-02  1.0791026142724229e-01  8.8775641226579133e-02  1.2697885772423254e-01  1.1345418596157337e-02  3.6687458707610247e-02  1.2953119266682639e-01  1.1462962609461491e-01  1.2802700725566768e-01  2.5618776753840322e-01  4.5759800767303643e-01  2.0717309187776650e-01  4.9252876585431744e-03  2.5034578852701023e-01  1.9389744855947903e-02  2.3131559444621871e-01  2.4920553694811370e-01  1.4671401684704982e-01  4.0658136114859321e-02  1.7464129227468481e-01  1.3972159754659100e-01  7.0319915746050940e-02  1.2807226769859312e-01  2.7716506744390260e-02  2.4271548547571945e-04  6.5954565027873434e-03  1.9060426618586393e-01  1.8067450617096051e-01  1.6919375989422505e-01  2.5862424905046622e-01  1.2190402187381873e-01  2.8662757745629213e-03  9.7975272737538685e-02  1.5556645145218809e-01  2.1186924380128605e-01  3.2434759427045251e-01  3.7012119173823094e-01  5.2821984053105307e-02  7.7368515740373858e-02  6.0952472562774479e-03  8.5094847822668268e-02  2.2962199026816260e-02  8.4650052976270859e-02  7.3720342687045401e-02  2.0917192440055712e-02  8.6719944785350160e-03  5.5546627746261561e-02  5.3316451641570284e-02  1.0167967745156435e-02  3.1456698066686641e-02  1.1521737045855812e-01  4.5282851557533164e-02  5.0056302850225720e-03  3.6497548097695752e-02  3.5271915275391724e-02  3.5328791837436119e-02  7.2450264812890339e-02  3.6309303491788909e-02  3.5975794820651150e-02  8.4093755838020989e-03  9.5400647641371225e-03  6.1144078731198408e-03  1.2671133336933997e-02  8.6753415340188418e-04  5.1083467718167509e-03  1.3134333183755316e-02  1.0666690980001498e-02  5.6098827275798699e-04  4.2831947279516943e-03  7.0804522522752097e-07  2.1344186061998938e-02  3.1503077325689563e-02  1.0052139006148654e-02  5.1626156129351243e-03  8.7250073651411342e-03  7.1515942962619870e-03  4.8862455958412470e-03  5.0022339785488461e-03  8.6641992533770269e-03  7.6963891517233384e-03  1.7704945719718104e-02  9.6522539217903207e-03  6.8853838371405428e-03  1.3053505538837653e-03  5.8922763293717635e-03  6.8059001845790137e-03  9.1638341291485031e-04  2.0911898611207153e-03  1.0566345165701249e-03  3.6293254504700515e-03  1.1525202327444582e-03  2.1986045044823173e-03  7.4605733237667084e-04  4.4207870968758549e-04  7.8235775912619392e-05  -8.9211439555271573e-21  -7.4661556528212982e-18  2.2776920470852349e-01  1.6537143464508197e-01  2.4740568887122585e-02  2.3492085141290450e-01  1.9655405802475720e-01  2.4783647856452734e-02  3.6592523087638905e-02  1.4568342566512876e-01  1.9476357482884812e-01  1.4749345620965135e-01  3.8979657921027105e-01  4.2371959186092156e-01  1.1258794540100468e-01  2.8266873455599040e-01  9.3840797763099462e-02  2.8513631601033932e-02  5.0848404670294201e-01  6.8705791657309417e-02  1.7479354199841668e-01  2.9100179733115118e-02  2.8291101148181003e-01  3.5223644567615570e-01  5.1953142291545640e-01  3.9501409284367800e-01  4.3083372810202837e-02  1.3363749400474953e-01  1.3495854377602062e-01  3.2785656718377926e-01  2.3015513289764319e-01  3.5835000939558666e-02  2.2456055690580654e-02  2.0477814808131278e-01  2.4852926097097253e-01  1.0181744268150085e-01  1.5764627593013166e-02  2.4305956288853597e-01  7.9215322126586954e-02  4.2570113290145498e-02  2.3638354317852958e-01  3.6479336276936347e-01  2.1370972855926282e-01  2.3870779739197248e-01  8.1749374737113037e-02  1.2823782396928940e-01  1.0400965168489423e-01  2.5307796357399447e-02  1.6946408327980020e-01  2.0363731612023628e-01  1.2170458653536277e-01  1.2142867182005491e-01  3.4438916126247741e-02  6.5802950961589488e-02  8.8723116325462217e-02  9.2488671041656076e-03  6.3981146753233506e-02  9.6834267019943569e-03  2.2138540831760752e-02  9.0821168358840521e-02  7.3983722837161828e-02  6.0180935611790977e-02  5.9229669000655974e-02  7.2864530286557956e-03  1.1428629565623726e-02  3.9788592032282154e-02  1.1663182404191957e-02  1.2838581613537478e-03  6.0362205718996625e-04  1.4864345631064705e-02  9.5308319538086241e-03  4.9783264686126235e-03  1.6208522229047940e-02  5.2308994450137349e-03  2.3351574234692262e-04  6.0263823052080700e-03  9.9984160990617514e-03  3.1220761362827809e-02  2.5184606318316729e-02  3.5834075679845720e-03  7.6523362071546685e-03  9.6557632424523858e-03  3.7736556665292523e-03  6.5758788320591606e-03  2.2959249576148897e-03  5.5199177936454168e-03  1.7476691767700277e-02  1.6039489987415091e-02  5.2010902356534267e-03  5.9120616720655245e-03  4.5878816942973897e-04  1.0165890749207885e-02  2.2575197030043556e-03  3.4120496002896061e-03  3.3412645904206766e-05  2.5199062254231799e-04  4.6401296986384628e-03  4.1919297344931154e-04  2.1356243058176976e-03  7.4273931293440427e-04  2.9918182989309921e-04  6.0185310762101120e-35  -8.9038596778780112e-19  1.9730049516948558e-01  8.8029393230923778e-02  6.8424215627634427e-02  2.0340790716389831e-01  7.4868448311878971e-02  5.2472791072615634e-02  6.2184781887929891e-02  1.6812781740001151e-01  5.2125799790922640e-02  3.6073246189816388e-02  9.2529887560864194e-03  5.1948463045990018e-02  7.1991479634252509e-02  2.3475149808702664e-01  5.5875487138736843e-02  4.6775186070903202e-01  3.1356516075598022e-02  7.2381933638673013e-02  2.5784446390090993e-01  9.0579693501732325e-02  1.7707864452977953e-01  4.2506604492775585e-01  4.2607413015495171e-02  8.3123096759068205e-02  3.3232001311686105e-01  1.7997425112590523e-01  1.0656807816698028e-02  1.9702638678498482e-01  2.0158200126264700e-01  5.4308885100594950e-02  2.0058608132632706e-02  1.2766252131789377e-01  1.5457029237783615e-01  1.8383751442711077e-01  3.4986521261130926e-01  3.2548080181422689e-02  3.0834626132503457e-02  1.1854554085855309e-01  1.5248605759097891e-01  2.5033684869144107e-01  3.8871244052510118e-01  3.1585577605694548e-01  1.8166061763335063e-02  5.7298887571547483e-02  2.0545740598682964e-02  1.1110285755482636e-01  4.6072796746511125e-04  1.5063859757928569e-01  1.6860009200146123e-01  3.7423346512721230e-02  4.5003349014006558e-02  2.9562404341871688e-02  3.4328509851511674e-02  1.8664892059999421e-02  2.0223998251085649e-02  1.3282942619504617e-01  6.0696380478088743e-02  1.1953184492199950e-02  6.3841801228534750e-02  6.7095542274059533e-02  5.9377806822904285e-02  9.1858071868238217e-02  4.5297724711304256e-02  3.2810086200547046e-02  1.5668543977990151e-02  1.6611503483870593e-02  6.6522818092208140e-03  1.2159544837768000e-02  3.3763174901645749e-03  8.7354682215786458e-03  1.5333624566909112e-02  1.3614099108044488e-02  4.5796215618449309e-04  3.5031814743411147e-03  2.1205195621379846e-03  2.2965541383505598e-02  3.5158588438196872e-02  9.3416229429247894e-03  1.0739292967058651e-02  9.7583419993937225e-03  6.7287920883644867e-03  3.2540173365291666e-03  5.4328252767170751e-03  9.9802731630600546e-03  6.9492061726265791e-03  2.1779141655449953e-02  9.9602154277970770e-03  4.6239875299213208e-03  1.1809527923915791e-03  5.0643156034474142e-03  8.7380153698660267e-03  1.8921527942381195e-03  3.4639473605917030e-03  1.3922325676067242e-03  3.5438552735872933e-03  2.1806776113511557e-03  1.9755228294479226e-03  1.2049867803519230e-03  6.5309217018986857e-04  1.5046327690525280e-35  4.6222318665293660e-33  8.9428259482582276e-02  7.8374735634596002e-02  4.4432437528337310e-02  1.8182862343945599e-01  1.2305738315016126e-01  2.4308196685918351e-01  6.1522904937404196e-03  5.6638484122510969e-02  7.8406556347373674e-02  2.1269589460082258e-01  1.1578518032420795e-01  3.0507417382284230e-01  3.6200148147203470e-01  3.4239654158832560e-02  1.3380563794020164e-01  1.5085982318847599e-01  1.8723071948851930e-01  4.4934750918309080e-01  7.0472547473006311e-04  1.3681481074871679e-01  2.8885361566278946e-02  1.2877132082024048e-01  1.6613621155367850e-01  4.5797383284830684e-01  3.3645457833991871e-01  3.7097693728106833e-02  1.6214415884501440e-01  6.6883634384798885e-02  2.0404790561163816e-01  1.8546978100487385e-01  9.1798707668860370e-03  4.6583511088394099e-02  2.3178422218972161e-01  3.3024837746257690e-01  2.2021847368255756e-02  1.4308296139595675e-01  2.3013917335402781e-01  4.1818618440973343e-02  4.8540740119307563e-02  2.6164177096539770e-01  3.3551685691685951e-01  2.5644227455148866e-01  2.6568472834495815e-01  1.0990066883929972e-02  1.5788504183942323e-01  7.0468934309231623e-02  2.5173330428655091e-02  1.5568287884036278e-01  1.3747818187220226e-01  5.0093819770610309e-02  9.1832856971276272e-02  1.9683150887924442e-02  5.7290593695658372e-02  9.2525097340151102e-02  8.1901412256848195e-03  5.5727075866051377e-02  4.5230268843665732e-02  1.2919677909561202e-02  7.6226142332378705e-02  5.0733897182597264e-02  3.1421007859899625e-02  3.5476669658185439e-02  2.9914848442330454e-02  2.8961825955196450e-02  4.5957258390479330e-02  1.0875451810891581e-02  6.9499576389474207e-03  2.5853220570517463e-03  1.6563847810100448e-02  9.3085691883989640e-03  2.5541753061319068e-03  1.9615068531328109e-02  6.7579131372181639e-03  1.6516784265662753e-03  6.4863079245653732e-03  8.5021939771928665e-03  3.3994586068199883e-02  2.7820837674807208e-02  6.6827989732484811e-03  1.2393711495887317e-02  1.0134785028743669e-02  3.1064359503308200e-03  5.4065112906754682e-03  1.7689491918290198e-03  7.4863053081203040e-03  1.9091561803469739e-02  1.9282183281357512e-02  4.5482602014424584e-03  4.0619501800348750e-03  7.4125952777076196e-04  1.0595468151793816e-02  3.6990561405642304e-03  4.4361081786081303e-03  6.9782077600367412e-04  1.4710291879285398e-04  5.0526183396262447e-03  8.0049134015720499e-04  2.2997829546939890e-03  8.8916462156723671e-04  -1.0954075632002767e-19  -3.8518598887744717e-34  3.5540307726257978e-02  2.2083491208341362e-02  6.3806603614021351e-02  1.3366434271200017e-01  5.2338567576646525e-02  2.1857749310210453e-01  1.8492863537823562e-02  4.4200007351513681e-03  1.3575570695119774e-01  7.0686136505539801e-03  8.0198769914173781e-02  5.1567755030172725e-02  9.8514052103550145e-02  2.5533862955442416e-01  1.3006365914493798e-01  5.2968299807267763e-02  2.8