<?xml version="1.0"?>
<VTKFile type="UnstructuredGrid"  version="0.1"  >
<UnstructuredGrid>
<Piece  NumberOfPoints="10201" NumberOfCells="20000">
<Points>
<DataArray  type="Float64"  NumberOfComponents="3"  format="ascii">0 0 0  0.01 0 0  0.02 0 0  0.03 0 0  0.04 0 0  0.05 0 0  0.06 0 0  0.07000000000000001 0 0  0.08 0 0  0.09 0 0  0.1 0 0  0.11 0 0  0.12 0 0  0.13 0 0  0.14 0 0  0.15 0 0  0.16 0 0  0.17 0 0  0.18 0 0  0.19 0 0  0.2 0 0  0.21 0 0  0.22 0 0  0.23 0 0  0.24 0 0  0.25 0 0  0.26 0 0  0.27 0 0  0.28 0 0  0.29 0 0  0.3 0 0  0.31 0 0  0.32 0 0  0.33 0 0  0.34 0 0  0.35 0 0  0.36 0 0  0.37 0 0  0.38 0 0  0.39 0 0  0.4 0 0  0.41 0 0  0.42 0 0  0.43 0 0  0.44 0 0  0.45 0 0  0.46 0 0  0.47 0 0  0.48 0 0  0.49 0 0  0.5 0 0  0.51 0 0  0.52 0 0  0.53 0 0  0.54 0 0  0.55 0 0  0.5600000000000001 0 0  0.57 0 0  0.58 0 0  0.59 0 0  0.6 0 0  0.61 0 0  0.62 0 0  0.63 0 0  0.64 0 0  0.65 0 0  0.66 0 0  0.67 0 0  0.68 0 0  0.6899999999999999 0 0  0.7 0 0  0.71 0 0  0.72 0 0  0.73 0 0  0.74 0 0  0.75 0 0  0.76 0 0  0.77 0 0  0.78 0 0  0.79 0 0  0.8 0 0  0.8100000000000001 0 0  0.82 0 0  0.83 0 0  0.84 0 0  0.85 0 0  0.86 0 0  0.87 0 0  0.88 0 0  0.89 0 0  0.9 0 0  0.91 0 0  0.92 0 0  0.93 0 0  0.9399999999999999 0 0  0.95 0 0  0.96 0 0  0.97 0 0  0.98 0 0  0.99 0 0  1 0 0  0 0.01 0  0.01 0.01 0  0.02 0.01 0  0.03 0.01 0  0.04 0.01 0  0.05 0.01 0  0.06 0.01 0  0.07000000000000001 0.01 0  0.08 0.01 0  0.09 0.01 0  0.1 0.01 0  0.11 0.01 0  0.12 0.01 0  0.13 0.01 0  0.14 0.01 0  0.15 0.01 0  0.16 0.01 0  0.17 0.01 0  0.18 0.01 0  0.19 0.01 0  0.2 0.01 0  0.21 0.01 0  0.22 0.01 0  0.23 0.01 0  0.24 0.01 0  0.25 0.01 0  0.26 0.01 0  0.27 0.01 0  0.28 0.01 0  0.29 0.01 0  0.3 0.01 0  0.31 0.01 0  0.32 0.01 0  0.33 0.01 0  0.34 0.01 0  0.35 0.01 0  0.36 0.01 0  0.37 0.01 0  0.38 0.01 0  0.39 0.01 0  0.4 0.01 0  0.41 0.01 0  0.42 0.01 0  0.43 0.01 0  0.44 0.01 0  0.45 0.01 0  0.46 0.01 0  0.47 0.01 0  0.48 0.01 0  0.49 0.01 0  0.5 0.01 0  0.51 0.01 0  0.52 0.01 0  0.53 0.01 0  0.54 0.01 0  0.55 0.01 0  0.5600000000000001 0.01 0  0.57 0.01 0  0.58 0.01 0  0.59 0.01 0  0.6 0.01 0  0.61 0.01 0  0.62 0.01 0  0.63 0.01 0  0.64 0.01 0  0.65 0.01 0  0.66 0.01 0  0.67 0.01 0  0.68 0.01 0  0.6899999999999999 0.01 0  0.7 0.01 0  0.71 0.01 0  0.72 0.01 0  0.73 0.01 0  0.74 0.01 0  0.75 0.01 0  0.76 0.01 0  0.77 0.01 0  0.78 0.01 0  0.79 0.01 0  0.8 0.01 0  0.8100000000000001 0.01 0  0.82 0.01 0  0.83 0.01 0  0.84 0.01 0  0.85 0.01 0  0.86 0.01 0  0.87 0.01 0  0.88 0.01 0  0.89 0.01 0  0.9 0.01 0  0.91 0.01 0  0.92 0.01 0  0.93 0.01 0  0.9399999999999999 0.01 0  0.95 0.01 0  0.96 0.01 0  0.97 0.01 0  0.98 0.01 0  0.99 0.01 0  1 0.01 0  0 0.02 0  0.01 0.02 0  0.02 0.02 0  0.03 0.02 0  0.04 0.02 0  0.05 0.02 0  0.06 0.02 0  0.07000000000000001 0.02 0  0.08 0.02 0  0.09 0.02 0  0.1 0.02 0  0.11 0.02 0  0.12 0.02 0  0.13 0.02 0  0.14 0.02 0  0.15 0.02 0  0.16 0.02 0  0.17 0.02 0  0.18 0.02 0  0.19 0.02 0  0.2 0.02 0  0.21 0.02 0  0.22 0.02 0  0.23 0.02 0  0.24 0.02 0  0.25 0.02 0  0.26 0.02 0  0.27 0.02 0  0.28 0.02 0  0.29 0.02 0  0.3 0.02 0  0.31 0.02 0  0.32 0.02 0  0.33 0.02 0  0.34 0.02 0  0.35 0.02 0  0.36 0.02 0  0.37 0.02 0  0.38 0.02 0  0.39 0.02 0  0.4 0.02 0  0.41 0.02 0  0.42 0.02 0  0.43 0.02 0  0.44 0.02 0  0.45 0.02 0  0.46 0.02 0  0.47 0.02 0  0.48 0.02 0  0.49 0.02 0  0.5 0.02 0  0.51 0.02 0  0.52 0.02 0  0.53 0.02 0  0.54 0.02 0  0.55 0.02 0  0.5600000000000001 0.02 0  0.57 0.02 0  0.58 0.02 0  0.59 0.02 0  0.6 0.02 0  0.61 0.02 0  0.62 0.02 0  0.63 0.02 0  0.64 0.02 0  0.65 0.02 0  0.66 0.02 0  0.67 0.02 0  0.68 0.02 0  0.6899999999999999 0.02 0  0.7 0.02 0  0.71 0.02 0  0.72 0.02 0  0.73 0.02 0  0.74 0.02 0  0.75 0.02 0  0.76 0.02 0  0.77 0.02 0  0.78 0.02 0  0.79 0.02 0  0.8 0.02 0  0.8100000000000001 0.02 0  0.82 0.02 0  0.83 0.02 0  0.84 0.02 0  0.85 0.02 0  0.86 0.02 0  0.87 0.02 0  0.88 0.02 0  0.89 0.02 0  0.9 0.02 0  0.91 0.02 0  0.92 0.02 0  0.93 0.02 0  0.9399999999999999 0.02 0  0.95 0.02 0  0.96 0.02 0  0.97 0.02 0  0.98 0.02 0  0.99 0.02 0  1 0.02 0  0 0.03 0  0.01 0.03 0  0.02 0.03 0  0.03 0.03 0  0.04 0.03 0  0.05 0.03 0  0.06 0.03 0  0.07000000000000001 0.03 0  0.08 0.03 0  0.09 0.03 0  0.1 0.03 0  0.11 0.03 0  0.12 0.03 0  0.13 0.03 0  0.14 0.03 0  0.15 0.03 0  0.16 0.03 0  0.17 0.03 0  0.18 0.03 0  0.19 0.03 0  0.2 0.03 0  0.21 0.03 0  0.22 0.03 0  0.23 0.03 0  0.24 0.03 0  0.25 0.03 0  0.26 0.03 0  0.27 0.03 0  0.28 0.03 0  0.29 0.03 0  0.3 0.03 0  0.31 0.03 0  0.32 0.03 0  0.33 0.03 0  0.34 0.03 0  0.35 0.03 0  0.36 0.03 0  0.37 0.03 0  0.38 0.03 0  0.39 0.03 0  0.4 0.03 0  0.41 0.03 0  0.42 0.03 0  0.43 0.03 0  0.44 0.03 0  0.45 0.03 0  0.46 0.03 0  0.47 0.03 0  0.48 0.03 0  0.49 0.03 0  0.5 0.03 0  0.51 0.03 0  0.52 0.03 0  0.53 0.03 0  0.54 0.03 0  0.55 0.03 0  0.5600000000000001 0.03 0  0.57 0.03 0  0.58 0.03 0  0.59 0.03 0  0.6 0.03 0  0.61 0.03 0  0.62 0.03 0  0.63 0.03 0  0.64 0.03 0  0.65 0.03 0  0.66 0.03 0  0.67 0.03 0  0.68 0.03 0  0.6899999999999999 0.03 0  0.7 0.03 0  0.71 0.03 0  0.72 0.03 0  0.73 0.03 0  0.74 0.03 0  0.75 0.03 0  0.76 0.03 0  0.77 0.03 0  0.78 0.03 0  0.79 0.03 0  0.8 0.03 0  0.8100000000000001 0.03 0  0.82 0.03 0  0.83 0.03 0  0.84 0.03 0  0.85 0.03 0  0.86 0.03 0  0.87 0.03 0  0.88 0.03 0  0.89 0.03 0  0.9 0.03 0  0.91 0.03 0  0.92 0.03 0  0.93 0.03 0  0.9399999999999999 0.03 0  0.95 0.03 0  0.96 0.03 0  0.97 0.03 0  0.98 0.03 0  0.99 0.03 0  1 0.03 0  0 0.04 0  0.01 0.04 0  0.02 0.04 0  0.03 0.04 0  0.04 0.04 0  0.05 0.04 0  0.06 0.04 0  0.07000000000000001 0.04 0  0.08 0.04 0  0.09 0.04 0  0.1 0.04 0  0.11 0.04 0  0.12 0.04 0  0.13 0.04 0  0.14 0.04 0  0.15 0.04 0  0.16 0.04 0  0.17 0.04 0  0.18 0.04 0  0.19 0.04 0  0.2 0.04 0  0.21 0.04 0  0.22 0.04 0  0.23 0.04 0  0.24 0.04 0  0.25 0.04 0  0.26 0.04 0  0.27 0.04 0  0.28 0.04 0  0.29 0.04 0  0.3 0.04 0  0.31 0.04 0  0.32 0.04 0  0.33 0.04 0  0.34 0.04 0  0.35 0.04 0  0.36 0.04 0  0.37 0.04 0  0.38 0.04 0  0.39 0.04 0  0.4 0.04 0  0.41 0.04 0  0.42 0.04 0  0.43 0.04 0  0.44 0.04 0  0.45 0.04 0  0.46 0.04 0  0.47 0.04 0  0.48 0.04 0  0.49 0.04 0  0.5 0.04 0  0.51 0.04 0  0.52 0.04 0  0.53 0.04 0  0.54 0.04 0  0.55 0.04 0  0.5600000000000001 0.04 0  0.57 0.04 0  0.58 0.04 0  0.59 0.04 0  0.6 0.04 0  0.61 0.04 0  0.62 0.04 0  0.63 0.04 0  0.64 0.04 0  0.65 0.04 0  0.66 0.04 0  0.67 0.04 0  0.68 0.04 0  0.6899999999999999 0.04 0  0.7 0.04 0  0.71 0.04 0  0.72 0.04 0  0.73 0.04 0  0.74 0.04 0  0.75 0.04 0  0.76 0.04 0  0.77 0.04 0  0.78 0.04 0  0.79 0.04 0  0.8 0.04 0  0.8100000000000001 0.04 0  0.82 0.04 0  0.83 0.04 0  0.84 0.04 0  0.85 0.04 0  0.86 0.04 0  0.87 0.04 0  0.88 0.04 0  0.89 0.04 0  0.9 0.04 0  0.91 0.04 0  0.92 0.04 0  0.93 0.04 0  0.9399999999999999 0.04 0  0.95 0.04 0  0.96 0.04 0  0.97 0.04 0  0.98 0.04 0  0.99 0.04 0  1 0.04 0  0 0.05 0  0.01 0.05 0  0.02 0.05 0  0.03 0.05 0  0.04 0.05 0  0.05 0.05 0  0.06 0.05 0  0.07000000000000001 0.05 0  0.08 0.05 0  0.09 0.05 0  0.1 0.05 0  0.11 0.05 0  0.12 0.05 0  0.13 0.05 0  0.14 0.05 0  0.15 0.05 0  0.16 0.05 0  0.17 0.05 0  0.18 0.05 0  0.19 0.05 0  0.2 0.05 0  0.21 0.05 0  0.22 0.05 0  0.23 0.05 0  0.24 0.05 0  0.25 0.05 0  0.26 0.05 0  0.27 0.05 0  0.28 0.05 0  0.29 0.05 0  0.3 0.05 0  0.31 0.05 0  0.32 0.05 0  0.33 0.05 0  0.34 0.05 0  0.35 0.05 0  0.36 0.05 0  0.37 0.05 0  0.38 0.05 0  0.39 0.05 0  0.4 0.05 0  0.41 0.05 0  0.42 0.05 0  0.43 0.05 0  0.44 0.05 0  0.45 0.05 0  0.46 0.05 0  0.47 0.05 0  0.48 0.05 0  0.49 0.05 0  0.5 0.05 0  0.51 0.05 0  0.52 0.05 0  0.53 0.05 0  0.54 0.05 0  0.55 0.05 0  0.5600000000000001 0.05 0  0.57 0.05 0  0.58 0.05 0  0.59 0.05 0  0.6 0.05 0  0.61 0.05 0  0.62 0.05 0  0.63 0.05 0  0.64 0.05 0  0.65 0.05 0  0.66 0.05 0  0.67 0.05 0  0.68 0.05 0  0.6899999999999999 0.05 0  0.7 0.05 0  0.71 0.05 0  0.72 0.05 0  0.73 0.05 0  0.74 0.05 0  0.75 0.05 0  0.76 0.05 0  0.77 0.05 0  0.78 0.05 0  0.79 0.05 0  0.8 0.05 0  0.8100000000000001 0.05 0  0.82 0.05 0  0.83 0.05 0  0.84 0.05 0  0.85 0.05 0  0.86 0.05 0  0.87 0.05 0  0.88 0.05 0  0.89 0.05 0  0.9 0.05 0  0.91 0.05 0  0.92 0.05 0  0.93 0.05 0  0.9399999999999999 0.05 0  0.95 0.05 0  0.96 0.05 0  0.97 0.05 0  0.98 0.05 0  0.99 0.05 0  1 0.05 0  0 0.06 0  0.01 0.06 0  0.02 0.06 0  0.03 0.06 0  0.04 0.06 0  0.05 0.06 0  0.06 0.06 0  0.07000000000000001 0.06 0  0.08 0.06 0  0.09 0.06 0  0.1 0.06 0  0.11 0.06 0  0.12 0.06 0  0.13 0.06 0  0.14 0.06 0  0.15 0.06 0  0.16 0.06 0  0.17 0.06 0  0.18 0.06 0  0.19 0.06 0  0.2 0.06 0  0.21 0.06 0  0.22 0.06 0  0.23 0.06 0  0.24 0.06 0  0.25 0.06 0  0.26 0.06 0  0.27 0.06 0  0.28 0.06 0  0.29 0.06 0  0.3 0.06 0  0.31 0.06 0  0.32 0.06 0  0.33 0.06 0  0.34 0.06 0  0.35 0.06 0  0.36 0.06 0  0.37 0.06 0  0.38 0.06 0  0.39 0.06 0  0.4 0.06 0  0.41 0.06 0  0.42 0.06 0  0.43 0.06 0  0.44 0.06 0  0.45 0.06 0  0.46 0.06 0  0.47 0.06 0  0.48 0.06 0  0.49 0.06 0  0.5 0.06 0  0.51 0.06 0  0.52 0.06 0  0.53 0.06 0  0.54 0.06 0  0.55 0.06 0  0.5600000000000001 0.06 0  0.57 0.06 0  0.58 0.06 0  0.59 0.06 0  0.6 0.06 0  0.61 0.06 0  0.62 0.06 0  0.63 0.06 0  0.64 0.06 0  0.65 0.06 0  0.66 0.06 0  0.67 0.06 0  0.68 0.06 0  0.6899999999999999 0.06 0  0.7 0.06 0  0.71 0.06 0  0.72 0.06 0  0.73 0.06 0  0.74 0.06 0  0.75 0.06 0  0.76 0.06 0  0.77 0.06 0  0.78 0.06 0  0.79 0.06 0  0.8 0.06 0  0.8100000000000001 0.06 0  0.82 0.06 0  0.83 0.06 0  0.84 0.06 0  0.85 0.06 0  0.86 0.06 0  0.87 0.06 0  0.88 0.06 0  0.89 0.06 0  0.9 0.06 0  0.91 0.06 0  0.92 0.06 0  0.93 0.06 0  0.9399999999999999 0.06 0  0.95 0.06 0  0.96 0.06 0  0.97 0.06 0  0.98 0.06 0  0.99 0.06 0  1 0.06 0  0 0.07000000000000001 0  0.01 0.07000000000000001 0  0.02 0.07000000000000001 0  0.03 0.07000000000000001 0  0.04 0.07000000000000001 0  0.05 0.07000000000000001 0  0.06 0.07000000000000001 0  0.07000000000000001 0.07000000000000001 0  0.08 0.07000000000000001 0  0.09 0.07000000000000001 0  0.1 0.07000000000000001 0  0.11 0.07000000000000001 0  0.12 0.07000000000000001 0  0.13 0.07000000000000001 0  0.14 0.07000000000000001 0  0.15 0.07000000000000001 0  0.16 0.07000000000000001 0  0.17 0.0700
[...]
<PointData  Scalars="Indicator Function"> 
<DataArray  type="Float64"  Name="Indicator Function"  format="ascii">-1.2398139844305603e-18  2.6466184879338558e-17  1.0002059652300601e-16  3.3934911709775457e-18  1.1261016984397876e-16  -1.1491978166882669e-18  -1.7107158760376127e-18  1.0646357186058983e-16  8.0346909258616450e-16  -9.4780133901797948e-19  3.5498975577874137e-16  5.5694379653721937e-16  -6.1588094385991554e-19  -5.6701923256302871e-18  5.9286267776499864e-16  -2.4706040626371310e-18  -9.3679738033546781e-18  8.9781570995299399e-16  -3.5792477582279467e-18  -4.3231115450668557e-18  2.3851270968663774e-15  -4.6421335671439814e-18  -5.2576860371513535e-18  1.5228475059753933e-15  -3.3215488488943151e-19  -3.6510796273932452e-18  -1.8857784043553886e-18  -7.1633263911094247e-19  7.5606184978871718e-16  -3.3882060370723738e-18  -3.5745901917420744e-18  -2.6872402673080322e-18  -2.9886036310689065e-18  -6.5246868370795731e-18  5.0440642728322349e-17  -2.5437666262211326e-18  -7.1551626913166153e-18  -1.0017360072819708e-17  -1.0385018274631964e-17  -1.4146583503779028e-17  1.1225519278316729e-15  -2.4523996022563225e-18  -3.8365462983857502e-18  -3.4246794857088972e-18  -2.5098223962695362e-18  -1.9023791118362842e-18  2.3730941265621616e-16  -2.2076806711427915e-18  9.6296497219361793e-35  -1.3618702872597975e-18  -6.8453557062048704e-19  1.6851887013388314e-34  -5.6545912372607950e-19  -1.7592134825345127e-18  -4.1888218404885456e-20  -9.6311407310562654e-19  2.7260889031729515e-16  -4.7103373710345572e-19  -4.2045631674628104e-19  -4.3863057145317802e-19  1.9259299443872359e-34  -7.1230974780230084e-19  -2.5088326390118640e-19  -7.0359481845676389e-21  1.2037062152420224e-35  -2.8521321452407664e-19  -1.2556843910207395e-19  -3.0545713111276102e-21  6.0019846720541703e-17  -4.7871939950014769e-19  3.6111186457260672e-35  -3.9019756578905678e-21  -6.1963325744099130e-20  -6.7455888845075868e-19  -1.3876403725966091e-18  -5.7933923991239579e-19  -2.3744116621060212e-19  -5.3411930709715716e-19  -3.6493583107567123e-19  -1.1246004915168132e-19  -1.7004914460395800e-19  1.9550305713150100e-16  -1.4635494648088692e-19  -6.8871163195708696e-19  -4.4972660372371727e-19  -1.9532392471691470e-19  -1.5557016701798185e-20  -1.0690586269290897e-19  -1.8344692361348560e-19  -1.9794361774874908e-20  -4.3540620020479858e-20  4.5138983071575840e-36  -4.5183297693746645e-20  3.9085374193309462e-17  -2.2086904795601984e-20  -9.5528062723107714e-21  -5.2367269135199984e-21  -9.3962337384010687e-21  -6.3168842067112853e-21  7.5231638452626401e-37  4.5138983071575840e-36  7.7037197775489434e-34  2.2334503193160840e-02  1.0190836208231351e-01  2.9742597595013989e-02  3.1458526687765213e-02  2.9807165963428955e-02  2.0702107436049073e-02  3.0817517527439116e-02  1.0317853480341078e-01  1.0934566403778577e-01  1.7074071028890414e-02  1.5320309539166296e-01  2.2189449514176798e-02  1.0935079276327150e-01  4.7469707797674433e-02  1.9321339483747663e-01  1.5571256652700272e-01  1.2389592416455819e-01  1.2895599096177640e-01  1.5575650834755178e-01  2.1785323070748090e-02  1.7463511387034000e-01  8.3625244012774824e-02  5.2901429504595955e-02  1.1967140926538666e-02  1.3154400679542574e-01  6.7942327353266038e-02  2.5808603252586201e-02  9.8920745287577033e-03  2.0647602067432665e-02  5.0712692750338094e-02  9.6818034132027539e-02  4.1400308681331967e-02  3.3137742456294167e-02  1.0096943760457598e-01  9.1648851439735987e-02  5.9722969944884467e-03  1.2590980362431090e-01  2.7763306720860254e-01  2.7787658292475681e-01  1.8770112306496053e-01  7.4718253548653191e-02  4.4178503739540520e-02  1.1324811885072750e-01  7.5059740469128236e-02  6.8540430873468547e-02  4.3846013637333550e-02  1.6178872749422653e-02  3.9770039391646902e-02  5.9373827589687166e-03  2.1564582693436338e-02  1.2331496563073105e-02  2.0372811991248151e-02  2.5854512127829046e-02  1.8763916673715814e-02  2.7129724853122886e-02  2.5034070659087072e-02  1.6970778903184439e-02  1.5148535291392982e-02  1.3223820702767388e-02  1.2897555612156602e-03  5.2512555497905037e-03  1.0206203884204000e-02  1.6244011743038636e-03  1.2674837448886615e-04  2.0217508018752070e-03  4.5240798043967604e-03  1.1005252974847241e-04  1.5794065314207761e-03  7.0587721095257362e-03  5.9598697171276182e-03  2.1858104360435401e-03  2.2324640858540916e-03  5.2016488984182874e-03  1.8965865468519420e-02  2.1951871196501761e-02  7.8017542478171550e-03  4.2773597906739340e-03  9.6360630924998136e-03  7.0499347580321847e-03  5.3186160686505245e-03  4.0402502276695864e-04  1.3598944472538253e-03  6.8378581917580413e-03  1.0843640041614337e-02  8.5994128395394491e-03  4.8015809960749818e-03  2.1450802118061344e-03  3.0001727190870527e-03  2.0463575016031405e-03  2.4533971397532804e-04  6.6168822341118995e-04  6.7353143074715767e-04  1.1696723880931629e-03  7.9304848362399618e-04  6.1450786539497869e-04  2.1139122096093397e-04  9.4336485505478932e-05  2.2137852178615765e-04  1.5249858463875385e-04  -2.1170903196611660e-21  -5.7205377726771758e-19  1.3928068689911253e-02  2.5429090801121060e-02  3.7046844755668086e-02  3.1051823673072569e-02  8.1613883493170059e-02  2.4766554103282226e-02  9.1857674599615732e-02  1.8885760166342448e-02  8.2023927657298518e-02  1.3383861201649044e-01  5.9046725213933525e-02  7.6554808771165011e-03  2.0458198667567798e-01  1.8712563523740527e-01  2.7343141566480628e-01  8.9624554981211024e-02  2.0512953009917256e-01  2.1227073261116714e-02  9.3863222624906956e-02  5.4991970351706880e-02  2.0706175366893556e-01  3.5197938850512693e-02  8.2095734521807101e-02  4.2183747331346950e-02  1.2539260372633402e-02  2.2772616491247098e-02  3.3048791069674614e-02  5.5161629202433570e-04  1.8710809421418832e-02  1.5555850892301237e-01  6.8698789657750295e-02  1.1870155123314753e-01  7.5391688829738457e-02  1.4934681649426099e-01  6.6685053469617228e-02  6.1527930943520555e-02  1.1278417650754992e-01  2.1158620351128490e-01  2.7588272219282994e-01  3.3379829071368422e-01  1.3755170413677095e-01  5.7293652405129243e-02  7.0816865923395159e-02  9.0737292003772674e-02  1.8192557345705483e-02  1.7506039712131796e-02  8.9473067064603090e-03  5.2714518521847421e-02  8.0159814382696447e-03  4.4868142600747223e-02  2.1828305843039280e-02  2.3635881032308512e-03  2.4150963949155672e-02  5.5911647431418084e-02  1.2329315227285403e-02  2.8241686948050616e-04  6.9157228108538077e-03  7.7349577301920793e-03  1.1782335245730895e-02  2.0750910570999957e-02  7.7704019714796334e-03  1.6259863549343462e-02  4.2705023452049486e-03  7.8994749191112017e-04  5.3946392336746984e-04  5.6372607535734309e-03  2.2549779232032053e-03  1.0900137555981215e-03  6.2476483385628043e-03  8.3971232629734428e-03  3.0429475799609077e-03  2.7658271960826412e-03  1.5028758652685023e-04  1.4742662281833491e-02  2.6377095620147423e-02  1.5657788998422323e-02  1.3287184758399057e-05  8.8215351221498546e-03  9.4377412907209034e-03  6.1366704232253717e-03  4.2598150009600993e-03  3.2750433510340248e-03  3.4024681580923414e-03  1.1500229422971039e-02  1.0570586501421777e-02  7.0902922210396013e-03  2.8811400557303721e-03  2.9567808342712588e-03  3.0741112444291970e-03  5.4985449312300956e-04  9.5352381474929327e-04  4.7905667542025971e-04  1.3553768725356450e-03  1.0298985297137683e-03  8.7643966278090656e-04  4.3132597694177697e-04  4.7281930131623920e-05  2.2195053206397689e-04  2.5598901230354786e-04  4.8289310944749906e-20  2.6963019221421302e-33  7.4199043531696512e-02  5.6817059282924652e-02  1.7694363999043783e-01  5.3225831632082242e-02  5.9429808402909953e-03  6.5950710670134680e-02  1.0421011534588707e-01  6.8876837516171116e-02  1.5460202612954485e-01  2.9534393072695464e-01  1.6593063236907879e-01  2.1421532553980435e-01  1.5247582317597405e-01  1.0310993347738967e-01  8.1309152817305927e-02  3.3345591743517783e-01  1.5329465149439803e-01  1.6259649055324579e-01  1.2113771524632889e-01  3.0443385725284000e-01  2.2237210715602199e-01  3.5059040499507393e-01  2.3777041490311551e-01  9.7559445528882863e-03  2.3943739483982280e-02  2.0018125255878635e-01  2.2872084406002846e-01  1.1606947319068482e-01  2.9996828572715493e-02  1.7546918741042465e-02  1.0534481380778755e-01  1.5127847630946278e-01  1.1500433775706059e-01  4.1376046575072357e-02  1.5367884564258250e-01  1.1152725126582259e-01  1.7854097753038679e-02  1.6350525944856595e-01  3.4477978574384471e-01  2.5189855729098060e-01  1.9025845011943557e-01  1.0056850818839967e-01  7.3517618017940947e-02  1.4413137828227693e-01  6.0144637016060036e-02  1.3319972397782345e-01  1.4097620264505198e-01  8.5472398416465936e-02  8.7117966996552651e-02  2.4165334885543989e-02  4.9231613729236935e-02  3.6735351707355354e-02  1.6132422458028022e-02  4.0809432665569488e-02  1.2159815719125971e-02  3.7872072171111722e-02  5.1738509882094157e-02  4.7396740072349675e-02  3.8896984077940629e-02  2.8755089252227150e-02  4.9335536664406173e-03  5.8058262632346772e-03  1.4794424679374233e-02  2.8549645674842464e-03  9.6008514258140844e-04  1.9199893782365868e-03  6.5467756150375403e-03  2.1460166918578498e-03  2.2915367350770941e-03  9.6340417176441987e-03  5.6969377365787390e-03  1.2840683684487433e-03  4.1561533201295688e-03  6.7092826895921659e-03  2.3651855762057899e-02  2.4050627117475631e-02  4.2157752450139403e-03  5.1480740207144890e-03  1.0268164851696973e-02  6.3148466982901781e-03  6.0739533335978750e-03  4.0759724676973718e-04  2.6770407680499057e-03  1.0103748617223605e-02  1.1711665479938549e-02  7.9979613699608775e-03  4.7920554419769836e-03  1.8339100538899646e-03  3.9374973601857943e-03  1.8459209503470830e-03  1.0241849445164219e-03  6.1107915039045795e-04  6.7902838944318672e-04  1.7268329344649195e-03  7.3257099873653172e-04  8.1708491789671516e-04  2.4919109322745734e-04  6.4439057244887606e-05  1.8584675918737541e-04  -6.0185310762101120e-35  -1.8897021384229853e-19  6.5731607225512773e-02  5.9897974165650993e-02  8.1619063858188692e-02  3.6604232608138054e-02  5.7653280085053375e-02  9.2008284471225041e-02  7.4247513634700293e-02  1.0447585411494534e-01  1.1562299882205201e-02  2.0331371111768012e-02  8.5690448993483964e-02  1.2339024041974471e-01  1.4554272562765169e-01  2.2680292865640983e-01  3.9152409717088232e-01  1.8487923076821036e-01  2.3234119897954712e-02  2.3326547349355295e-01  2.3492796970088235e-02  2.0381966908010424e-01  2.1972134193233683e-01  1.4060621772028067e-01  1.2547740005301069e-02  1.4916557826464885e-01  7.3713636221002021e-02  6.0315044646023629e-02  1.3030107151289344e-01  3.0788626996232315e-02  9.0194551012132140e-03  1.1349222427756774e-02  1.7189802461787054e-01  1.3615906464287902e-01  1.6327743179491475e-01  2.1031500783735907e-01  1.0951945979043796e-01  2.4701236191649493e-02  8.3212654692431443e-02  1.1804480144878371e-01  1.9019600667411599e-01  3.1586862238762559e-01  3.4932215772386938e-01  7.1631359582074297e-02  7.1190738552207061e-02  3.3003177838516626e-02  1.0982526914340474e-01  2.2930801493544435e-02  7.3992706562073268e-02  4.6651401773045005e-02  3.1863049008717746e-02  7.0769223781251642e-03  4.5871957883255009e-02  2.3609028744336697e-02  2.9494512696941547e-03  3.7116065327364806e-02  8.6063536833853302e-02  1.0752878678905982e-02  9.8616929890727976e-03  2.2871546602004918e-02  2.9791512227928935e-02  3.2612921231287936e-02  3.8381988024163878e-02  2.0562834290681630e-02  2.3340553368339491e-02  2.6827159803375928e-03  3.3849746646041740e-03  2.3498347591107221e-03  6.8179229581565963e-03  2.4388847299763928e-03  2.9603942259271948e-03  7.8696096650769844e-03  9.4553260877980345e-03  1.6201993701286386e-03  3.0501786765959053e-03  2.0397605596071877e-03  1.6537479445227602e-02  2.8757794585017465e-02  1.3733064646133194e-02  3.2659019048966449e-03  8.6627624932788666e-03  8.8784820356730635e-03  4.9138158405222484e-03  4.9199627988050360e-03  5.3075891418466080e-03  3.7353947067511918e-03  1.3591565887630552e-02  9.5938256347149094e-03  6.0277620781070173e-03  2.3484264004439656e-03  3.0038625090534838e-03  3.4732757501023661e-03  1.1854275690606056e-05  1.4505984051639020e-03  1.9221344998881688e-04  1.5599492780402134e-03  1.2439553250663219e-03  9.1196841042427170e-04  5.5917836550420266e-04  1.4896828841117277e-04  8.8435906219550196e-05  5.8454731924535153e-21  -6.1210497029473559e-18  2.0301464701304031e-01  1.4921617666084050e-01  2.0133506153290910e-02  2.0882434473876121e-01  1.6668901934834937e-01  2.5261098209770599e-02  1.5497273502298485e-02  1.1775970829335537e-01  1.5603057371870979e-01  1.3656235162087116e-01  3.3428224231354686e-01  3.3171649260616592e-01  9.5991906721623874e-02  2.1382418690320376e-01  8.7032197046907997e-02  2.2015831676671278e-02  4.5708920866591413e-01  7.8106355703750976e-02  1.6079384529778104e-01  3.8171240399885356e-02  2.3609864976810577e-01  2.8227271334406312e-01  4.5921016685407401e-01  3.2425523792149402e-01  2.5024637905996835e-02  7.5226606573624150e-02  1.2867715039063313e-01  2.7149032304145798e-01  1.9527419964920276e-01  2.3236691540708624e-02  1.5021566268078381e-02  2.0108906292513795e-01  2.1589117700074154e-01  7.1945598367586586e-02  1.9530628103591387e-02  2.1384754416979457e-01  8.7252320928402988e-02  3.1404292128409665e-02  1.9986142054702874e-01  3.2795031236742267e-01  2.1892963638647797e-01  2.3809649578589565e-01  8.9623061382018934e-02  1.2743307364381407e-01  1.2670472571842720e-01  3.8243374035370301e-02  1.3692306643280650e-01  1.6536278750016686e-01  1.1498824329781294e-01  1.1654389135424197e-01  5.1557622750444156e-02  7.1243875203418114e-02  5.8682841025598224e-02  3.2376010694950422e-03  3.1204484398555984e-02  2.8431557625570786e-02  2.7524010878671006e-02  5.8088414386584110e-02  5.5592987201499543e-02  4.1087971965740745e-02  2.6274100169712787e-02  7.2277398824890406e-04  1.2143081700425585e-03  2.1167042406552507e-02  6.7509060144382493e-03  8.3513347106472548e-04  9.4891591881409896e-04  8.1666618697246365e-03  3.0145635393196450e-03  1.7759187890902339e-03  1.1538798618118457e-02  5.7608395399175579e-03  1.5227601978764943e-05  5.3635344281294959e-03  6.0746288246477506e-03  2.5885974216495734e-02  2.5218674742782457e-02  1.2302904850576481e-03  6.5469205233291633e-03  1.0072944093930962e-02  5.8060874489400671e-03  5.9266768950574202e-03  6.6341100313117941e-05  4.3533313358252524e-03  1.1744524946892087e-02  1.2559150572973595e-02  6.9731695817741111e-03  4.3489463509271730e-03  1.4144250694660876e-03  4.4111758502725527e-03  1.7448475749551530e-03  1.6277702772087472e-03  7.7201660896811079e-04  5.5531368722612831e-04  2.1247671353421386e-03  7.7457087610650888e-04  1.0061868953835115e-03  3.9606939577682129e-04  1.0397003361275120e-04  6.0185310762101120e-36  -1.7084491060880651e-18  1.6933314152427714e-01  7.0891118762422226e-02  6.0204122105799361e-02  1.8043299601141785e-01  7.0389367994067031e-02  5.4868585480927004e-02  4.7042823218694234e-02  1.3736122362270139e-01  4.5978201093889601e-02  2.1364932828557524e-02  2.0077547692516923e-02  5.2907909884553697e-02  2.4159030048058062e-02  2.3039714436005487e-01  6.1868589705034560e-02  3.9665777818192299e-01  3.2948289635878730e-02  8.6444882774591517e-02  2.4277452741987623e-01  8.1322766166584820e-02  1.5920058625051625e-01  3.5413078235952616e-01  9.8480290892067682e-03  8.2809054693163922e-02  2.6588164426815047e-01  1.1144395542002018e-01  4.9407413127127891e-03  1.8496582681720791e-01  1.6843748411843704e-01  5.1123555861449239e-02  2.2795024403734952e-02  1.1468315107662043e-01  1.1440646170005213e-01  1.6289248162405254e-01  2.8420613858503196e-01  2.5718713318284243e-02  3.9491923741540702e-02  1.0230961070524364e-01  1.1316671769441823e-01  2.1802636353236587e-01  3.6415415562443021e-01  3.0258635329536704e-01  4.6731627640035647e-02  4.4180049723038975e-02  4.0608456054961370e-02  1.3461420334366664e-01  3.4304417316454402e-03  1.1595719768843450e-01  1.2112275890288952e-01  2.0580302814084718e-02  2.4059351506446353e-02  2.0888021019015310e-02  3.3194069509482407e-03  1.6681713744385439e-02  3.0189204238162359e-02  9.3382759306613702e-02  1.7207130701049528e-02  1.3564017186378733e-02  3.8528742094741185e-02  5.0025054625683893e-02  4.8463819077306125e-02  4.8311905954606327e-02  2.5619296229598798e-02  2.3970640655166048e-02  4.6999482556206876e-03  6.8816445545689603e-03  3.3222982182403685e-03  6.9803967939369984e-03  3.3989140028728711e-03  3.9979492232023704e-03  8.6697301018546589e-03  1.0916120321428005e-02  9.9515207371936201e-04  2.4777902016768494e-03  3.2852744171497543e-03  1.7563558346925780e-02  3.0713380774733502e-02  1.3001097039684079e-02  6.6233457842203398e-03  8.8172591581716173e-03  8.4636077234210849e-03  4.3430140670443892e-03  5.3784470133592605e-03  5.5270345152599208e-03  3.4460484420571549e-03  1.5753887423037852e-02  9.3523890833132600e-03  5.1048837028713828e-03  2.2196102527751427e-03  2.9869389364706308e-03  3.9777673014183652e-03  3.7235716579303043e-04  1.9725109216204924e-03  1.3949857792694835e-04  1.6445580319219312e-03  1.6378750343451099e-03  9.7211560384627286e-04  7.9139792043818487e-04  3.3065930119345507e-04  3.0092655381050560e-35  4.0444528832131953e-33  7.1391958931038599e-02  7.3804713898757951e-02  3.1352255510852196e-02  1.5558061861397227e-01  1.1033852103387896e-01  2.0957415101372201e-01  6.6491280110011980e-03  5.7052461800569533e-02  6.2828153596215089e-02  1.7279040297642884e-01  1.0452550156598575e-01  2.5399830889450709e-01  2.8377113273907989e-01  1.6623628059101048e-02  8.5827192220176887e-02  1.3240408130927830e-01  1.5156109725310235e-01  4.0146923656072819e-01  2.2375614728806125e-02  1.3115866690696318e-01  3.6321140579195783e-02  1.0882406417403843e-01  1.3938964811931254e-01  4.1186117700768127e-01  2.7417510347604435e-01  2.1997488750121010e-02  8.7116017049351388e-02  6.3584512084487343e-02  1.6620302126461658e-01  1.6746537015424218e-01  3.7274754715436926e-03  4.9321149117549354e-02  2.1410123924258520e-01  2.7968147552802702e-01  1.5718268417094845e-02  1.0406462422357644e-01  1.9768239932769399e-01  5.2552589406677695e-02  4.3459705313213436e-02  2.1246186452839330e-01  2.9738876464920805e-01  2.5353299013861708e-01  2.5929886906242655e-01  3.7142255044478316e-02  1.4490338289096558e-01  9.4690136344827716e-02  4.2885861438130918e-02  1.2336068156702858e-01  1.2153445541933346e-01  6.4297981445234548e-02  9.2696772704220984e-02  4.2823075042226773e-02  6.4733889160236036e-02  5.5886631197868762e-02  4.8726004438457713e-03  2.4483348098420534e-02  4.8475794100867220e-02  8.4986684795814293e-03  4.9392733595392500e-02  4.2263591741607723e-02  2.3775779757451262e-02  1.0734210509319865e-02  1.2420060237686577e-02  9.7265056944436587e-03  2.5601383215587921e-02  8.3637530772258054e-03  1.0268781734387509e-03  2.2209991084705928e-04  8.9245914838751543e-03  2.6554310296631870e-03  1.1554647956747419e-03  1.2914800176023809e-02  6.4624257005141007e-03  8.9287919506326238e-04  5.4928630525446958e-03  5.2399511638961498e-03  2.7709396032740995e-02  2.6328821732062843e-02  7.0197465868157495e-04  9.3606239019760860e-03  9.8105401875679555e-03  5.5676425022595710e-03  5.3845943953646806e-03  5.0915216227787096e-04  4.8891521374661764e-03  1.2563896732241781e-02  1.4349693207762521e-02  6.3276765469559727e-03  3.6861944925182170e-03  1.3740797937582146e-03  4.6930268228749031e-03  2.0032141499236730e-03  1.9816532233932365e-03  1.0631039193425608e-03  4.4026179917717285e-04  2.2969945718008069e-03  1.0370695546476373e-03  1.1343380430705633e-03  6.0314670011010828e-04  -2.8933998437345453e-20  3.8518598887744717e-34  2.3811738584463376e-02  1.6322028930077073e-02  6.1274458728833830e-02  1.1835115367410821e-01  5.1819107278419152e-02  1.9179943095945906e-01  2.5806809297477938e-02  2.0893793098057684e-03  1.1265523356283798e-01  1.0199983501513200e-02  5.3031629600595147e-02  3.4432376528644219e-02  7.5798006234286106e-02  1.7459096398806340e-01  1.2988509265634177e-01  2.2718639541276665e-02  2.46366