<?xml version="1.0"?>
<VTKFile type="UnstructuredGrid"  version="0.1"  >
<UnstructuredGrid>
<Piece  NumberOfPoints="10201" NumberOfCells="20000">
<Points>
<DataArray  type="Float64"  NumberOfComponents="3"  format="ascii">0 0 0  0.01 0 0  0.02 0 0  0.03 0 0  0.04 0 0  0.05 0 0  0.06 0 0  0.07000000000000001 0 0  0.08 0 0  0.09 0 0  0.1 0 0  0.11 0 0  0.12 0 0  0.13 0 0  0.14 0 0  0.15 0 0  0.16 0 0  0.17 0 0  0.18 0 0  0.19 0 0  0.2 0 0  0.21 0 0  0.22 0 0  0.23 0 0  0.24 0 0  0.25 0 0  0.26 0 0  0.27 0 0  0.28 0 0  0.29 0 0  0.3 0 0  0.31 0 0  0.32 0 0  0.33 0 0  0.34 0 0  0.35 0 0  0.36 0 0  0.37 0 0  0.38 0 0  0.39 0 0  0.4 0 0  0.41 0 0  0.42 0 0  0.43 0 0  0.44 0 0  0.45 0 0  0.46 0 0  0.47 0 0  0.48 0 0  0.49 0 0  0.5 0 0  0.51 0 0  0.52 0 0  0.53 0 0  0.54 0 0  0.55 0 0  0.5600000000000001 0 0  0.57 0 0  0.58 0 0  0.59 0 0  0.6 0 0  0.61 0 0  0.62 0 0  0.63 0 0  0.64 0 0  0.65 0 0  0.66 0 0  0.67 0 0  0.68 0 0  0.6899999999999999 0 0  0.7 0 0  0.71 0 0  0.72 0 0  0.73 0 0  0.74 0 0  0.75 0 0  0.76 0 0  0.77 0 0  0.78 0 0  0.79 0 0  0.8 0 0  0.8100000000000001 0 0  0.82 0 0  0.83 0 0  0.84 0 0  0.85 0 0  0.86 0 0  0.87 0 0  0.88 0 0  0.89 0 0  0.9 0 0  0.91 0 0  0.92 0 0  0.93 0 0  0.9399999999999999 0 0  0.95 0 0  0.96 0 0  0.97 0 0  0.98 0 0  0.99 0 0  1 0 0  0 0.01 0  0.01 0.01 0  0.02 0.01 0  0.03 0.01 0  0.04 0.01 0  0.05 0.01 0  0.06 0.01 0  0.07000000000000001 0.01 0  0.08 0.01 0  0.09 0.01 0  0.1 0.01 0  0.11 0.01 0  0.12 0.01 0  0.13 0.01 0  0.14 0.01 0  0.15 0.01 0  0.16 0.01 0  0.17 0.01 0  0.18 0.01 0  0.19 0.01 0  0.2 0.01 0  0.21 0.01 0  0.22 0.01 0  0.23 0.01 0  0.24 0.01 0  0.25 0.01 0  0.26 0.01 0  0.27 0.01 0  0.28 0.01 0  0.29 0.01 0  0.3 0.01 0  0.31 0.01 0  0.32 0.01 0  0.33 0.01 0  0.34 0.01 0  0.35 0.01 0  0.36 0.01 0  0.37 0.01 0  0.38 0.01 0  0.39 0.01 0  0.4 0.01 0  0.41 0.01 0  0.42 0.01 0  0.43 0.01 0  0.44 0.01 0  0.45 0.01 0  0.46 0.01 0  0.47 0.01 0  0.48 0.01 0  0.49 0.01 0  0.5 0.01 0  0.51 0.01 0  0.52 0.01 0  0.53 0.01 0  0.54 0.01 0  0.55 0.01 0  0.5600000000000001 0.01 0  0.57 0.01 0  0.58 0.01 0  0.59 0.01 0  0.6 0.01 0  0.61 0.01 0  0.62 0.01 0  0.63 0.01 0  0.64 0.01 0  0.65 0.01 0  0.66 0.01 0  0.67 0.01 0  0.68 0.01 0  0.6899999999999999 0.01 0  0.7 0.01 0  0.71 0.01 0  0.72 0.01 0  0.73 0.01 0  0.74 0.01 0  0.75 0.01 0  0.76 0.01 0  0.77 0.01 0  0.78 0.01 0  0.79 0.01 0  0.8 0.01 0  0.8100000000000001 0.01 0  0.82 0.01 0  0.83 0.01 0  0.84 0.01 0  0.85 0.01 0  0.86 0.01 0  0.87 0.01 0  0.88 0.01 0  0.89 0.01 0  0.9 0.01 0  0.91 0.01 0  0.92 0.01 0  0.93 0.01 0  0.9399999999999999 0.01 0  0.95 0.01 0  0.96 0.01 0  0.97 0.01 0  0.98 0.01 0  0.99 0.01 0  1 0.01 0  0 0.02 0  0.01 0.02 0  0.02 0.02 0  0.03 0.02 0  0.04 0.02 0  0.05 0.02 0  0.06 0.02 0  0.07000000000000001 0.02 0  0.08 0.02 0  0.09 0.02 0  0.1 0.02 0  0.11 0.02 0  0.12 0.02 0  0.13 0.02 0  0.14 0.02 0  0.15 0.02 0  0.16 0.02 0  0.17 0.02 0  0.18 0.02 0  0.19 0.02 0  0.2 0.02 0  0.21 0.02 0  0.22 0.02 0  0.23 0.02 0  0.24 0.02 0  0.25 0.02 0  0.26 0.02 0  0.27 0.02 0  0.28 0.02 0  0.29 0.02 0  0.3 0.02 0  0.31 0.02 0  0.32 0.02 0  0.33 0.02 0  0.34 0.02 0  0.35 0.02 0  0.36 0.02 0  0.37 0.02 0  0.38 0.02 0  0.39 0.02 0  0.4 0.02 0  0.41 0.02 0  0.42 0.02 0  0.43 0.02 0  0.44 0.02 0  0.45 0.02 0  0.46 0.02 0  0.47 0.02 0  0.48 0.02 0  0.49 0.02 0  0.5 0.02 0  0.51 0.02 0  0.52 0.02 0  0.53 0.02 0  0.54 0.02 0  0.55 0.02 0  0.5600000000000001 0.02 0  0.57 0.02 0  0.58 0.02 0  0.59 0.02 0  0.6 0.02 0  0.61 0.02 0  0.62 0.02 0  0.63 0.02 0  0.64 0.02 0  0.65 0.02 0  0.66 0.02 0  0.67 0.02 0  0.68 0.02 0  0.6899999999999999 0.02 0  0.7 0.02 0  0.71 0.02 0  0.72 0.02 0  0.73 0.02 0  0.74 0.02 0  0.75 0.02 0  0.76 0.02 0  0.77 0.02 0  0.78 0.02 0  0.79 0.02 0  0.8 0.02 0  0.8100000000000001 0.02 0  0.82 0.02 0  0.83 0.02 0  0.84 0.02 0  0.85 0.02 0  0.86 0.02 0  0.87 0.02 0  0.88 0.02 0  0.89 0.02 0  0.9 0.02 0  0.91 0.02 0  0.92 0.02 0  0.93 0.02 0  0.9399999999999999 0.02 0  0.95 0.02 0  0.96 0.02 0  0.97 0.02 0  0.98 0.02 0  0.99 0.02 0  1 0.02 0  0 0.03 0  0.01 0.03 0  0.02 0.03 0  0.03 0.03 0  0.04 0.03 0  0.05 0.03 0  0.06 0.03 0  0.07000000000000001 0.03 0  0.08 0.03 0  0.09 0.03 0  0.1 0.03 0  0.11 0.03 0  0.12 0.03 0  0.13 0.03 0  0.14 0.03 0  0.15 0.03 0  0.16 0.03 0  0.17 0.03 0  0.18 0.03 0  0.19 0.03 0  0.2 0.03 0  0.21 0.03 0  0.22 0.03 0  0.23 0.03 0  0.24 0.03 0  0.25 0.03 0  0.26 0.03 0  0.27 0.03 0  0.28 0.03 0  0.29 0.03 0  0.3 0.03 0  0.31 0.03 0  0.32 0.03 0  0.33 0.03 0  0.34 0.03 0  0.35 0.03 0  0.36 0.03 0  0.37 0.03 0  0.38 0.03 0  0.39 0.03 0  0.4 0.03 0  0.41 0.03 0  0.42 0.03 0  0.43 0.03 0  0.44 0.03 0  0.45 0.03 0  0.46 0.03 0  0.47 0.03 0  0.48 0.03 0  0.49 0.03 0  0.5 0.03 0  0.51 0.03 0  0.52 0.03 0  0.53 0.03 0  0.54 0.03 0  0.55 0.03 0  0.5600000000000001 0.03 0  0.57 0.03 0  0.58 0.03 0  0.59 0.03 0  0.6 0.03 0  0.61 0.03 0  0.62 0.03 0  0.63 0.03 0  0.64 0.03 0  0.65 0.03 0  0.66 0.03 0  0.67 0.03 0  0.68 0.03 0  0.6899999999999999 0.03 0  0.7 0.03 0  0.71 0.03 0  0.72 0.03 0  0.73 0.03 0  0.74 0.03 0  0.75 0.03 0  0.76 0.03 0  0.77 0.03 0  0.78 0.03 0  0.79 0.03 0  0.8 0.03 0  0.8100000000000001 0.03 0  0.82 0.03 0  0.83 0.03 0  0.84 0.03 0  0.85 0.03 0  0.86 0.03 0  0.87 0.03 0  0.88 0.03 0  0.89 0.03 0  0.9 0.03 0  0.91 0.03 0  0.92 0.03 0  0.93 0.03 0  0.9399999999999999 0.03 0  0.95 0.03 0  0.96 0.03 0  0.97 0.03 0  0.98 0.03 0  0.99 0.03 0  1 0.03 0  0 0.04 0  0.01 0.04 0  0.02 0.04 0  0.03 0.04 0  0.04 0.04 0  0.05 0.04 0  0.06 0.04 0  0.07000000000000001 0.04 0  0.08 0.04 0  0.09 0.04 0  0.1 0.04 0  0.11 0.04 0  0.12 0.04 0  0.13 0.04 0  0.14 0.04 0  0.15 0.04 0  0.16 0.04 0  0.17 0.04 0  0.18 0.04 0  0.19 0.04 0  0.2 0.04 0  0.21 0.04 0  0.22 0.04 0  0.23 0.04 0  0.24 0.04 0  0.25 0.04 0  0.26 0.04 0  0.27 0.04 0  0.28 0.04 0  0.29 0.04 0  0.3 0.04 0  0.31 0.04 0  0.32 0.04 0  0.33 0.04 0  0.34 0.04 0  0.35 0.04 0  0.36 0.04 0  0.37 0.04 0  0.38 0.04 0  0.39 0.04 0  0.4 0.04 0  0.41 0.04 0  0.42 0.04 0  0.43 0.04 0  0.44 0.04 0  0.45 0.04 0  0.46 0.04 0  0.47 0.04 0  0.48 0.04 0  0.49 0.04 0  0.5 0.04 0  0.51 0.04 0  0.52 0.04 0  0.53 0.04 0  0.54 0.04 0  0.55 0.04 0  0.5600000000000001 0.04 0  0.57 0.04 0  0.58 0.04 0  0.59 0.04 0  0.6 0.04 0  0.61 0.04 0  0.62 0.04 0  0.63 0.04 0  0.64 0.04 0  0.65 0.04 0  0.66 0.04 0  0.67 0.04 0  0.68 0.04 0  0.6899999999999999 0.04 0  0.7 0.04 0  0.71 0.04 0  0.72 0.04 0  0.73 0.04 0  0.74 0.04 0  0.75 0.04 0  0.76 0.04 0  0.77 0.04 0  0.78 0.04 0  0.79 0.04 0  0.8 0.04 0  0.8100000000000001 0.04 0  0.82 0.04 0  0.83 0.04 0  0.84 0.04 0  0.85 0.04 0  0.86 0.04 0  0.87 0.04 0  0.88 0.04 0  0.89 0.04 0  0.9 0.04 0  0.91 0.04 0  0.92 0.04 0  0.93 0.04 0  0.9399999999999999 0.04 0  0.95 0.04 0  0.96 0.04 0  0.97 0.04 0  0.98 0.04 0  0.99 0.04 0  1 0.04 0  0 0.05 0  0.01 0.05 0  0.02 0.05 0  0.03 0.05 0  0.04 0.05 0  0.05 0.05 0  0.06 0.05 0  0.07000000000000001 0.05 0  0.08 0.05 0  0.09 0.05 0  0.1 0.05 0  0.11 0.05 0  0.12 0.05 0  0.13 0.05 0  0.14 0.05 0  0.15 0.05 0  0.16 0.05 0  0.17 0.05 0  0.18 0.05 0  0.19 0.05 0  0.2 0.05 0  0.21 0.05 0  0.22 0.05 0  0.23 0.05 0  0.24 0.05 0  0.25 0.05 0  0.26 0.05 0  0.27 0.05 0  0.28 0.05 0  0.29 0.05 0  0.3 0.05 0  0.31 0.05 0  0.32 0.05 0  0.33 0.05 0  0.34 0.05 0  0.35 0.05 0  0.36 0.05 0  0.37 0.05 0  0.38 0.05 0  0.39 0.05 0  0.4 0.05 0  0.41 0.05 0  0.42 0.05 0  0.43 0.05 0  0.44 0.05 0  0.45 0.05 0  0.46 0.05 0  0.47 0.05 0  0.48 0.05 0  0.49 0.05 0  0.5 0.05 0  0.51 0.05 0  0.52 0.05 0  0.53 0.05 0  0.54 0.05 0  0.55 0.05 0  0.5600000000000001 0.05 0  0.57 0.05 0  0.58 0.05 0  0.59 0.05 0  0.6 0.05 0  0.61 0.05 0  0.62 0.05 0  0.63 0.05 0  0.64 0.05 0  0.65 0.05 0  0.66 0.05 0  0.67 0.05 0  0.68 0.05 0  0.6899999999999999 0.05 0  0.7 0.05 0  0.71 0.05 0  0.72 0.05 0  0.73 0.05 0  0.74 0.05 0  0.75 0.05 0  0.76 0.05 0  0.77 0.05 0  0.78 0.05 0  0.79 0.05 0  0.8 0.05 0  0.8100000000000001 0.05 0  0.82 0.05 0  0.83 0.05 0  0.84 0.05 0  0.85 0.05 0  0.86 0.05 0  0.87 0.05 0  0.88 0.05 0  0.89 0.05 0  0.9 0.05 0  0.91 0.05 0  0.92 0.05 0  0.93 0.05 0  0.9399999999999999 0.05 0  0.95 0.05 0  0.96 0.05 0  0.97 0.05 0  0.98 0.05 0  0.99 0.05 0  1 0.05 0  0 0.06 0  0.01 0.06 0  0.02 0.06 0  0.03 0.06 0  0.04 0.06 0  0.05 0.06 0  0.06 0.06 0  0.07000000000000001 0.06 0  0.08 0.06 0  0.09 0.06 0  0.1 0.06 0  0.11 0.06 0  0.12 0.06 0  0.13 0.06 0  0.14 0.06 0  0.15 0.06 0  0.16 0.06 0  0.17 0.06 0  0.18 0.06 0  0.19 0.06 0  0.2 0.06 0  0.21 0.06 0  0.22 0.06 0  0.23 0.06 0  0.24 0.06 0  0.25 0.06 0  0.26 0.06 0  0.27 0.06 0  0.28 0.06 0  0.29 0.06 0  0.3 0.06 0  0.31 0.06 0  0.32 0.06 0  0.33 0.06 0  0.34 0.06 0  0.35 0.06 0  0.36 0.06 0  0.37 0.06 0  0.38 0.06 0  0.39 0.06 0  0.4 0.06 0  0.41 0.06 0  0.42 0.06 0  0.43 0.06 0  0.44 0.06 0  0.45 0.06 0  0.46 0.06 0  0.47 0.06 0  0.48 0.06 0  0.49 0.06 0  0.5 0.06 0  0.51 0.06 0  0.52 0.06 0  0.53 0.06 0  0.54 0.06 0  0.55 0.06 0  0.5600000000000001 0.06 0  0.57 0.06 0  0.58 0.06 0  0.59 0.06 0  0.6 0.06 0  0.61 0.06 0  0.62 0.06 0  0.63 0.06 0  0.64 0.06 0  0.65 0.06 0  0.66 0.06 0  0.67 0.06 0  0.68 0.06 0  0.6899999999999999 0.06 0  0.7 0.06 0  0.71 0.06 0  0.72 0.06 0  0.73 0.06 0  0.74 0.06 0  0.75 0.06 0  0.76 0.06 0  0.77 0.06 0  0.78 0.06 0  0.79 0.06 0  0.8 0.06 0  0.8100000000000001 0.06 0  0.82 0.06 0  0.83 0.06 0  0.84 0.06 0  0.85 0.06 0  0.86 0.06 0  0.87 0.06 0  0.88 0.06 0  0.89 0.06 0  0.9 0.06 0  0.91 0.06 0  0.92 0.06 0  0.93 0.06 0  0.9399999999999999 0.06 0  0.95 0.06 0  0.96 0.06 0  0.97 0.06 0  0.98 0.06 0  0.99 0.06 0  1 0.06 0  0 0.07000000000000001 0  0.01 0.07000000000000001 0  0.02 0.07000000000000001 0  0.03 0.07000000000000001 0  0.04 0.07000000000000001 0  0.05 0.07000000000000001 0  0.06 0.07000000000000001 0  0.07000000000000001 0.07000000000000001 0  0.08 0.07000000000000001 0  0.09 0.07000000000000001 0  0.1 0.07000000000000001 0  0.11 0.07000000000000001 0  0.12 0.07000000000000001 0  0.13 0.07000000000000001 0  0.14 0.07000000000000001 0  0.15 0.07000000000000001 0  0.16 0.07000000000000001 0  0.17 0.0700
[...]
<PointData  Scalars="Indicator Function"> 
<DataArray  type="Float64"  Name="Indicator Function"  format="ascii">-7.2717388926048521e-19  6.5521841527705408e-18  4.2640153059505968e-17  1.1794152449520490e-18  9.9859755671969485e-17  -2.6559767934842402e-19  -1.9259299443872359e-33  9.2838642600821101e-17  2.2981860413085515e-16  -7.7037197775489434e-34  8.4847515139281347e-17  6.2931363147818413e-17  3.8518598887744717e-34  -1.1087457045653960e-18  1.2629692990504995e-16  -2.2143727353386597e-18  -1.9705691329047761e-18  2.2371213750509037e-16  -9.5634832267634427e-19  -1.0912808598415277e-18  8.4295370420062224e-16  -1.6399419664509752e-18  -8.1997098322548238e-19  1.2958742520564354e-16  -2.8122551163409046e-19  -9.2403924496663328e-19  -1.0960747304841708e-18  -5.1222292845572256e-19  5.9213800681024025e-17  -8.7400219038050568e-19  -2.0055023137319784e-18  -1.0027511568659892e-18  -1.0435405388472728e-18  -1.2571031795396864e-18  4.0828833730289845e-17  -4.1163363551267059e-19  -2.2910276716485506e-18  -4.7589077778406923e-18  -5.1765386745639951e-18  -3.9913693058715591e-18  8.7585194710528700e-16  -7.1689877995839018e-21  -1.3567824679487101e-18  -9.7566577689232999e-19  -1.1786161906155194e-18  -5.8930809530773264e-19  1.6214956507203844e-16  -6.2241376269729866e-19  -1.9514466415207798e-19  -4.9781726146265838e-19  -2.4890863073132928e-19  -3.1132531822981862e-19  -7.2503140979819016e-20  -4.8605046597023571e-19  -2.3148332582206928e-19  8.7870553712667636e-34  1.2325951644078309e-31  3.7615819226313200e-36  1.5046327690525280e-36  7.5231638452626401e-37  -2.0943490273793001e-23  -4.7019774032891500e-37  -1.6482908724290639e-21  -9.6081279669528686e-22  -5.2531262633799327e-21  -9.0237909435769078e-21  -2.7975288059557494e-20  -8.4045452777857744e-21  3.2447640674520332e-17  -6.8968554020161069e-20  -2.2052825120604713e-20  -6.9747456761882204e-21  -3.7916983495111324e-21  -8.3104181217807145e-20  -2.3929972130253307e-19  -1.3577023471246144e-19  -3.8578681035764087e-20  -7.7568927894617547e-20  -8.0959786180810375e-20  -7.2594132816684458e-20  -3.9291173054142446e-20  1.3328846638343894e-17  -2.8574022558438291e-20  -5.7639210116993641e-20  -5.5028987300915361e-20  -4.5120651766770546e-20  -3.0185135179997740e-20  -1.4346216187628958e-20  -6.0534723825628480e-21  -1.6607244529109228e-21  2.3509887016445750e-37  -3.3706898422854318e-22  -9.8227151497437653e-22  3.3929193630864380e-20  -1.4550077212049313e-21  -1.3043476465579184e-21  -9.4478291180837332e-22  -7.0597348627497569e-22  -1.8915658783902176e-22  0.0000000000000000e+00  9.4039548065783001e-38  1.9259299443872359e-34  1.3099600226828323e-02  3.9580804538129448e-02  1.2000740283178756e-02  1.0812571354601435e-02  7.1899361673272459e-03  4.7845824389761236e-03  1.5902387188730079e-03  2.5233779175921702e-02  3.1508577978360715e-02  9.4525300038775901e-04  4.2959875455668844e-02  3.6941561372909925e-03  3.9946773935434304e-02  7.2094631965830165e-03  4.9230094952007863e-02  3.9384349291365077e-02  1.5806443004948465e-02  3.4456079597132649e-02  3.9317536589910329e-02  2.7032972490132475e-02  3.8581001466897642e-02  2.9542568116071404e-02  3.1347296211574095e-03  1.0132216875218944e-02  3.3292022394459539e-02  3.9490253982229821e-02  1.8454775917790156e-02  4.1344148662301470e-03  1.1056769809107957e-02  1.0216238851120584e-02  3.6127917891256016e-02  3.5338422352367817e-02  1.1295439514104294e-03  2.2081185668059604e-02  1.4830664700064201e-02  1.1805618671359744e-02  3.5368676137647749e-02  6.8044523111071689e-02  5.9229969027805619e-02  4.2287132760581915e-02  2.2662697480669208e-02  1.2914500313132506e-04  2.4377047566740861e-02  5.3875083336313292e-03  2.1232061747475543e-02  2.9959250085608513e-02  4.3541088730818765e-03  1.1212409559015288e-02  3.5154137470345564e-03  8.9678785328873144e-03  5.9922747981680392e-03  2.6122009495992290e-03  2.5614729747693160e-03  7.4751703023225799e-03  4.3244772849772501e-04  1.7098397365773552e-03  7.3173555368808774e-04  2.7366201015264699e-04  1.4910625981908948e-04  7.9217670336741380e-05  1.5303474057063552e-05  6.5167410956759380e-05  1.3045233268332349e-05  1.8921715687647415e-05  9.4631909929152109e-05  2.8594811243699353e-04  3.6098393130392482e-04  3.2193274803857087e-06  8.9578051355388127e-04  7.9453675996497667e-04  2.5129169622628214e-04  1.3661033019167737e-04  3.4507659994384996e-04  2.4034934548759191e-03  3.1090938153138458e-03  8.9127220617926108e-04  6.9497173414844924e-04  1.0498717119726889e-03  9.3350599551722600e-04  8.4098664025140436e-04  2.8731352917664123e-04  3.2972828880406573e-04  6.6595432687390399e-04  7.0535853738233698e-04  6.3863483812074415e-04  4.9350398287379457e-04  3.3574356079329060e-04  2.0601393221760512e-04  1.1176310974662964e-04  4.9321948573708321e-05  1.2756736110785651e-05  6.0720950070792739e-06  1.4658983011721498e-05  1.7754062007347661e-05  1.7334057920485059e-05  1.4830009339756768e-05  1.1468688904475432e-05  7.2012992885790927e-06  1.1086516977071318e-06  -4.8195268383713788e-37  -5.8568113579349676e-19  6.3779706209114708e-03  6.5402946839523872e-03  1.5729229052458903e-02  1.5756471203925544e-02  3.7321468063451754e-02  1.7784311755126959e-04  2.9517008126520312e-02  1.7349522168013765e-02  2.5087648533902218e-02  5.7642063938298814e-02  4.6943133477385046e-02  5.9674601039017552e-03  6.1881725088673491e-02  7.6956201891150308e-02  7.0503133719366146e-02  8.2687905570284215e-03  7.1997722128742628e-02  5.6256982977975151e-03  1.9904937495984820e-02  5.3957138180615004e-03  5.2749316549373156e-02  5.1923878821266138e-02  2.4235336915321235e-02  2.5221958298268627e-03  1.0742060283238257e-02  5.2230411731926480e-03  9.5482471318957885e-04  2.1472915012078753e-02  9.6250627776687196e-03  6.1782019197513818e-02  5.3272845535650738e-02  1.5098014867871374e-02  3.6844798436432138e-02  3.5941512597759379e-02  2.2154000593742919e-02  1.1915288828795615e-02  4.5918943745652273e-02  6.7890419793982693e-02  6.6600014827677870e-02  1.0447507991761711e-01  3.5606476700829129e-02  1.5786818461553855e-02  3.7388036140576452e-03  1.9325427040320971e-02  1.7751939913776899e-02  1.9710857358877294e-02  3.4097208681817200e-04  2.8293740902954459e-02  1.7179472002302344e-02  1.7849952818471092e-02  4.3347952103480435e-03  3.4524967214684412e-03  4.9306119645304205e-03  1.5385569756220668e-02  1.8500393184838046e-03  5.3158306991091502e-04  2.1660462370013595e-03  6.7767551808615469e-04  3.2213005726627246e-04  1.5152100204027095e-04  8.4538843001378877e-05  5.0997456766122565e-05  3.7329916709731468e-05  2.6870718544663038e-05  8.8892332097859875e-05  1.6699762774059900e-04  7.1551422317620483e-04  4.5043672917941627e-05  4.9437445494048514e-04  1.6879441361657057e-03  1.3645693946407763e-04  5.0905304160403205e-04  3.4736547862192197e-04  1.9495880967503535e-03  4.6958654856713829e-03  2.8941788073509290e-03  7.3531477548613184e-04  1.4928904073677636e-03  1.2407233191261712e-03  1.1770187714270179e-03  7.9674862241710322e-04  2.1735725018537936e-04  8.4656645956819013e-04  1.0731466755366000e-03  9.3071093689471151e-04  7.5769245828105787e-04  5.4766146598836244e-04  3.6099093365184496e-04  2.1395674194824995e-04  1.0811240633739368e-04  4.0385191351930903e-05  3.0222937089080641e-06  1.5244938126600786e-05  2.3274631876710336e-05  2.5630168263217528e-05  2.3884907283786088e-05  1.9561421021360971e-05  1.5335797157818835e-05  6.5605156419460879e-06  1.6388179917979599e-21  7.7037197775489434e-34  2.8440214977485164e-02  1.9504408499159138e-02  6.8321150636236866e-02  2.7186220044237264e-02  7.3532710342262119e-03  1.1638103579371445e-02  2.3734590728212292e-02  1.2017550443560369e-02  4.1530177341098061e-02  1.0132776136941957e-01  5.7984589068510867e-02  6.6570298657103899e-02  6.4953889790041783e-02  4.2787091197392761e-02  3.5507869368862126e-02  1.2625188186421346e-01  3.7453177666679993e-02  2.5542872806419811e-02  4.5601500919941730e-02  9.1102033155729609e-02  9.5606355024609527e-02  1.1203208901901661e-01  1.0926408021999649e-01  3.8338160760579137e-02  9.9569216320431059e-03  6.3931887352138284e-02  1.1018442742743975e-01  5.8893426076361416e-02  3.5168885749622559e-03  1.3189961690768899e-02  4.1780543419946060e-02  8.8482902072400074e-02  8.6692507032874844e-02  1.9025306968762864e-02  4.4863096102362200e-02  2.2874509282804781e-02  3.4891257866934228e-02  7.0580339585827781e-02  1.1571075785270847e-01  6.1965806056733061e-02  6.4750942101586342e-02  3.1556018839341886e-02  1.8600148066443913e-02  4.0446651296943907e-02  6.5077593659063175e-03  5.4829722684835422e-02  8.5753282579456788e-02  3.3426470664219755e-02  3.3824225424000022e-02  2.1980161615907847e-02  2.7211854765768772e-02  1.8256937645353036e-02  6.0260881893084558e-04  4.7016822884928360e-03  1.7425303172885546e-02  5.4107765059862277e-03  2.4743721853540822e-03  1.7316317077940813e-03  5.8025952487372181e-04  3.5676250530925120e-04  1.8564818731083688e-04  5.7628919009829084e-05  1.5464789583239774e-04  2.8467739545757374e-05  7.0836843181763991e-05  1.8393726266353370e-04  4.3214324584668271e-04  7.3102190172502656e-04  2.7648339569685679e-04  1.5979364321777551e-03  1.4814812525218378e-03  9.7771806809650720e-04  7.3323043202035864e-05  3.3309248993234372e-04  4.3231604412769130e-03  5.4001802234221472e-03  4.7342327782110200e-04  2.1022542509729044e-03  1.6240341538722126e-03  1.0428678049141291e-03  1.1751412930678497e-03  3.1876145770172459e-04  4.9042146315648387e-04  1.3280496023811020e-03  1.1931349861761793e-03  9.2053646409135281e-04  6.8763019942011709e-04  4.8098968039442686e-04  3.1366859723799871e-04  1.8189555998141224e-04  8.7357361092080062e-05  2.9569592792536711e-05  1.2248810853970778e-06  1.6384241123307052e-05  2.3150317390180046e-05  2.4318314908565055e-05  2.1981274344018581e-05  1.7822242656492793e-05  1.2196000063249497e-05  -4.0281940085693945e-22  -4.0298914730817949e-19  2.5107379764360220e-02  2.5405531566877606e-02  3.6415964308331522e-02  9.8955762441016309e-03  2.1311835347619615e-02  3.6754605258020372e-02  3.9694123990949751e-02  3.9318141435469897e-02  3.0103466280647657e-02  3.2797762761854125e-03  3.4454683166846294e-02  7.1833353076173972e-02  7.0363145399500157e-02  5.9382926077654115e-02  1.6076416455900358e-01  3.5506917928948549e-02  1.0655535134782051e-02  9.5541814925242871e-02  2.5084607193274922e-02  5.3569703837862651e-02  4.3327070828453565e-02  2.6795975962198272e-02  3.7186072201173176e-02  1.9260366221221590e-03  3.8521719706599601e-03  2.1751921083913502e-02  4.0071373644462407e-02  4.3459386138005179e-02  4.4575166780925567e-02  2.7722542477651727e-02  7.8237349507539203e-02  8.2575305321737832e-02  4.3206296538527096e-02  1.0360050908422580e-01  2.3330250590511005e-02  1.6641278232575156e-02  1.9500535452324535e-02  5.7949879442186256e-02  7.9245306587816436e-02  9.4818681797637569e-02  1.2019271861829470e-01  1.2876057366765678e-02  2.8484072721180771e-02  3.2487593592529411e-03  3.4314663148925797e-02  3.2293606729209494e-02  5.6621012203333682e-04  3.1513580540826633e-02  2.0483309781713071e-02  2.1024010802880223e-02  1.7891932523270950e-02  1.1278149672688657e-03  1.0695580797882501e-02  4.9593687975457478e-03  2.3631357616074163e-02  3.4061668879022274e-03  4.2761760919916361e-03  3.1409792151326573e-03  1.1026502525746940e-03  5.3241429504038019e-04  3.1535030442615648e-04  2.0741666349211781e-04  1.1975654660687768e-04  1.3712964449306040e-04  5.8369083284765772e-05  4.1471645163217294e-05  1.8452272812566534e-04  9.0675180379780145e-04  4.0035507452010688e-05  3.2214847661662910e-04  2.3994619770407164e-03  1.5968392212884646e-04  1.1861080476598946e-03  6.7167451164549402e-04  2.2431089614286808e-03  6.4317559012301625e-03  3.8055017879463685e-03  2.0263433986785792e-03  2.5307056236237354e-03  1.3416655017014416e-03  1.0420178201127138e-03  8.2996552783454018e-04  1.6050969761733007e-05  1.0517569319246644e-03  1.5244582369321000e-03  1.1391036967580387e-03  8.1958494828436080e-04  5.7591893519835075e-04  3.9331126593038132e-04  2.5048379924585236e-04  1.3916086992109218e-04  6.3018641705853506e-05  1.9552048654003723e-05  2.8078410656585789e-06  1.4079168024963606e-05  1.8986936996913714e-05  1.8684910804664920e-05  1.5135964981981830e-05  1.1427891840392912e-05  2.3881457418851850e-21  -2.1315934245125033e-18  6.7712417926198226e-02  5.3734048084545342e-02  1.0912090352671811e-02  7.7315509403611801e-02  6.9269206387386512e-02  1.3122858585880135e-02  1.2572466804425496e-02  1.8406822943409951e-02  4.3636222541530163e-02  3.1401038223326634e-02  1.0915536847204788e-01  1.1718992941414094e-01  2.1288111264558113e-02  7.2323565188740668e-02  1.5283016227562604e-02  3.9562282817799076e-03  1.6320052525525450e-01  6.8604585258235521e-03  3.9373331690295846e-02  1.8594843688657086e-02  8.3017088613008508e-02  1.1262064871705998e-01  1.4545355071293842e-01  1.5442385077685952e-01  7.3742164764103335e-02  1.2323701136300593e-02  4.6261187744011112e-02  1.2275926802962360e-01  7.7826214765074245e-02  1.6132449270171628e-02  3.0321410663562542e-02  8.3819669165888497e-02  1.3584055751060853e-01  8.1886067306641663e-02  1.9867059782007145e-03  6.4986505301265735e-02  2.4109390684840418e-02  5.6310993584370202e-02  9.1226832552176493e-02  1.2021781981414204e-01  5.2676301582751252e-02  9.1830641608259891e-02  1.9242212715746155e-02  4.9031875069207802e-02  3.7491705131914813e-02  1.2700085601951776e-02  7.1949220576288872e-02  1.0479093473257417e-01  4.3356815279255383e-02  4.7711466109306912e-02  3.9568675399321983e-02  3.9222937217583832e-02  2.4252440195154348e-02  1.4995011231050104e-03  3.7561823840650834e-03  2.6653568430172296e-02  9.3342296658643718e-03  6.5138361224099548e-04  2.5227617603388358e-03  7.2887526893208843e-04  4.8408498749121361e-04  2.7937940676055786e-04  1.4814371303780390e-04  2.4055831658993847e-04  4.5304635977041414e-05  1.4812696515030708e-04  1.4899796334449177e-04  4.3650782111615000e-04  8.8069504322600776e-04  4.8083459474600236e-04  1.6963548669036786e-03  1.9927529692332544e-03  1.3019847138418554e-03  2.0839299251799328e-04  2.3960356827301035e-05  4.9682452060222215e-03  6.8262273008464474e-03  5.2053171940072960e-04  3.3261974752686837e-03  2.2128755542435985e-03  9.9554480026767082e-04  1.1042084805269977e-03  2.4128463074273783e-04  3.2106064949140724e-04  1.5615946418424821e-03  1.4711506826579578e-03  9.9593624280816377e-04  6.8392327271828797e-04  4.7119300565255992e-04  3.1607765010363700e-04  1.9187045943673409e-04  9.8028596210300209e-05  3.9689813366506768e-05  9.0217304415712612e-06  6.0637020461311292e-06  1.3275395602760188e-05  1.5040523654192619e-05  1.2774506737919472e-05  7.9102161160219582e-06  -4.3910520308842604e-22  -8.2943416708389147e-19  5.2850401350800949e-02  2.1345448601966483e-02  1.5648362557662398e-02  6.9277793794297868e-02  3.1736002139188479e-02  1.5421826556345266e-02  1.7532341727131490e-02  5.5599622020566675e-02  2.5970456432855157e-02  1.9706834185127756e-02  1.3653404706851122e-02  1.6304340548620844e-02  1.5960710972026695e-02  1.0401821026671790e-01  7.9539949748626288e-03  1.6248527430304388e-01  3.5204617648908914e-03  4.8030188818110608e-02  8.5615424045467806e-02  1.9518979769929060e-02  4.9177413728312774e-02  8.5391008782980907e-02  1.5375978356727630e-02  5.7887228953728501e-03  5.9544104280519872e-02  2.1829680781079584e-02  7.9708724880051644e-03  6.2722640654425899e-02  9.7150698398430435e-02  6.4404429082266443e-02  2.3709984824784210e-02  7.2035350161152145e-02  6.9417894112181175e-02  6.9340412752263270e-02  1.4535825421445361e-01  1.7545761451504102e-04  2.2453492202608186e-02  1.1768534839389453e-02  6.4536965210943986e-02  9.7441983872786866e-02  1.1891591544864920e-01  1.0325065019797834e-01  8.9155827835619029e-03  2.7448310320817092e-02  9.8110282219535851e-03  4.6036061070312211e-02  4.5905529171988708e-02  2.3255730460892542e-02  7.0322861993368235e-02  1.5129667215888548e-03  8.8578041259293559e-03  4.7118551369396975e-03  1.2964926582216740e-02  2.0225224152132484e-02  3.2964916012143135e-03  2.5549159625274358e-02  8.8356751739270666e-03  9.7569426602042587e-03  3.1706577320197668e-03  1.6283309085993868e-03  6.2608978699145044e-04  3.8534521297429899e-04  2.4443664891232931e-04  1.5817673161285669e-04  1.9042852880115499e-04  9.5381063261971129e-05  2.0174049069710477e-05  1.8825487151642134e-04  9.3567387642922155e-04  7.8471507060381829e-05  1.7889028247626334e-04  2.6777002963790301e-03  3.7903163871203958e-04  1.5343365767153440e-03  6.9918534265545117e-04  2.1853942919606811e-03  7.3425414887117171e-03  4.6840761697597016e-03  2.5605016643698878e-03  3.4686462260149664e-03  1.5662461831379170e-03  9.1986840466268011e-04  7.7809132389821333e-04  7.8946014069559184e-05  1.0195957664024156e-03  1.7876851651387371e-03  1.3104805499599837e-03  8.2836554665121286e-04  5.5115750308941381e-04  3.8015135510715425e-04  2.5086145459673266e-04  1.4331392544268448e-04  6.6250228613086372e-05  2.2524557256484213e-05  9.4785563344960695e-07  9.4235120922046710e-06  1.3500680952807394e-05  1.2181374258787175e-05  7.0455124912148061e-06  -3.9110450940153940e-22  -2.6203293446737836e-19  1.9002828797588356e-02  2.4098270647425923e-02  1.7360855253631313e-03  5.5137275889444323e-02  3.9931318415423980e-02  8.0688882073490842e-02  2.1173359623061889e-03  3.6534357739098543e-02  9.3561565781276714e-04  5.3267656722453635e-02  2.0783198656459421e-02  8.0137322158737825e-02  9.3806590247507662e-02  4.6162294331699456e-03  1.9448635915072027e-02  2.4930894783024578e-02  6.2745100144510096e-02  1.3680157799527309e-01  6.7223657866080097e-03  3.9116031092666440e-02  1.7380451607627251e-03  5.0762258173422760e-02  7.2662267074774162e-02  1.2331137684831694e-01  1.2728487931876853e-01  5.5894601930359035e-02  1.5586793106588595e-02  2.9871175687545333e-02  8.3099238199606615e-02  5.7671319619850510e-02  3.6921388313356424e-02  5.8489874286289829e-02  9.3253181470878743e-02  1.6156250597919722e-01  5.1317030545899235e-02  5.1772674478256293e-02  6.2625458662032965e-02  1.9416288682722351e-02  6.9522018972438204e-02  1.0015715110690622e-01  1.1694382020408825e-01  6.9215763208041667e-02  1.0184366454609946e-01  1.2127987567880265e-03  6.3589871487472374e-02  3.2928316980882617e-02  8.8894237064532002e-03  7.8952325189471165e-02  8.8521166919319105e-02  1.6833404367404579e-02  3.6760681164711519e-02  3.8889497423786723e-02  3.6555566113989683e-02  1.9469568126093410e-02  8.0660755835714887e-03  4.9792050748930653e-03  3.1578159334917720e-02  8.5333330905414412e-03  3.6277913989506308e-03  3.0428340881485283e-03  9.0745390490552260e-04  5.2443062743091212e-04  2.8784828361743580e-04  1.4184253057146498e-04  2.2218660958660231e-04  5.0249644833000242e-05  1.3084545136490174e-04  1.4028822174141776e-04  5.1741760366604136e-04  9.0173003945442833e-04  4.4930110039723576e-04  1.6960611528631371e-03  2.2668019059872038e-03  1.2499017176758871e-03  4.2757740509660508e-04  1.1263348464499422e-04  5.2488177034590204e-03  7.7089171972386933e-03  8.9396364116408624e-04  4.1013770985548481e-03  2.8878329270026694e-03  1.0696231637251348e-03  9.4507391489100751e-04  1.7564465518678899e-04  2.2917814272608173e-04  1.6228036729755012e-03  1.7318310698368946e-03  1.1100456491701929e-03  6.7471926549297217e-04  4.4568994305982585e-04  3.0546348435069422e-04  1.9399190584581139e-04  1.0317064147208143e-04  4.3850216374990830e-05  1.2229580612044670e-05  3.2384199398790895e-06  1.0483761768202750e-05  1.1745386020775265e-05  7.9529390392717574e-06  -5.1131528750270106e-22  -5.8439344425431901e-19  4.7203657041043285e-03  1.3419278029614450e-02  1.7206721600937797e-02  3.2898155881134816e-02  2.5395541325320941e-02  6.8212320989808048e-02  3.9534079326307052e-03  1.4357928797472754e-03  4.4988806574971806e-02  1.8157971888169470e-02  1.0565124383998462e-02  8.2633292121223785e-03  1.8794840063032558e-02  3.5387885162747136e-02  6.9916171812009598e-02  8.7351255641160402e-03  1.2