<?xml version="1.0"?>
<VTKFile type="UnstructuredGrid"  version="0.1"  >
<UnstructuredGrid>
<Piece  NumberOfPoints="10201" NumberOfCells="20000">
<Points>
<DataArray  type="Float64"  NumberOfComponents="3"  format="ascii">0 0 0  0.01 0 0  0.02 0 0  0.03 0 0  0.04 0 0  0.05 0 0  0.06 0 0  0.07000000000000001 0 0  0.08 0 0  0.09 0 0  0.1 0 0  0.11 0 0  0.12 0 0  0.13 0 0  0.14 0 0  0.15 0 0  0.16 0 0  0.17 0 0  0.18 0 0  0.19 0 0  0.2 0 0  0.21 0 0  0.22 0 0  0.23 0 0  0.24 0 0  0.25 0 0  0.26 0 0  0.27 0 0  0.28 0 0  0.29 0 0  0.3 0 0  0.31 0 0  0.32 0 0  0.33 0 0  0.34 0 0  0.35 0 0  0.36 0 0  0.37 0 0  0.38 0 0  0.39 0 0  0.4 0 0  0.41 0 0  0.42 0 0  0.43 0 0  0.44 0 0  0.45 0 0  0.46 0 0  0.47 0 0  0.48 0 0  0.49 0 0  0.5 0 0  0.51 0 0  0.52 0 0  0.53 0 0  0.54 0 0  0.55 0 0  0.5600000000000001 0 0  0.57 0 0  0.58 0 0  0.59 0 0  0.6 0 0  0.61 0 0  0.62 0 0  0.63 0 0  0.64 0 0  0.65 0 0  0.66 0 0  0.67 0 0  0.68 0 0  0.6899999999999999 0 0  0.7 0 0  0.71 0 0  0.72 0 0  0.73 0 0  0.74 0 0  0.75 0 0  0.76 0 0  0.77 0 0  0.78 0 0  0.79 0 0  0.8 0 0  0.8100000000000001 0 0  0.82 0 0  0.83 0 0  0.84 0 0  0.85 0 0  0.86 0 0  0.87 0 0  0.88 0 0  0.89 0 0  0.9 0 0  0.91 0 0  0.92 0 0  0.93 0 0  0.9399999999999999 0 0  0.95 0 0  0.96 0 0  0.97 0 0  0.98 0 0  0.99 0 0  1 0 0  0 0.01 0  0.01 0.01 0  0.02 0.01 0  0.03 0.01 0  0.04 0.01 0  0.05 0.01 0  0.06 0.01 0  0.07000000000000001 0.01 0  0.08 0.01 0  0.09 0.01 0  0.1 0.01 0  0.11 0.01 0  0.12 0.01 0  0.13 0.01 0  0.14 0.01 0  0.15 0.01 0  0.16 0.01 0  0.17 0.01 0  0.18 0.01 0  0.19 0.01 0  0.2 0.01 0  0.21 0.01 0  0.22 0.01 0  0.23 0.01 0  0.24 0.01 0  0.25 0.01 0  0.26 0.01 0  0.27 0.01 0  0.28 0.01 0  0.29 0.01 0  0.3 0.01 0  0.31 0.01 0  0.32 0.01 0  0.33 0.01 0  0.34 0.01 0  0.35 0.01 0  0.36 0.01 0  0.37 0.01 0  0.38 0.01 0  0.39 0.01 0  0.4 0.01 0  0.41 0.01 0  0.42 0.01 0  0.43 0.01 0  0.44 0.01 0  0.45 0.01 0  0.46 0.01 0  0.47 0.01 0  0.48 0.01 0  0.49 0.01 0  0.5 0.01 0  0.51 0.01 0  0.52 0.01 0  0.53 0.01 0  0.54 0.01 0  0.55 0.01 0  0.5600000000000001 0.01 0  0.57 0.01 0  0.58 0.01 0  0.59 0.01 0  0.6 0.01 0  0.61 0.01 0  0.62 0.01 0  0.63 0.01 0  0.64 0.01 0  0.65 0.01 0  0.66 0.01 0  0.67 0.01 0  0.68 0.01 0  0.6899999999999999 0.01 0  0.7 0.01 0  0.71 0.01 0  0.72 0.01 0  0.73 0.01 0  0.74 0.01 0  0.75 0.01 0  0.76 0.01 0  0.77 0.01 0  0.78 0.01 0  0.79 0.01 0  0.8 0.01 0  0.8100000000000001 0.01 0  0.82 0.01 0  0.83 0.01 0  0.84 0.01 0  0.85 0.01 0  0.86 0.01 0  0.87 0.01 0  0.88 0.01 0  0.89 0.01 0  0.9 0.01 0  0.91 0.01 0  0.92 0.01 0  0.93 0.01 0  0.9399999999999999 0.01 0  0.95 0.01 0  0.96 0.01 0  0.97 0.01 0  0.98 0.01 0  0.99 0.01 0  1 0.01 0  0 0.02 0  0.01 0.02 0  0.02 0.02 0  0.03 0.02 0  0.04 0.02 0  0.05 0.02 0  0.06 0.02 0  0.07000000000000001 0.02 0  0.08 0.02 0  0.09 0.02 0  0.1 0.02 0  0.11 0.02 0  0.12 0.02 0  0.13 0.02 0  0.14 0.02 0  0.15 0.02 0  0.16 0.02 0  0.17 0.02 0  0.18 0.02 0  0.19 0.02 0  0.2 0.02 0  0.21 0.02 0  0.22 0.02 0  0.23 0.02 0  0.24 0.02 0  0.25 0.02 0  0.26 0.02 0  0.27 0.02 0  0.28 0.02 0  0.29 0.02 0  0.3 0.02 0  0.31 0.02 0  0.32 0.02 0  0.33 0.02 0  0.34 0.02 0  0.35 0.02 0  0.36 0.02 0  0.37 0.02 0  0.38 0.02 0  0.39 0.02 0  0.4 0.02 0  0.41 0.02 0  0.42 0.02 0  0.43 0.02 0  0.44 0.02 0  0.45 0.02 0  0.46 0.02 0  0.47 0.02 0  0.48 0.02 0  0.49 0.02 0  0.5 0.02 0  0.51 0.02 0  0.52 0.02 0  0.53 0.02 0  0.54 0.02 0  0.55 0.02 0  0.5600000000000001 0.02 0  0.57 0.02 0  0.58 0.02 0  0.59 0.02 0  0.6 0.02 0  0.61 0.02 0  0.62 0.02 0  0.63 0.02 0  0.64 0.02 0  0.65 0.02 0  0.66 0.02 0  0.67 0.02 0  0.68 0.02 0  0.6899999999999999 0.02 0  0.7 0.02 0  0.71 0.02 0  0.72 0.02 0  0.73 0.02 0  0.74 0.02 0  0.75 0.02 0  0.76 0.02 0  0.77 0.02 0  0.78 0.02 0  0.79 0.02 0  0.8 0.02 0  0.8100000000000001 0.02 0  0.82 0.02 0  0.83 0.02 0  0.84 0.02 0  0.85 0.02 0  0.86 0.02 0  0.87 0.02 0  0.88 0.02 0  0.89 0.02 0  0.9 0.02 0  0.91 0.02 0  0.92 0.02 0  0.93 0.02 0  0.9399999999999999 0.02 0  0.95 0.02 0  0.96 0.02 0  0.97 0.02 0  0.98 0.02 0  0.99 0.02 0  1 0.02 0  0 0.03 0  0.01 0.03 0  0.02 0.03 0  0.03 0.03 0  0.04 0.03 0  0.05 0.03 0  0.06 0.03 0  0.07000000000000001 0.03 0  0.08 0.03 0  0.09 0.03 0  0.1 0.03 0  0.11 0.03 0  0.12 0.03 0  0.13 0.03 0  0.14 0.03 0  0.15 0.03 0  0.16 0.03 0  0.17 0.03 0  0.18 0.03 0  0.19 0.03 0  0.2 0.03 0  0.21 0.03 0  0.22 0.03 0  0.23 0.03 0  0.24 0.03 0  0.25 0.03 0  0.26 0.03 0  0.27 0.03 0  0.28 0.03 0  0.29 0.03 0  0.3 0.03 0  0.31 0.03 0  0.32 0.03 0  0.33 0.03 0  0.34 0.03 0  0.35 0.03 0  0.36 0.03 0  0.37 0.03 0  0.38 0.03 0  0.39 0.03 0  0.4 0.03 0  0.41 0.03 0  0.42 0.03 0  0.43 0.03 0  0.44 0.03 0  0.45 0.03 0  0.46 0.03 0  0.47 0.03 0  0.48 0.03 0  0.49 0.03 0  0.5 0.03 0  0.51 0.03 0  0.52 0.03 0  0.53 0.03 0  0.54 0.03 0  0.55 0.03 0  0.5600000000000001 0.03 0  0.57 0.03 0  0.58 0.03 0  0.59 0.03 0  0.6 0.03 0  0.61 0.03 0  0.62 0.03 0  0.63 0.03 0  0.64 0.03 0  0.65 0.03 0  0.66 0.03 0  0.67 0.03 0  0.68 0.03 0  0.6899999999999999 0.03 0  0.7 0.03 0  0.71 0.03 0  0.72 0.03 0  0.73 0.03 0  0.74 0.03 0  0.75 0.03 0  0.76 0.03 0  0.77 0.03 0  0.78 0.03 0  0.79 0.03 0  0.8 0.03 0  0.8100000000000001 0.03 0  0.82 0.03 0  0.83 0.03 0  0.84 0.03 0  0.85 0.03 0  0.86 0.03 0  0.87 0.03 0  0.88 0.03 0  0.89 0.03 0  0.9 0.03 0  0.91 0.03 0  0.92 0.03 0  0.93 0.03 0  0.9399999999999999 0.03 0  0.95 0.03 0  0.96 0.03 0  0.97 0.03 0  0.98 0.03 0  0.99 0.03 0  1 0.03 0  0 0.04 0  0.01 0.04 0  0.02 0.04 0  0.03 0.04 0  0.04 0.04 0  0.05 0.04 0  0.06 0.04 0  0.07000000000000001 0.04 0  0.08 0.04 0  0.09 0.04 0  0.1 0.04 0  0.11 0.04 0  0.12 0.04 0  0.13 0.04 0  0.14 0.04 0  0.15 0.04 0  0.16 0.04 0  0.17 0.04 0  0.18 0.04 0  0.19 0.04 0  0.2 0.04 0  0.21 0.04 0  0.22 0.04 0  0.23 0.04 0  0.24 0.04 0  0.25 0.04 0  0.26 0.04 0  0.27 0.04 0  0.28 0.04 0  0.29 0.04 0  0.3 0.04 0  0.31 0.04 0  0.32 0.04 0  0.33 0.04 0  0.34 0.04 0  0.35 0.04 0  0.36 0.04 0  0.37 0.04 0  0.38 0.04 0  0.39 0.04 0  0.4 0.04 0  0.41 0.04 0  0.42 0.04 0  0.43 0.04 0  0.44 0.04 0  0.45 0.04 0  0.46 0.04 0  0.47 0.04 0  0.48 0.04 0  0.49 0.04 0  0.5 0.04 0  0.51 0.04 0  0.52 0.04 0  0.53 0.04 0  0.54 0.04 0  0.55 0.04 0  0.5600000000000001 0.04 0  0.57 0.04 0  0.58 0.04 0  0.59 0.04 0  0.6 0.04 0  0.61 0.04 0  0.62 0.04 0  0.63 0.04 0  0.64 0.04 0  0.65 0.04 0  0.66 0.04 0  0.67 0.04 0  0.68 0.04 0  0.6899999999999999 0.04 0  0.7 0.04 0  0.71 0.04 0  0.72 0.04 0  0.73 0.04 0  0.74 0.04 0  0.75 0.04 0  0.76 0.04 0  0.77 0.04 0  0.78 0.04 0  0.79 0.04 0  0.8 0.04 0  0.8100000000000001 0.04 0  0.82 0.04 0  0.83 0.04 0  0.84 0.04 0  0.85 0.04 0  0.86 0.04 0  0.87 0.04 0  0.88 0.04 0  0.89 0.04 0  0.9 0.04 0  0.91 0.04 0  0.92 0.04 0  0.93 0.04 0  0.9399999999999999 0.04 0  0.95 0.04 0  0.96 0.04 0  0.97 0.04 0  0.98 0.04 0  0.99 0.04 0  1 0.04 0  0 0.05 0  0.01 0.05 0  0.02 0.05 0  0.03 0.05 0  0.04 0.05 0  0.05 0.05 0  0.06 0.05 0  0.07000000000000001 0.05 0  0.08 0.05 0  0.09 0.05 0  0.1 0.05 0  0.11 0.05 0  0.12 0.05 0  0.13 0.05 0  0.14 0.05 0  0.15 0.05 0  0.16 0.05 0  0.17 0.05 0  0.18 0.05 0  0.19 0.05 0  0.2 0.05 0  0.21 0.05 0  0.22 0.05 0  0.23 0.05 0  0.24 0.05 0  0.25 0.05 0  0.26 0.05 0  0.27 0.05 0  0.28 0.05 0  0.29 0.05 0  0.3 0.05 0  0.31 0.05 0  0.32 0.05 0  0.33 0.05 0  0.34 0.05 0  0.35 0.05 0  0.36 0.05 0  0.37 0.05 0  0.38 0.05 0  0.39 0.05 0  0.4 0.05 0  0.41 0.05 0  0.42 0.05 0  0.43 0.05 0  0.44 0.05 0  0.45 0.05 0  0.46 0.05 0  0.47 0.05 0  0.48 0.05 0  0.49 0.05 0  0.5 0.05 0  0.51 0.05 0  0.52 0.05 0  0.53 0.05 0  0.54 0.05 0  0.55 0.05 0  0.5600000000000001 0.05 0  0.57 0.05 0  0.58 0.05 0  0.59 0.05 0  0.6 0.05 0  0.61 0.05 0  0.62 0.05 0  0.63 0.05 0  0.64 0.05 0  0.65 0.05 0  0.66 0.05 0  0.67 0.05 0  0.68 0.05 0  0.6899999999999999 0.05 0  0.7 0.05 0  0.71 0.05 0  0.72 0.05 0  0.73 0.05 0  0.74 0.05 0  0.75 0.05 0  0.76 0.05 0  0.77 0.05 0  0.78 0.05 0  0.79 0.05 0  0.8 0.05 0  0.8100000000000001 0.05 0  0.82 0.05 0  0.83 0.05 0  0.84 0.05 0  0.85 0.05 0  0.86 0.05 0  0.87 0.05 0  0.88 0.05 0  0.89 0.05 0  0.9 0.05 0  0.91 0.05 0  0.92 0.05 0  0.93 0.05 0  0.9399999999999999 0.05 0  0.95 0.05 0  0.96 0.05 0  0.97 0.05 0  0.98 0.05 0  0.99 0.05 0  1 0.05 0  0 0.06 0  0.01 0.06 0  0.02 0.06 0  0.03 0.06 0  0.04 0.06 0  0.05 0.06 0  0.06 0.06 0  0.07000000000000001 0.06 0  0.08 0.06 0  0.09 0.06 0  0.1 0.06 0  0.11 0.06 0  0.12 0.06 0  0.13 0.06 0  0.14 0.06 0  0.15 0.06 0  0.16 0.06 0  0.17 0.06 0  0.18 0.06 0  0.19 0.06 0  0.2 0.06 0  0.21 0.06 0  0.22 0.06 0  0.23 0.06 0  0.24 0.06 0  0.25 0.06 0  0.26 0.06 0  0.27 0.06 0  0.28 0.06 0  0.29 0.06 0  0.3 0.06 0  0.31 0.06 0  0.32 0.06 0  0.33 0.06 0  0.34 0.06 0  0.35 0.06 0  0.36 0.06 0  0.37 0.06 0  0.38 0.06 0  0.39 0.06 0  0.4 0.06 0  0.41 0.06 0  0.42 0.06 0  0.43 0.06 0  0.44 0.06 0  0.45 0.06 0  0.46 0.06 0  0.47 0.06 0  0.48 0.06 0  0.49 0.06 0  0.5 0.06 0  0.51 0.06 0  0.52 0.06 0  0.53 0.06 0  0.54 0.06 0  0.55 0.06 0  0.5600000000000001 0.06 0  0.57 0.06 0  0.58 0.06 0  0.59 0.06 0  0.6 0.06 0  0.61 0.06 0  0.62 0.06 0  0.63 0.06 0  0.64 0.06 0  0.65 0.06 0  0.66 0.06 0  0.67 0.06 0  0.68 0.06 0  0.6899999999999999 0.06 0  0.7 0.06 0  0.71 0.06 0  0.72 0.06 0  0.73 0.06 0  0.74 0.06 0  0.75 0.06 0  0.76 0.06 0  0.77 0.06 0  0.78 0.06 0  0.79 0.06 0  0.8 0.06 0  0.8100000000000001 0.06 0  0.82 0.06 0  0.83 0.06 0  0.84 0.06 0  0.85 0.06 0  0.86 0.06 0  0.87 0.06 0  0.88 0.06 0  0.89 0.06 0  0.9 0.06 0  0.91 0.06 0  0.92 0.06 0  0.93 0.06 0  0.9399999999999999 0.06 0  0.95 0.06 0  0.96 0.06 0  0.97 0.06 0  0.98 0.06 0  0.99 0.06 0  1 0.06 0  0 0.07000000000000001 0  0.01 0.07000000000000001 0  0.02 0.07000000000000001 0  0.03 0.07000000000000001 0  0.04 0.07000000000000001 0  0.05 0.07000000000000001 0  0.06 0.07000000000000001 0  0.07000000000000001 0.07000000000000001 0  0.08 0.07000000000000001 0  0.09 0.07000000000000001 0  0.1 0.07000000000000001 0  0.11 0.07000000000000001 0  0.12 0.07000000000000001 0  0.13 0.07000000000000001 0  0.14 0.07000000000000001 0  0.15 0.07000000000000001 0  0.16 0.07000000000000001 0  0.17 0.0700
[...]
<PointData  Scalars="Indicator Function"> 
<DataArray  type="Float64"  Name="Indicator Function"  format="ascii">-1.1096959371318326e-18  3.1195063663285668e-17  1.1356732017505290e-16  2.9559111908599108e-18  9.2986492351578198e-17  -1.2736556841565122e-18  -1.7240043597013067e-18  1.1007197129322986e-16  8.6810004728093011e-16  -1.2391229650610987e-18  4.2331307314329645e-16  6.1148690059400178e-16  -5.5248108497444424e-19  -5.5261386934974680e-18  4.6161406570921877e-16  -3.6448127399804954e-18  -1.0660914450210149e-17  8.9319241034537946e-16  -3.8540760624591541e-18  -4.5666478632781444e-18  2.4860325067524319e-15  -4.9078908943065228e-18  -4.7097771300539837e-18  1.6502608435331005e-15  -3.5170519741318050e-19  -3.7253499827949205e-18  -1.9537219025773791e-18  -8.0299910325400753e-19  8.8238043446763956e-16  -2.6871514130724829e-18  -3.4055187497140262e-18  -2.6764404497709853e-18  -2.7453937479523051e-18  -6.0673950520442161e-18  4.7403501938413572e-18  -2.6658394282856297e-18  -6.8151377364870127e-18  -1.2341001911290192e-17  -1.2682009945369936e-17  -1.6832099848538982e-17  1.4336952503832259e-15  -1.8630922114639931e-18  -4.7775768053182255e-18  -3.8687713724086664e-18  -2.1172639478430936e-18  -1.9323480817274379e-18  2.6569043544668214e-16  -2.1902048624614702e-18  -1.0517745440633702e-19  -1.4780397832523041e-18  -9.3724986487921737e-19  -2.5608724949029050e-20  -6.1702799318330335e-19  -1.6402314470575001e-18  1.9259299443872359e-34  -1.1098805028642631e-18  3.5676921314540756e-16  -4.9981215718806050e-19  -5.7119676368885902e-19  -8.7394671513516825e-19  -1.9259299443872359e-34  -9.1433277935007728e-19  -4.6216964416633724e-19  0.0000000000000000e+00  -4.7546823094018798e-21  -4.1835615768886197e-19  -1.6710930417777039e-19  -2.4155001067050458e-20  6.0747747398678718e-17  -5.4723088859344987e-19  -6.0185310762101120e-35  -2.8301830885885033e-20  -7.0344947597472602e-20  -8.3104161047486482e-19  -1.6911360961004695e-18  -6.8893062029892492e-19  -2.1580866538349165e-19  -6.3027069050032921e-19  -4.5201776857110226e-19  -1.6479374781866264e-19  -1.5938658086240001e-19  2.4603983952464532e-16  -1.8083665947434598e-19  -8.4820574080752754e-19  -5.9525876538903242e-19  -2.8538404671092936e-19  4.8148248609680896e-35  -1.4891425718188127e-19  -2.6773465654658200e-19  -1.9043561556492031e-20  -3.7821482793159100e-20  1.5046327690525280e-35  -9.6424355847512454e-20  8.7031316918739616e-17  -4.4354401504651877e-20  -1.7127932647419116e-20  -8.3093083352672902e-21  -1.4064910650885300e-20  -1.3720366209623608e-20  0.0000000000000000e+00  1.2037062152420224e-35  7.7037197775489434e-34  1.9990504835845937e-02  1.0297579675657902e-01  3.0627154263193016e-02  3.6131007030882220e-02  3.7087612810957807e-02  2.2944141058262330e-02  3.1056901567743628e-02  1.0627061174897461e-01  1.0701935204155925e-01  2.2322054894861398e-02  1.5833019056072592e-01  1.9905228867361291e-02  1.1986553065248236e-01  3.9617299317090245e-02  1.8902198126399014e-01  1.5938110318929560e-01  1.2790332341596786e-01  1.3885772414998870e-01  1.6453082892313198e-01  3.0736142740752596e-02  1.7682540482219120e-01  8.5071045632516801e-02  4.2308279295378164e-02  1.2671515168114104e-02  1.3421987835471907e-01  7.0390249859464446e-02  2.8931091697548039e-02  1.4235828578159200e-02  2.1262322873470407e-02  3.7776254973670140e-02  9.6428929698143470e-02  5.1103692992477891e-02  2.3904770544814210e-02  9.7348087109576778e-02  9.6046987646853946e-02  4.0238133079144043e-03  1.2075870042812885e-01  2.7695086669830371e-01  2.7893824552842156e-01  1.8652244377455704e-01  8.0579340207736133e-02  3.3562485557224464e-02  1.0402511223281249e-01  7.5880489133804060e-02  6.9620176806544656e-02  4.9089778300452629e-02  2.1007418697928402e-02  3.9455223209786110e-02  1.2808962357236631e-02  2.0221516489757067e-02  1.6883992568892368e-02  2.2230776321419905e-02  3.5215588522865722e-02  1.1939988673645235e-02  2.6966091162781338e-02  3.2752574184714861e-02  1.8007630758939134e-02  2.0579532256835020e-02  2.3027280304907159e-02  4.2299842500440697e-03  6.8005347769341060e-03  1.3070887669027495e-02  1.7902643144841353e-03  1.7130548381509830e-04  3.0313746866033027e-03  6.0207472002011923e-03  8.7027563043748173e-04  1.9064482370268656e-03  7.4572223998719328e-03  6.1294241038843782e-03  2.8525804142458099e-03  2.5344438382989987e-03  5.8393194895000802e-03  1.9549895317719255e-02  2.1465518371492451e-02  7.6630970343191012e-03  3.8876633000176661e-03  9.4101157375104764e-03  7.1268759780594862e-03  5.7425067694382419e-03  2.9924112451336674e-04  1.6901368147354010e-03  7.3917067993933628e-03  1.1584062833240505e-02  8.9884879868530818e-03  5.5152888974598054e-03  2.1912987710661852e-03  4.2998628254773798e-03  2.6731473850907278e-03  2.3312319136813652e-04  5.6476966757141504e-04  8.3243695624363450e-04  1.6004081371751163e-03  9.6625848314116673e-04  7.9763040850538459e-04  3.0737616591918659e-04  1.2458386347352502e-04  3.2790445675009641e-04  1.8289283723157637e-04  7.0794403276530863e-22  -3.6308517957806189e-19  1.6417405790617321e-02  2.8733815742045036e-02  4.6323808174208683e-02  3.1381313047628326e-02  8.3918478415082556e-02  2.7082228785065221e-02  1.0474694581909293e-01  2.0389600162557562e-02  9.2158958902917448e-02  1.6273598161581901e-01  5.7445913816185662e-02  8.5407379369560766e-03  2.2285932681639017e-01  1.9813493938345991e-01  2.9423046668786218e-01  8.7233697465111490e-02  2.1938976577265490e-01  2.1341281762232326e-02  1.0140309503330337e-01  4.9402560431162250e-02  2.2677851039582517e-01  4.8029022950206925e-02  8.1333202484316081e-02  6.2568006094019205e-02  1.7042970347523809e-02  1.5600536029797272e-02  4.5951961518551972e-02  7.3929374266081356e-03  2.2002698006238532e-02  1.6058932780845003e-01  8.2773537288964499e-02  1.1762868250963947e-01  7.8769769058038674e-02  1.5745061817324529e-01  6.1060470651423761e-02  7.1474402884158753e-02  1.2206376644266428e-01  2.2329287105452225e-01  2.8300893058297144e-01  3.5295552975273253e-01  1.4387701903315270e-01  5.4091461763498182e-02  6.2300689558419574e-02  8.4401851981038944e-02  2.1201917379459242e-02  1.4370401228854577e-02  8.9094759557319225e-03  5.0112875005322785e-02  1.8903059054085737e-03  5.1638323101729992e-02  3.3457406019652726e-02  3.6053583058428588e-03  2.2277283781538645e-02  6.3770363398073335e-02  4.5742586162353886e-03  5.3909795010782541e-03  9.5620869943579875e-03  4.0841957931917125e-03  9.6213915369273012e-03  3.3424369186901899e-02  1.0029002167901709e-02  2.1507942750501392e-02  6.3513401546930418e-03  2.0020872168504274e-03  1.5044975263524760e-03  8.8672214709500062e-03  1.8466145644010724e-03  1.5484749995874571e-03  7.6556300473345799e-03  8.9521077400087183e-03  3.3786242258217769e-03  3.7036108961426319e-03  6.0185393861770208e-04  1.6594448358812935e-02  2.7814263961822728e-02  1.5176229548294297e-02  2.5808365331295722e-04  9.0804807406685787e-03  9.4127244890523116e-03  6.9379789412120545e-03  4.3102957104923642e-03  4.6206084012891131e-03  4.5396643128301451e-03  1.2987508946521150e-02  1.1365077999227780e-02  8.3843782201972073e-03  2.8160867633316169e-03  4.2797206134405638e-03  4.5176441814643612e-03  5.8088576674186407e-04  1.0554050489871081e-03  2.6631812087760191e-04  2.2600184633232798e-03  1.0507241684214077e-03  1.3921951714396684e-03  5.1757066681764284e-04  8.1593010148551707e-05  3.7766154768818658e-04  4.5352641152748369e-04  1.1329097947952350e-19  3.0814879110195774e-33  7.8707997369977994e-02  6.2471118433757557e-02  1.8978608723174786e-01  5.9074162480970048e-02  1.9077909931778871e-03  8.3897248302205629e-02  1.1643460425662519e-01  8.1691002634144791e-02  1.6600121639499080e-01  3.1649343569846194e-01  1.9730811683929389e-01  2.3260421112678945e-01  1.7612966288728729e-01  1.1840872960275187e-01  9.3974749033716401e-02  3.5359350657037125e-01  1.6503534561092068e-01  1.7807812999352959e-01  1.3062448753470163e-01  3.3939962364746812e-01  2.5404041400289257e-01  3.7894729016727280e-01  2.6179232605869085e-01  1.9092921453135647e-03  3.6550914585554338e-02  2.1214844816759568e-01  2.5145506761626063e-01  1.2918462581410062e-01  3.7036113753103707e-02  1.9225038549794182e-02  9.6125404958549501e-02  1.5999025581858375e-01  1.3460021075715486e-01  5.1844789734854978e-02  1.6374881825260626e-01  1.1751309612467985e-01  2.2617303048537478e-02  1.7612377889779879e-01  3.7033581319407549e-01  2.6570525780280246e-01  1.9664147995429490e-01  1.0825731341776994e-01  6.9216975008707840e-02  1.3881607227848583e-01  6.4493761397844449e-02  1.4811509070290982e-01  1.5958901551283936e-01  9.4640825286322491e-02  9.0620307043390233e-02  1.5516063780533291e-02  4.6761632571979711e-02  4.7342870594590226e-02  1.6020924855473878e-02  5.8582504582111970e-02  1.1660303832610774e-03  4.2141507541285941e-02  6.8594587939229915e-02  5.6387460492871654e-02  5.1304329024389930e-02  4.6891230044524494e-02  3.4569242251713357e-03  5.2981100147520260e-03  2.2008526407403885e-02  4.7642128401507279e-03  1.0939140548438628e-03  2.6722216141870513e-03  9.5359026501475198e-03  4.6452082647491415e-03  3.6881302028106281e-03  1.1200670590796382e-02  5.8299667712759925e-03  1.8319042083563028e-03  4.5702471537681496e-03  8.6075764916213170e-03  2.6465031473283929e-02  2.4626106864000061e-02  3.4140795655193570e-03  5.3213666855094046e-03  1.0550020931828628e-02  6.3194915273937667e-03  7.0167788623075253e-03  1.6588931621780469e-03  3.1581868028303203e-03  1.2306090410553354e-02  1.3476836481778913e-02  8.1419919778167541e-03  6.1277494756107661e-03  1.4153312411447436e-03  6.4806643742556245e-03  2.2767366395272273e-03  1.5310034289756150e-03  4.1346359320582179e-04  8.5558952693272827e-04  2.7261152401709481e-03  7.5726936942523116e-04  1.2364606412824299e-03  3.8116323761764134e-04  1.0494434419996293e-04  3.2482376047755069e-04  -1.4444474582904269e-34  -1.5051249577784383e-20  7.4983097312396343e-02  6.5997306557568511e-02  8.7701554104139934e-02  4.4702981771301623e-02  5.9292957789142078e-02  1.0222109416825673e-01  8.2773174917193951e-02  1.1804576465528969e-01  9.3425595722309279e-03  2.7669694805306903e-02  1.0798097348081734e-01  1.1926166160071196e-01  1.4084545417378530e-01  2.5022984535940473e-01  4.3040417511968992e-01  2.0276031283853566e-01  1.3430867474415509e-02  2.4935168955800605e-01  2.5581491770012142e-02  2.2370723941083395e-01  2.4248068687281429e-01  1.5109463164220788e-01  2.1535903828796377e-02  1.6695927204386588e-01  1.0563262364069101e-01  6.6812070308209640e-02  1.3410902534900562e-01  2.8281566161983553e-02  2.1857686341794831e-03  7.7383769050173674e-03  1.8398136953193064e-01  1.6002252162942832e-01  1.7225860359436523e-01  2.3383303447117024e-01  1.1796742304854747e-01  1.5353820895169059e-02  9.8252887577361503e-02  1.3803028170849777e-01  2.0699686092711619e-01  3.3159386192628770e-01  3.7530368396084474e-01  6.7602324804774697e-02  7.3861671955245831e-02  2.3876720858700323e-02  1.0265569461212176e-01  2.8971127852495757e-02  8.5359674721372653e-02  5.9515968256551983e-02  2.4588985015413078e-02  2.4939769585698148e-03  5.2078195445492949e-02  4.0367244799282186e-02  5.0970801121248003e-03  3.6917527861831285e-02  1.0387539164375005e-01  2.9048969583251476e-02  9.4160541777948675e-03  3.1704695104016571e-02  3.2442918511146702e-02  3.6178236061143412e-02  5.9237413490236486e-02  2.9367097493506727e-02  3.0101719309397663e-02  6.2987000806909417e-03  7.2253788884837468e-03  4.4804878064603716e-03  1.1054925815651390e-02  1.8069072924614892e-03  4.5957926719930658e-03  1.0581502928647377e-02  1.0380130538154201e-02  1.4673284365877305e-03  4.0004380891421202e-03  1.3020846117156946e-03  1.9274182931330291e-02  3.1475726354685207e-02  1.2783293449331481e-02  3.8078260109309747e-03  9.3791141312875009e-03  8.5508801725054911e-03  5.4406564080158593e-03  5.0368148262656979e-03  7.6039583376304168e-03  5.3831407038543487e-03  1.5984268342915293e-02  1.0342273121816995e-02  6.7969367901621787e-03  1.9946910261741751e-03  4.3075912478184814e-03  5.5582171410368210e-03  5.4070514225918105e-04  1.8813192164600881e-03  2.4885753989480926e-04  2.7354257850600214e-03  1.3291400543167418e-03  1.5713053387707433e-03  7.1464557928099554e-04  3.0251226092653006e-04  1.3548678548882661e-04  9.0443767734188980e-21  -7.0029973192167811e-18  2.1982883992203608e-01  1.6052728962674834e-01  2.2651087037821906e-02  2.2608218206761815e-01  1.8354134435575861e-01  2.5110994537804882e-02  2.7876036126387813e-02  1.3583434862954435e-01  1.8005415770369446e-01  1.4660317958456748e-01  3.6865666021620086e-01  3.8384275815522589e-01  1.0836674933857753e-01  2.5055672665532719e-01  9.6183358746920869e-02  2.6638586177692086e-02  4.9435546209044723e-01  7.9954822276771267e-02  1.7442726068904041e-01  3.6515344968693748e-02  2.6417984643425557e-01  3.1988935359095616e-01  5.0341515556056426e-01  3.6127460414047874e-01  2.9681593504610873e-02  1.0509811414377020e-01  1.3431655820893029e-01  3.0173126049872806e-01  2.1539683834142631e-01  3.0530124957947404e-02  2.0008653661859704e-02  2.0552021578778154e-01  2.3440157806035658e-01  8.3197863209039408e-02  2.2300080533575795e-02  2.3471247898468098e-01  8.7143307576749665e-02  3.2192134131295541e-02  2.2127273692094995e-01  3.5573970884114331e-01  2.2742235534578953e-01  2.4976524397996153e-01  9.1360425633243841e-02  1.3090337278410169e-01  1.1996596410434333e-01  3.8924957310220332e-02  1.5530311142050401e-01  1.8352191922206559e-01  1.2164464112588584e-01  1.1936617693402422e-01  4.1276300506554543e-02  6.8585968984473777e-02  7.6065527185651530e-02  7.8550718314995805e-04  4.8890753155475947e-02  1.8092159444499177e-02  2.7824028467438373e-02  7.6624466834063459e-02  6.6038688899302853e-02  5.4110586687205163e-02  4.4815330467940277e-02  5.4196731327410324e-03  7.0170701550668355e-03  3.1573039660656312e-02  9.4511713472661043e-03  4.5839293796321850e-04  4.6572569064068668e-04  1.2664434056628641e-02  6.7740375457560559e-03  3.0861592390655952e-03  1.4156202390121393e-02  5.8121748291245267e-03  1.7609814184843257e-04  6.1567755597770656e-03  7.9917454353343100e-03  2.9361312598932883e-02  2.6399751850489449e-02  5.1647252886363672e-04  7.0771574344501978e-03  1.0558695865749352e-02  5.1933035591017656e-03  6.8676299833813391e-03  1.6209021572963262e-03  5.6512000253676770e-03  1.4792568661481634e-02  1.4701093208176004e-02  6.5744115269212658e-03  5.5264075687735739e-03  3.2987607129233450e-04  7.4436018199139000e-03  2.2449386635410118e-03  2.6905727280053613e-03  5.7780535710329900e-04  5.6798699401295282e-04  3.5534751546873891e-03  6.0416180122902017e-04  1.6916612833000847e-03  6.0665142426769903e-04  2.0639196842530495e-04  6.0185310762101120e-35  -1.2813304208179898e-18  1.8702191102024282e-01  8.0884317981684023e-02  6.5881759097466019e-02  1.9500079168816101e-01  7.4274806615127961e-02  5.5256451306927946e-02  5.6382222771685538e-02  1.5575867750776340e-01  4.9437324856548316e-02  3.1117003328973481e-02  1.6340660913236826e-02  5.4420071985098059e-02  4.9857448234862219e-02  2.3765551126964454e-01  6.4281138710449867e-02  4.3703742845969917e-01  3.4142649432773522e-02  8.3779365276187526e-02  2.5879130089100505e-01  9.2253775548143221e-02  1.7370438488702236e-01  3.9951358721727653e-01  2.3024770011632320e-02  8.9852438016136280e-02  3.0406873478055446e-01  1.4515437690079644e-01  1.6097343047290391e-03  1.9592137178874217e-01  1.8591904271038420e-01  5.1037317820945172e-02  2.0094500863543790e-02  1.2265133372580904e-01  1.3589021380586064e-01  1.7753096104810887e-01  3.1689481340268449e-01  2.8001472027449126e-02  3.6959584800806654e-02  1.1826502224472625e-01  1.3242639261181335e-01  2.3855739576745399e-01  3.8693456635620010e-01  3.2338915948661173e-01  3.8354700585021703e-02  4.7747773192217860e-02  3.3685004607142043e-02  1.2788889163219228e-01  8.7173066089127425e-03  1.3959694425324159e-01  1.4543762999421303e-01  3.1792103212723598e-02  3.6190167923146062e-02  2.6161956618454101e-02  2.0714706339891441e-02  1.8671717910844297e-02  2.7949287812439296e-02  1.1619320933305778e-01  4.1208577828140906e-02  1.6031490472767355e-02  5.3361722858896635e-02  5.9099505480948694e-02  5.6968781584299723e-02  7.4258035772437572e-02  3.6623176224724413e-02  2.9171830409615004e-02  1.0926949269576639e-02  1.2606333513609192e-02  5.4469815895374198e-03  1.0792405578091588e-02  3.6297414088860727e-03  7.0589819810511585e-03  1.2151606173035319e-02  1.2518824199901165e-02  5.5228368547527841e-04  3.3270615293000678e-03  3.0935219305876158e-03  2.0544242080525365e-02  3.4108054476763072e-02  1.2039972495120678e-02  8.1814108666732940e-03  9.7177589181728277e-03  8.1066275714735420e-03  4.2930149294997423e-03  5.6676087989984926e-03  8.4281416229795760e-03  4.8810169580948120e-03  1.9065567767742545e-02  1.0171682953206414e-02  5.2229993864653292e-03  1.9232181090597063e-03  3.9425892212981472e-03  6.7027497751929671e-03  1.2053062456422344e-03  2.8216750674832053e-03  4.5351757899284793e-04  2.7630659749627051e-03  2.0511242350626517e-03  1.4914321199808284e-03  1.1085321647772192e-03  5.3742650783023904e-04  1.8055593228630336e-35  3.8518598887744717e-33  8.1136562018326419e-02  7.7295911064115000e-02  3.8708113020506078e-02  1.7166273313603286e-01  1.1928558091002009e-01  2.2912804441956577e-01  6.9953682059586027e-03  5.7128431066704205e-02  7.3679797174955250e-02  1.9721772045356850e-01  1.1377095257962774e-01  2.8411960823013521e-01  3.2816597071966430e-01  2.6612944736312257e-02  1.1029451266856449e-01  1.4910416808953200e-01  1.7083875685040642e-01  4.3551434609471634e-01  1.5482414035563899e-02  1.3998951825938741e-01  3.6590007649619859e-02  1.1917027237064952e-01  1.5290827278360644e-01  4.4801829738717019e-01  3.0575878435633635e-01  3.3228417758163521e-02  1.2522569662644270e-01  6.5246692612248150e-02  1.8560527564171261e-01  1.7941358325170390e-01  7.6484822037808636e-03  4.7109028944462554e-02  2.2603895996977463e-01  3.0781888953045050e-01  1.5046179144392333e-02  1.2012009596524773e-01  2.1850245354788977e-01  4.9711159561035279e-02  4.0804109828925350e-02  2.3960852303271479e-01  3.2342246656831980e-01  2.6528095799833629e-01  2.7499917669400153e-01  2.9642428268214196e-02  1.5221466047787005e-01  8.6145664981282372e-02  4.0810417892706799e-02  1.3909240118259467e-01  1.2723518248575144e-01  5.9180398446310983e-02  9.1675497066731962e-02  2.9573434027351596e-02  6.0819382674293564e-02  7.6674749180696056e-02  2.7960858827559435e-04  4.0581575072601225e-02  4.6144402812249401e-02  5.1405379094697371e-04  6.3372543781789054e-02  4.7334948513629085e-02  3.0539519842249056e-02  2.4361055922040444e-02  2.2982136686752180e-02  2.0281716071566393e-02  3.7294152918888004e-02  1.0038825413780162e-02  4.2275034722617979e-03  1.1378535402469881e-03  1.3969544437884276e-02  6.5079516451539924e-03  1.5047170855816319e-03  1.6607693976629347e-02  6.8113488363826065e-03  1.0223708625387588e-03  6.4203500022113605e-03  6.7170180292219070e-03  3.1567588244649884e-02  2.8179095805289097e-02  3.0553979110711635e-03  1.0684534251663486e-02  1.0565361370268176e-02  4.7332147416187780e-03  6.0382696329135494e-03  8.7994646159098055e-04  6.8786322656098214e-03  1.6030328296190256e-02  1.7184268900586466e-02  5.8423544276308068e-03  4.2898308094528577e-03  2.8669808156036870e-04  7.8268173894657077e-03  3.0562188709406220e-03  3.3602372859423539e-03  9.8333075926417966e-04  2.9176967701387242e-04  3.8101660521392914e-03  9.4608452631453420e-04  1.8219510457127390e-03  8.2829234055493658e-04  -7.3255331964311299e-20  3.8518598887744717e-34  3.1098639114534754e-02  1.8735120569999666e-02  6.3508607730165992e-02  1.2860355580863250e-01  5.2692727699431362e-02  2.0938149626638239e-01  2.3829484366928673e-02  1.8579916348314804e-03  1.2661215416796132e-01  7.6897125502391646e-03  6.9281554212764343e-02  4.2545959119341385e-02  8.9158877007514389e-02  2.1921652255100860e-01  1.3188357529243663e-01  3.5122196854701332e-02  2.6561