<?xml version="1.0"?>
<VTKFile type="UnstructuredGrid"  version="0.1"  >
<UnstructuredGrid>
<Piece  NumberOfPoints="10201" NumberOfCells="20000">
<Points>
<DataArray  type="Float64"  NumberOfComponents="3"  format="ascii">0 0 0  0.01 0 0  0.02 0 0  0.03 0 0  0.04 0 0  0.05 0 0  0.06 0 0  0.07000000000000001 0 0  0.08 0 0  0.09 0 0  0.1 0 0  0.11 0 0  0.12 0 0  0.13 0 0  0.14 0 0  0.15 0 0  0.16 0 0  0.17 0 0  0.18 0 0  0.19 0 0  0.2 0 0  0.21 0 0  0.22 0 0  0.23 0 0  0.24 0 0  0.25 0 0  0.26 0 0  0.27 0 0  0.28 0 0  0.29 0 0  0.3 0 0  0.31 0 0  0.32 0 0  0.33 0 0  0.34 0 0  0.35 0 0  0.36 0 0  0.37 0 0  0.38 0 0  0.39 0 0  0.4 0 0  0.41 0 0  0.42 0 0  0.43 0 0  0.44 0 0  0.45 0 0  0.46 0 0  0.47 0 0  0.48 0 0  0.49 0 0  0.5 0 0  0.51 0 0  0.52 0 0  0.53 0 0  0.54 0 0  0.55 0 0  0.5600000000000001 0 0  0.57 0 0  0.58 0 0  0.59 0 0  0.6 0 0  0.61 0 0  0.62 0 0  0.63 0 0  0.64 0 0  0.65 0 0  0.66 0 0  0.67 0 0  0.68 0 0  0.6899999999999999 0 0  0.7 0 0  0.71 0 0  0.72 0 0  0.73 0 0  0.74 0 0  0.75 0 0  0.76 0 0  0.77 0 0  0.78 0 0  0.79 0 0  0.8 0 0  0.8100000000000001 0 0  0.82 0 0  0.83 0 0  0.84 0 0  0.85 0 0  0.86 0 0  0.87 0 0  0.88 0 0  0.89 0 0  0.9 0 0  0.91 0 0  0.92 0 0  0.93 0 0  0.9399999999999999 0 0  0.95 0 0  0.96 0 0  0.97 0 0  0.98 0 0  0.99 0 0  1 0 0  0 0.01 0  0.01 0.01 0  0.02 0.01 0  0.03 0.01 0  0.04 0.01 0  0.05 0.01 0  0.06 0.01 0  0.07000000000000001 0.01 0  0.08 0.01 0  0.09 0.01 0  0.1 0.01 0  0.11 0.01 0  0.12 0.01 0  0.13 0.01 0  0.14 0.01 0  0.15 0.01 0  0.16 0.01 0  0.17 0.01 0  0.18 0.01 0  0.19 0.01 0  0.2 0.01 0  0.21 0.01 0  0.22 0.01 0  0.23 0.01 0  0.24 0.01 0  0.25 0.01 0  0.26 0.01 0  0.27 0.01 0  0.28 0.01 0  0.29 0.01 0  0.3 0.01 0  0.31 0.01 0  0.32 0.01 0  0.33 0.01 0  0.34 0.01 0  0.35 0.01 0  0.36 0.01 0  0.37 0.01 0  0.38 0.01 0  0.39 0.01 0  0.4 0.01 0  0.41 0.01 0  0.42 0.01 0  0.43 0.01 0  0.44 0.01 0  0.45 0.01 0  0.46 0.01 0  0.47 0.01 0  0.48 0.01 0  0.49 0.01 0  0.5 0.01 0  0.51 0.01 0  0.52 0.01 0  0.53 0.01 0  0.54 0.01 0  0.55 0.01 0  0.5600000000000001 0.01 0  0.57 0.01 0  0.58 0.01 0  0.59 0.01 0  0.6 0.01 0  0.61 0.01 0  0.62 0.01 0  0.63 0.01 0  0.64 0.01 0  0.65 0.01 0  0.66 0.01 0  0.67 0.01 0  0.68 0.01 0  0.6899999999999999 0.01 0  0.7 0.01 0  0.71 0.01 0  0.72 0.01 0  0.73 0.01 0  0.74 0.01 0  0.75 0.01 0  0.76 0.01 0  0.77 0.01 0  0.78 0.01 0  0.79 0.01 0  0.8 0.01 0  0.8100000000000001 0.01 0  0.82 0.01 0  0.83 0.01 0  0.84 0.01 0  0.85 0.01 0  0.86 0.01 0  0.87 0.01 0  0.88 0.01 0  0.89 0.01 0  0.9 0.01 0  0.91 0.01 0  0.92 0.01 0  0.93 0.01 0  0.9399999999999999 0.01 0  0.95 0.01 0  0.96 0.01 0  0.97 0.01 0  0.98 0.01 0  0.99 0.01 0  1 0.01 0  0 0.02 0  0.01 0.02 0  0.02 0.02 0  0.03 0.02 0  0.04 0.02 0  0.05 0.02 0  0.06 0.02 0  0.07000000000000001 0.02 0  0.08 0.02 0  0.09 0.02 0  0.1 0.02 0  0.11 0.02 0  0.12 0.02 0  0.13 0.02 0  0.14 0.02 0  0.15 0.02 0  0.16 0.02 0  0.17 0.02 0  0.18 0.02 0  0.19 0.02 0  0.2 0.02 0  0.21 0.02 0  0.22 0.02 0  0.23 0.02 0  0.24 0.02 0  0.25 0.02 0  0.26 0.02 0  0.27 0.02 0  0.28 0.02 0  0.29 0.02 0  0.3 0.02 0  0.31 0.02 0  0.32 0.02 0  0.33 0.02 0  0.34 0.02 0  0.35 0.02 0  0.36 0.02 0  0.37 0.02 0  0.38 0.02 0  0.39 0.02 0  0.4 0.02 0  0.41 0.02 0  0.42 0.02 0  0.43 0.02 0  0.44 0.02 0  0.45 0.02 0  0.46 0.02 0  0.47 0.02 0  0.48 0.02 0  0.49 0.02 0  0.5 0.02 0  0.51 0.02 0  0.52 0.02 0  0.53 0.02 0  0.54 0.02 0  0.55 0.02 0  0.5600000000000001 0.02 0  0.57 0.02 0  0.58 0.02 0  0.59 0.02 0  0.6 0.02 0  0.61 0.02 0  0.62 0.02 0  0.63 0.02 0  0.64 0.02 0  0.65 0.02 0  0.66 0.02 0  0.67 0.02 0  0.68 0.02 0  0.6899999999999999 0.02 0  0.7 0.02 0  0.71 0.02 0  0.72 0.02 0  0.73 0.02 0  0.74 0.02 0  0.75 0.02 0  0.76 0.02 0  0.77 0.02 0  0.78 0.02 0  0.79 0.02 0  0.8 0.02 0  0.8100000000000001 0.02 0  0.82 0.02 0  0.83 0.02 0  0.84 0.02 0  0.85 0.02 0  0.86 0.02 0  0.87 0.02 0  0.88 0.02 0  0.89 0.02 0  0.9 0.02 0  0.91 0.02 0  0.92 0.02 0  0.93 0.02 0  0.9399999999999999 0.02 0  0.95 0.02 0  0.96 0.02 0  0.97 0.02 0  0.98 0.02 0  0.99 0.02 0  1 0.02 0  0 0.03 0  0.01 0.03 0  0.02 0.03 0  0.03 0.03 0  0.04 0.03 0  0.05 0.03 0  0.06 0.03 0  0.07000000000000001 0.03 0  0.08 0.03 0  0.09 0.03 0  0.1 0.03 0  0.11 0.03 0  0.12 0.03 0  0.13 0.03 0  0.14 0.03 0  0.15 0.03 0  0.16 0.03 0  0.17 0.03 0  0.18 0.03 0  0.19 0.03 0  0.2 0.03 0  0.21 0.03 0  0.22 0.03 0  0.23 0.03 0  0.24 0.03 0  0.25 0.03 0  0.26 0.03 0  0.27 0.03 0  0.28 0.03 0  0.29 0.03 0  0.3 0.03 0  0.31 0.03 0  0.32 0.03 0  0.33 0.03 0  0.34 0.03 0  0.35 0.03 0  0.36 0.03 0  0.37 0.03 0  0.38 0.03 0  0.39 0.03 0  0.4 0.03 0  0.41 0.03 0  0.42 0.03 0  0.43 0.03 0  0.44 0.03 0  0.45 0.03 0  0.46 0.03 0  0.47 0.03 0  0.48 0.03 0  0.49 0.03 0  0.5 0.03 0  0.51 0.03 0  0.52 0.03 0  0.53 0.03 0  0.54 0.03 0  0.55 0.03 0  0.5600000000000001 0.03 0  0.57 0.03 0  0.58 0.03 0  0.59 0.03 0  0.6 0.03 0  0.61 0.03 0  0.62 0.03 0  0.63 0.03 0  0.64 0.03 0  0.65 0.03 0  0.66 0.03 0  0.67 0.03 0  0.68 0.03 0  0.6899999999999999 0.03 0  0.7 0.03 0  0.71 0.03 0  0.72 0.03 0  0.73 0.03 0  0.74 0.03 0  0.75 0.03 0  0.76 0.03 0  0.77 0.03 0  0.78 0.03 0  0.79 0.03 0  0.8 0.03 0  0.8100000000000001 0.03 0  0.82 0.03 0  0.83 0.03 0  0.84 0.03 0  0.85 0.03 0  0.86 0.03 0  0.87 0.03 0  0.88 0.03 0  0.89 0.03 0  0.9 0.03 0  0.91 0.03 0  0.92 0.03 0  0.93 0.03 0  0.9399999999999999 0.03 0  0.95 0.03 0  0.96 0.03 0  0.97 0.03 0  0.98 0.03 0  0.99 0.03 0  1 0.03 0  0 0.04 0  0.01 0.04 0  0.02 0.04 0  0.03 0.04 0  0.04 0.04 0  0.05 0.04 0  0.06 0.04 0  0.07000000000000001 0.04 0  0.08 0.04 0  0.09 0.04 0  0.1 0.04 0  0.11 0.04 0  0.12 0.04 0  0.13 0.04 0  0.14 0.04 0  0.15 0.04 0  0.16 0.04 0  0.17 0.04 0  0.18 0.04 0  0.19 0.04 0  0.2 0.04 0  0.21 0.04 0  0.22 0.04 0  0.23 0.04 0  0.24 0.04 0  0.25 0.04 0  0.26 0.04 0  0.27 0.04 0  0.28 0.04 0  0.29 0.04 0  0.3 0.04 0  0.31 0.04 0  0.32 0.04 0  0.33 0.04 0  0.34 0.04 0  0.35 0.04 0  0.36 0.04 0  0.37 0.04 0  0.38 0.04 0  0.39 0.04 0  0.4 0.04 0  0.41 0.04 0  0.42 0.04 0  0.43 0.04 0  0.44 0.04 0  0.45 0.04 0  0.46 0.04 0  0.47 0.04 0  0.48 0.04 0  0.49 0.04 0  0.5 0.04 0  0.51 0.04 0  0.52 0.04 0  0.53 0.04 0  0.54 0.04 0  0.55 0.04 0  0.5600000000000001 0.04 0  0.57 0.04 0  0.58 0.04 0  0.59 0.04 0  0.6 0.04 0  0.61 0.04 0  0.62 0.04 0  0.63 0.04 0  0.64 0.04 0  0.65 0.04 0  0.66 0.04 0  0.67 0.04 0  0.68 0.04 0  0.6899999999999999 0.04 0  0.7 0.04 0  0.71 0.04 0  0.72 0.04 0  0.73 0.04 0  0.74 0.04 0  0.75 0.04 0  0.76 0.04 0  0.77 0.04 0  0.78 0.04 0  0.79 0.04 0  0.8 0.04 0  0.8100000000000001 0.04 0  0.82 0.04 0  0.83 0.04 0  0.84 0.04 0  0.85 0.04 0  0.86 0.04 0  0.87 0.04 0  0.88 0.04 0  0.89 0.04 0  0.9 0.04 0  0.91 0.04 0  0.92 0.04 0  0.93 0.04 0  0.9399999999999999 0.04 0  0.95 0.04 0  0.96 0.04 0  0.97 0.04 0  0.98 0.04 0  0.99 0.04 0  1 0.04 0  0 0.05 0  0.01 0.05 0  0.02 0.05 0  0.03 0.05 0  0.04 0.05 0  0.05 0.05 0  0.06 0.05 0  0.07000000000000001 0.05 0  0.08 0.05 0  0.09 0.05 0  0.1 0.05 0  0.11 0.05 0  0.12 0.05 0  0.13 0.05 0  0.14 0.05 0  0.15 0.05 0  0.16 0.05 0  0.17 0.05 0  0.18 0.05 0  0.19 0.05 0  0.2 0.05 0  0.21 0.05 0  0.22 0.05 0  0.23 0.05 0  0.24 0.05 0  0.25 0.05 0  0.26 0.05 0  0.27 0.05 0  0.28 0.05 0  0.29 0.05 0  0.3 0.05 0  0.31 0.05 0  0.32 0.05 0  0.33 0.05 0  0.34 0.05 0  0.35 0.05 0  0.36 0.05 0  0.37 0.05 0  0.38 0.05 0  0.39 0.05 0  0.4 0.05 0  0.41 0.05 0  0.42 0.05 0  0.43 0.05 0  0.44 0.05 0  0.45 0.05 0  0.46 0.05 0  0.47 0.05 0  0.48 0.05 0  0.49 0.05 0  0.5 0.05 0  0.51 0.05 0  0.52 0.05 0  0.53 0.05 0  0.54 0.05 0  0.55 0.05 0  0.5600000000000001 0.05 0  0.57 0.05 0  0.58 0.05 0  0.59 0.05 0  0.6 0.05 0  0.61 0.05 0  0.62 0.05 0  0.63 0.05 0  0.64 0.05 0  0.65 0.05 0  0.66 0.05 0  0.67 0.05 0  0.68 0.05 0  0.6899999999999999 0.05 0  0.7 0.05 0  0.71 0.05 0  0.72 0.05 0  0.73 0.05 0  0.74 0.05 0  0.75 0.05 0  0.76 0.05 0  0.77 0.05 0  0.78 0.05 0  0.79 0.05 0  0.8 0.05 0  0.8100000000000001 0.05 0  0.82 0.05 0  0.83 0.05 0  0.84 0.05 0  0.85 0.05 0  0.86 0.05 0  0.87 0.05 0  0.88 0.05 0  0.89 0.05 0  0.9 0.05 0  0.91 0.05 0  0.92 0.05 0  0.93 0.05 0  0.9399999999999999 0.05 0  0.95 0.05 0  0.96 0.05 0  0.97 0.05 0  0.98 0.05 0  0.99 0.05 0  1 0.05 0  0 0.06 0  0.01 0.06 0  0.02 0.06 0  0.03 0.06 0  0.04 0.06 0  0.05 0.06 0  0.06 0.06 0  0.07000000000000001 0.06 0  0.08 0.06 0  0.09 0.06 0  0.1 0.06 0  0.11 0.06 0  0.12 0.06 0  0.13 0.06 0  0.14 0.06 0  0.15 0.06 0  0.16 0.06 0  0.17 0.06 0  0.18 0.06 0  0.19 0.06 0  0.2 0.06 0  0.21 0.06 0  0.22 0.06 0  0.23 0.06 0  0.24 0.06 0  0.25 0.06 0  0.26 0.06 0  0.27 0.06 0  0.28 0.06 0  0.29 0.06 0  0.3 0.06 0  0.31 0.06 0  0.32 0.06 0  0.33 0.06 0  0.34 0.06 0  0.35 0.06 0  0.36 0.06 0  0.37 0.06 0  0.38 0.06 0  0.39 0.06 0  0.4 0.06 0  0.41 0.06 0  0.42 0.06 0  0.43 0.06 0  0.44 0.06 0  0.45 0.06 0  0.46 0.06 0  0.47 0.06 0  0.48 0.06 0  0.49 0.06 0  0.5 0.06 0  0.51 0.06 0  0.52 0.06 0  0.53 0.06 0  0.54 0.06 0  0.55 0.06 0  0.5600000000000001 0.06 0  0.57 0.06 0  0.58 0.06 0  0.59 0.06 0  0.6 0.06 0  0.61 0.06 0  0.62 0.06 0  0.63 0.06 0  0.64 0.06 0  0.65 0.06 0  0.66 0.06 0  0.67 0.06 0  0.68 0.06 0  0.6899999999999999 0.06 0  0.7 0.06 0  0.71 0.06 0  0.72 0.06 0  0.73 0.06 0  0.74 0.06 0  0.75 0.06 0  0.76 0.06 0  0.77 0.06 0  0.78 0.06 0  0.79 0.06 0  0.8 0.06 0  0.8100000000000001 0.06 0  0.82 0.06 0  0.83 0.06 0  0.84 0.06 0  0.85 0.06 0  0.86 0.06 0  0.87 0.06 0  0.88 0.06 0  0.89 0.06 0  0.9 0.06 0  0.91 0.06 0  0.92 0.06 0  0.93 0.06 0  0.9399999999999999 0.06 0  0.95 0.06 0  0.96 0.06 0  0.97 0.06 0  0.98 0.06 0  0.99 0.06 0  1 0.06 0  0 0.07000000000000001 0  0.01 0.07000000000000001 0  0.02 0.07000000000000001 0  0.03 0.07000000000000001 0  0.04 0.07000000000000001 0  0.05 0.07000000000000001 0  0.06 0.07000000000000001 0  0.07000000000000001 0.07000000000000001 0  0.08 0.07000000000000001 0  0.09 0.07000000000000001 0  0.1 0.07000000000000001 0  0.11 0.07000000000000001 0  0.12 0.07000000000000001 0  0.13 0.07000000000000001 0  0.14 0.07000000000000001 0  0.15 0.07000000000000001 0  0.16 0.07000000000000001 0  0.17 0.0700
[...]
<PointData  Scalars="Indicator Function"> 
<DataArray  type="Float64"  Name="Indicator Function"  format="ascii">-1.7927024351852478e-19  2.7700826902496497e-19  1.2618013841893073e-17  5.3588043601124478e-19  3.3351361614780762e-17  -1.0757737020597223e-19  -1.8375028310698487e-19  1.0207951901137007e-17  6.5490747977080229e-17  -3.5433663732866080e-20  1.6890867292244532e-17  1.4626162540951314e-17  -1.1133610552458187e-19  -1.8210960562654655e-19  1.6473559924837673e-16  1.6851887013388314e-34  -4.8145609771707384e-19  1.6049367096451989e-16  -2.9537740772531336e-19  -4.2730063466151877e-19  3.4561100544467318e-16  -7.8490280090138161e-19  -3.7122845391998502e-19  1.8190194242079472e-17  -1.4708818208109304e-19  -3.2181567141191388e-19  -3.1104400674468584e-19  -5.2526846823613776e-19  4.6932489589274167e-16  -9.1066688476523624e-19  -1.3632603899276761e-18  -6.8163019496383846e-19  -7.0575552107059649e-19  -8.8006816356767929e-19  3.4733172816910073e-17  -4.8577619222246778e-19  -1.6818751699950815e-18  -2.4273106685486189e-18  -2.1262773665587208e-18  -2.5985583257440145e-18  1.9725306282064269e-16  -2.7019439115180721e-19  -7.6066593078092798e-19  -1.1459063562790935e-18  -7.6206350455458596e-19  -3.8103175227727998e-19  7.1570894821617234e-17  -4.3248104208624794e-19  -1.2568659784598930e-19  -2.5718691924672199e-19  -1.2859345962336104e-19  -2.8603121851415002e-19  -9.5609956326372018e-20  -3.2686739889714560e-19  -2.6976338561367119e-19  5.5370485901133031e-34  7.0874221953450279e-32  -1.9507016980219878e-21  2.6331073458419240e-36  -1.6334656907670839e-22  -2.9750186664269393e-22  -6.4046383190031869e-22  -4.6563747170951174e-22  -4.2408116024930215e-22  -7.8728824010193429e-22  -7.9588728941055288e-22  -4.0433457162299954e-21  -1.9153811784378344e-21  1.4165369069866107e-18  -1.3030627009100923e-20  -6.7037885435631861e-21  -4.6798647607325468e-21  -1.9723947450697095e-21  -6.4889310201306158e-21  -3.9773443325839950e-20  -4.5669073710260214e-20  -9.7222184636197648e-21  -3.0497989287048150e-20  -2.6213222465235245e-20  -9.7035442080995399e-21  -4.7665377465912466e-21  3.6571029655773446e-18  -1.6922540786013166e-21  -1.3855764386045326e-20  -1.6001662711579595e-20  -9.1017692109154027e-21  -3.3934140499155869e-21  -7.3843903543193937e-22  -2.3509887016445750e-38  -1.9307902278385213e-22  -1.9354256146381616e-22  -1.7163552541372214e-22  -1.4747681348708305e-22  4.3515597729419592e-21  -1.0661303084681998e-22  -8.7978522009109597e-23  -6.6655999457166717e-23  -5.3544383630045706e-23  -3.1599587803726909e-23  -5.9776526368351332e-25  1.7265073277702348e-38  9.6296497219361793e-35  6.8150548927041364e-03  1.3580019579680334e-02  3.0671060558249462e-03  3.1562656389885783e-03  2.5064388711718759e-04  2.1405430227003646e-03  2.2398793147691818e-03  1.2153240587873195e-02  1.0517282971855503e-02  6.3831613913482095e-04  1.4451375401789758e-02  4.0113059468271112e-03  6.5611900163222124e-03  3.0853960117903372e-03  2.1395498204980493e-02  1.1564250328906234e-02  2.8910168446423402e-03  1.0642092666923066e-02  1.5395127832294143e-02  7.6026448637536602e-03  1.9445141367408127e-02  1.4139551846646083e-02  6.6874573069735628e-03  5.2994102560881108e-03  1.1594631502821450e-02  1.1206541382969542e-02  3.7901528777797163e-03  7.5673190723810442e-03  7.8228709634151541e-03  1.2493680689841894e-02  2.4558315936348957e-02  8.5702658444035112e-03  8.4286282846310762e-03  1.8719279582808081e-02  1.2656166332245032e-02  8.7509659131142573e-03  3.1241159103669626e-02  4.7354497038990459e-02  4.7441907179935204e-02  3.7659992907808137e-02  1.9704950010869395e-02  4.8673894372355097e-03  1.8920397679134050e-02  1.1182614916993008e-02  1.3728115660578749e-02  1.3053703041033029e-02  2.5306447684710471e-03  7.7908858399377192e-03  2.2641684608986521e-03  4.6330676547364112e-03  3.4159372939835033e-03  3.4447117094748674e-03  4.4432001052277878e-04  5.6661595782296010e-03  2.0265453425969307e-03  8.3144822451972815e-04  7.0281435522582462e-05  5.3267127419378363e-05  4.3785659826972542e-05  2.6485948489328892e-05  1.5475730312463207e-05  5.6949916495062294e-06  7.3475676743712029e-06  3.9657831839088171e-06  1.5063822753181661e-05  3.0295295922018796e-05  6.7871428288453843e-05  5.6872570171167211e-07  9.0313971126059655e-05  2.1006446946395516e-04  1.5732483615069487e-05  8.4304948770317652e-05  9.5036910714627426e-05  4.2731657670777747e-04  7.8191577650213310e-04  4.7012954755332263e-04  1.7513991779989012e-04  4.6183297385485268e-04  3.7795481906444155e-04  2.2211327036441913e-04  4.9079384446691220e-05  6.0969878702440730e-05  9.0623223038321403e-05  2.4076140610544122e-04  2.4016834950535640e-04  1.6018738186779482e-04  7.8234888812790630e-05  2.7144530235922518e-05  4.1368740227312556e-06  3.4782024602496634e-06  4.7979004273768071e-06  4.2045029167063121e-06  3.3323361586229639e-06  2.6270370320966067e-06  2.1092386810782282e-06  1.6956573714200495e-06  1.3164949196804653e-06  1.0005438501929783e-06  4.3771864594569586e-07  -3.2649185332037145e-23  -4.0135347529164916e-19  1.0366484699243297e-03  2.7763452683416462e-03  7.3380283294662561e-04  4.0869098149343090e-03  1.2917110466600752e-02  2.1651621612569097e-03  1.0846339474233973e-02  3.6767608571069494e-04  5.2035138308516547e-03  1.3568964770578038e-02  1.2154519453663325e-02  8.2719482611416355e-03  2.3343005356987270e-02  2.2564579759107008e-02  1.6447304999028235e-02  8.4011719864837610e-04  2.8805744282564116e-02  7.3800050582519287e-03  4.2331456839453212e-03  6.8422713907783468e-03  1.3625977236874321e-02  1.2754869957125502e-02  1.4842865906100721e-02  8.8242430324430386e-03  1.0720553145425853e-03  1.0204388714581090e-02  1.6508385274058315e-02  2.2966515790145810e-02  7.2683672758095440e-03  2.4561656036615875e-02  2.0467478020867080e-02  1.4929173868432174e-02  1.6104712933946577e-02  1.8900904790452727e-02  2.0717517331608312e-02  1.9584725082007867e-03  2.6699462166738189e-02  4.7448168284525048e-02  5.3086713297523354e-02  5.9620150805786178e-02  3.3505394014431228e-02  3.7751282866205303e-03  9.7451143462688270e-03  2.2596606061184143e-02  6.3534185003544068e-03  4.4078040316229786e-04  4.9955246476198686e-03  9.4288605220083400e-03  4.2483175507741135e-03  6.6213890198762544e-03  1.4305759198545414e-03  3.9055441499538683e-03  3.6042020009453991e-03  6.6631121268341739e-03  3.9099553121492592e-03  9.8260987093683715e-04  6.8777970115363929e-04  5.2861292200283047e-05  7.5300988136208668e-05  5.6120342059968767e-05  3.2383575521306059e-05  2.2210902994250245e-05  1.2511855167164195e-05  1.4052030524617947e-05  1.6891920419383673e-05  2.6649184168327326e-05  7.7526312246395680e-05  5.3110289594088257e-05  8.0989935335534691e-06  2.4232719775377483e-04  1.7419763432518427e-04  1.1693441476867210e-04  6.0464021388012437e-05  2.5776061112185982e-04  8.1145693212791457e-04  8.7465698647340234e-04  7.6938936707175625e-05  4.9134878677216311e-04  5.2957090602191704e-04  3.2583490246556967e-04  1.7203870582307120e-04  5.6427117184118224e-05  5.1643783085189226e-06  2.4586760760621559e-04  3.1098061784648386e-04  2.3474577302555732e-04  1.3192839225206542e-04  5.5409068584097132e-05  1.5440317927372970e-05  3.2034355052861255e-07  4.6369734845448740e-06  4.7648715851274857e-06  3.8683913050712619e-06  3.0115926543035897e-06  2.4087889607337888e-06  1.9617046960961898e-06  1.5697762435985024e-06  1.2958171271432423e-06  8.1778150617111640e-07  7.6864100315527210e-23  2.4074124304840448e-34  9.3280912199478431e-03  3.1111194524871041e-03  1.8102513702869964e-02  8.4330704223219387e-03  5.8667461295237150e-04  1.7004062308383860e-03  3.6998798141922638e-04  3.3940533877442410e-03  1.9524262794177859e-02  3.0909535222559400e-02  1.5782031914623122e-02  2.0072692801744899e-02  1.0380331371458324e-02  4.4057668754316588e-03  1.2102666045273233e-02  4.3850223925386358e-02  1.4126088239090294e-03  5.0366221183853459e-03  1.7117423211733172e-02  3.0605612842845163e-02  2.5501608296093835e-02  4.3884633799201551e-02  4.2643865359640348e-02  2.7685147844381714e-02  1.4083782298053342e-02  2.0911012460104933e-02  2.4602973049328805e-02  9.1949746763314213e-03  1.5926338106525356e-02  1.5675082990324159e-02  2.1976245068633694e-02  4.8970554344195942e-02  2.7849697137344941e-02  3.1460902186814829e-03  2.5072310213540245e-02  1.5992164963358157e-02  1.6153604297588268e-02  4.2154336464832236e-02  5.9754412973560274e-02  5.2301381235057613e-02  4.5070686502107479e-02  2.4478237103420970e-02  1.3360048921187489e-02  2.3623138041483242e-02  1.0793209635894982e-02  2.8261830949783621e-02  3.3714999631028815e-02  1.6491755588520781e-02  1.7921761912851827e-02  1.0061412863656180e-02  1.1711784233552154e-02  8.7478565507876343e-03  2.8151377959551851e-03  1.2447729984735975e-03  8.8326441126064057e-03  2.0389186703529075e-04  1.1848432659384578e-03  3.3476474467401601e-04  6.3192200069971401e-05  5.3416372454980301e-05  3.7200176916108157e-05  2.5084240003953142e-05  1.3517134173577784e-05  1.9054210893883527e-05  1.2657831268328439e-05  3.1227600470865255e-05  4.4875356226559399e-05  1.1215781454342647e-04  1.1584047475281665e-05  1.2523101179998919e-04  3.2217256150818312e-04  1.3439627552875674e-05  1.2613682264513111e-04  6.1862449641890912e-05  5.5343349666076187e-04  1.0525490554411480e-03  5.2791100231726633e-04  3.6838652314904037e-04  6.0521588226366326e-04  4.1831260668535511e-04  2.4195445700033431e-04  5.2097542373042521e-05  1.0353327418266647e-04  1.5014188182816619e-04  3.3885217018927337e-04  2.8998384316557773e-04  1.7977299836781802e-04  8.7652292787516624e-05  3.2762756164924224e-05  7.7801080033418809e-06  1.1787319305323215e-06  3.2775230890178827e-06  3.0875413474591057e-06  2.4615305483042597e-06  1.9529245096313862e-06  1.6139728663892785e-06  1.3510367460311394e-06  1.0731059604183595e-06  8.7700284725920668e-07  -7.0529661049337250e-38  -1.4540833290135681e-19  2.9164292135811349e-03  3.8452341043373741e-03  7.5532293593765058e-03  1.9196690890321486e-03  2.0429734788201120e-03  1.1857726185226118e-02  1.2611131575804653e-02  1.3932146380913377e-02  5.6698067384714492e-03  3.7021310858414759e-03  7.8643253946967494e-03  1.9303041386454316e-02  2.4761026051922413e-02  2.4050873812897604e-02  4.2282586226550914e-02  2.1189567946871238e-03  3.9647230548292174e-03  3.6575203293716392e-02  1.9353683757715512e-02  1.6015097992725165e-02  1.9292497953311380e-02  3.3817745427258800e-03  4.5834455911750371e-03  9.1853765183904819e-03  9.3272532824643355e-03  3.6270159123053904e-03  2.3510761272097658e-02  3.2563116857645139e-02  3.5372543105885619e-02  1.3153643130287072e-02  3.0183285608995226e-02  2.8306570790561619e-02  2.5628001507419843e-02  3.6060736933506914e-02  1.4082126388169598e-02  2.1256000449651351e-02  3.8090424818314314e-03  2.9245444268207646e-02  5.0771206893322256e-02  5.8090742623844567e-02  6.3784564096954419e-02  2.8568250047181831e-02  7.5747407885266901e-03  7.5606212143491617e-03  2.7790557828183071e-02  1.1523239595866571e-02  8.2187050452378705e-03  1.8322723847696756e-02  2.6329764876102560e-03  3.6735393378370695e-03  6.2059148207574176e-03  3.4752297308549847e-04  6.8377981987950542e-03  3.4806296222969473e-03  9.2474893182929296e-03  4.1270686835301216e-03  8.9130074420985448e-04  1.1807164373099190e-03  2.7480822408308749e-05  5.8792463207735768e-05  4.0526043554826749e-05  1.9031329652760504e-05  1.4308004406618907e-05  6.3914071792033779e-06  1.4954766492241955e-05  1.8289325563352736e-05  3.3197367240276445e-05  9.4206870755962071e-05  7.0308449132818181e-05  1.1528747705806452e-05  3.0302255064429840e-04  2.2277226198922720e-04  1.6938145408581718e-04  3.5923158615305164e-05  2.2923748949853548e-04  9.2415289972641763e-04  1.0013419808251026e-03  1.6245253989606088e-05  6.3469683142867712e-04  5.6733870655765962e-04  2.9875619548911801e-04  1.6719129744781187e-04  8.7067086013577945e-05  1.9247194658543889e-05  3.0631385769190139e-04  3.5449536990419812e-04  2.3844754599637116e-04  1.2615805520352084e-04  5.3255336352276337e-05  1.7145548014279669e-05  2.8034968788489674e-06  1.5949058411243814e-06  2.2069129996082792e-06  1.7976613360704525e-06  1.3573782263049369e-06  1.0963725234758720e-06  9.1571009223120606e-07  7.2912925825866012e-07  5.9709321962248900e-07  2.4117906418422247e-23  -5.7710000558138369e-19  1.8000207274948835e-02  1.6101597358393175e-02  1.6565206972057854e-03  1.9215122069594123e-02  1.7437105454157768e-02  2.0633053135797504e-03  7.7645673809654111e-03  4.0471425164707742e-03  1.1224041365358288e-02  1.8449606881571982e-02  3.4560819060126022e-02  3.1293281805636002e-02  9.1988242620444222e-03  1.1842978664010672e-02  1.0493524713292301e-02  2.6967171612464042e-03  5.0523201238488483e-02  1.1069709106579525e-02  1.4713791308162031e-02  1.0391275386629980e-02  3.0190863949470986e-02  2.8309909579782303e-02  5.1373615893743105e-02  5.6606013090048479e-02  4.4025850325089710e-02  2.2864058038694207e-02  2.0580218511324737e-02  2.3826379287376073e-02  6.1356209642477845e-03  2.8961745695316662e-02  2.6584414218064286e-02  3.0497324196465871e-02  6.6432881120434911e-02  3.1249943069623570e-02  7.5967504960882375e-03  2.8503834939140226e-02  1.7939632220630376e-02  2.1976643821439108e-02  4.6923321837672193e-02  6.1514326100529794e-02  5.1838542178305060e-02  5.1949969414752876e-02  2.3583348856869874e-02  2.3013950914068347e-02  2.2078330364600603e-02  1.0829196348886372e-02  3.6052628867572857e-02  4.0547768522111456e-02  1.9582281035852838e-02  2.2230986303327545e-02  1.5936081164653306e-02  1.6265789627499964e-02  1.1438009506415358e-02  3.0847195234862249e-03  1.0357593085826198e-03  1.1503543992313174e-02  1.7280823549396110e-03  6.5931879399111395e-04  7.0324970663546984e-04  8.3435227370885835e-05  7.1029657927262449e-05  4.6605340567050457e-05  2.6835196567542835e-05  1.2066248863206898e-05  1.7564721409256287e-05  1.2005987166486997e-05  3.3484958075026635e-05  5.1231257027342319e-05  1.3113663317584770e-04  1.6401898078410278e-05  1.3360539422407818e-04  3.8340874205053285e-04  1.6487909686052743e-05  1.5375402926239671e-04  2.6428471222333555e-05  5.8184614525906293e-04  1.1776126699855499e-03  5.6643572415295202e-04  4.8744806508422379e-04  6.9922468545828586e-04  4.3160021948809374e-04  2.3137023428349598e-04  4.5126323449408277e-05  1.3183336488087298e-04  1.6682472916262520e-04  3.9035668093673269e-04  3.1339114332166172e-04  1.7936479434867391e-04  8.3691412669382561e-05  3.1229248425720020e-05  8.2164279803096804e-06  2.6202111006139421e-08  1.9992243428026648e-06  1.8391038005965904e-06  1.2949948871207764e-06  9.0327749110668028e-07  6.9448907498350144e-07  5.3846447701808543e-07  3.1360743169365001e-07  -1.7408709567992465e-23  -9.9461382308865487e-21  1.0396109480367330e-02  1.4694141863143145e-03  4.2173225000002807e-03  1.5051303540021561e-02  9.5564592004850745e-03  5.3690553365934052e-04  7.9829297531273363e-03  1.5096028018958096e-02  1.2279432085773130e-02  4.5608542294828785e-03  9.5100192040761516e-03  4.6893014297579288e-03  6.8456500489515138e-03  3.3406432658601444e-02  1.2946594821621327e-02  4.2761914468146145e-02  7.3437109842774120e-03  1.5192182804084823e-02  2.9462197409998319e-02  1.8997477934550432e-02  1.8634129931622126e-02  2.7948486484607470e-02  6.0263846979106521e-03  8.2009503417698800e-03  7.7148489365736215e-03  1.8189437614841439e-03  6.1814212850467296e-03  2.9914296149087194e-02  4.2942966331501194e-02  3.8538146692852319e-02  8.5005525073775737e-03  3.4945263975761066e-02  2.7320487915263238e-02  3.6577986981323446e-02  5.0586440176822088e-02  8.6444905017763907e-03  2.2018452252800882e-02  2.4227347646860100e-03  3.2737562165921053e-02  5.6370624189252164e-02  6.3470605235673397e-02  6.2963794402204468e-02  2.7853664982777759e-02  6.1581368328157606e-03  1.1739226890415136e-02  3.0606514894603525e-02  1.4501280590835830e-02  1.5860778700709507e-02  3.1347651529490830e-02  6.5104929008103192e-03  1.6737741325767205e-03  1.5709421195194591e-03  4.4709717736331339e-03  1.0511858492691243e-02  2.6285667066695082e-03  1.0023384707619621e-02  5.3709329462006249e-03  2.8842332257312891e-03  1.4045700509131205e-03  2.3095727432723276e-04  9.3245724713134019e-05  8.1127325798461557e-05  5.6803295391241779e-05  4.4139751620961608e-05  2.8967842901221103e-05  3.2831796059510755e-05  3.2731084803977089e-05  4.7577662732444941e-05  1.1428984032821483e-04  8.3382489566037865e-05  8.1338887676007511e-06  3.4174204191225407e-04  2.5155228911447020e-04  1.9216049256790812e-04  3.5829479889401267e-05  2.3022869966131935e-04  1.0049813268317778e-03  1.0810801689302271e-03  6.3728083973417789e-05  7.4126307490930828e-04  6.1330044128799388e-04  2.9843852721276627e-04  1.6316584585581413e-04  9.6744362150798899e-05  1.8003764301553494e-05  3.4498271342648859e-04  3.9243907542715195e-04  2.4881339445531213e-04  1.2457653775542544e-04  5.2150859118481102e-05  1.7727967874946149e-05  3.7402135047723137e-06  9.5597929922896085e-07  1.8239240422642690e-06  1.4951692134086757e-06  1.0482059992493405e-06  7.6294544178578454e-07  5.5568776056643411e-07  3.1037487928557304e-07  -1.7229266862404576e-23  -1.8084079267376888e-19  1.7917369772159079e-04  7.3986666771584829e-03  4.5276426463425560e-03  1.1326303029395848e-02  1.3076419410281256e-02  1.9278297925494431e-02  8.7162831209078068e-04  1.2981909912831371e-02  8.8103925749780931e-03  1.4252969005040849e-02  1.3892852457217560e-02  2.7288546327862977e-02  2.6613010844786858e-02  3.1416066484308558e-03  5.5292496207865448e-04  1.3170598755936003e-02  9.5156425507088947e-03  4.2716081626578965e-02  7.9871571773585306e-03  1.6200612352278685e-02  3.1261378601560642e-03  2.2698961544258045e-02  1.8986821884250431e-02  4.3284663765803817e-02  4.8638785302221037e-02  4.0190355184467737e-02  2.2953613330538452e-02  1.7199089093668133e-02  1.6034007824131339e-02  3.4254440067566004e-04  3.6678651528758273e-02  3.4796041261808699e-02  3.2926659758987564e-02  7.4236764034203595e-02  2.4805741823045884e-02  2.1911246483444037e-02  2.7463555866311495e-02  1.7237420246704663e-02  2.6747607251271583e-02  5.1343067539933271e-02  6.3530097417048306e-02  5.5880118233918454e-02  5.5850522353760798e-02  1.9494311612957890e-02  2.7188727364767257e-02  2.1762598094086868e-02  1.0783500804723820e-02  3.8765769692368904e-02  3.7016826775464293e-02  9.9489755607111412e-03  1.6299283045110902e-02  1.4017036419560669e-02  1.5123649692152652e-02  9.9768866915136232e-03  5.3637836343592687e-03  1.8385484336984181e-03  1.3042697089091920e-02  1.7485982234623939e-03  8.0913511458643647e-04  1.0516815717419037e-03  4.0118368234437515e-05  1.0144395993634654e-04  8.3506947542171051e-05  6.6080907466512041e-05  4.8857498690779281e-05  5.1748044089273031e-05  4.2393087530219759e-05  6.0738369291380794e-05  8.1674024785512595e-05  1.5799073149834434e-04  4.3013551947825279e-06  1.6551182079163046e-04  4.2276526658510915e-04  1.8335151362717641e-05  1.6220048021964046e-04  2.7492743839169804e-05  6.3158247400889940e-04  1.2653778774925177e-03  5.7126308598536241e-04  5.7465434057518043e-04  7.8169845204542903e-04  4.5071219844265475e-04  2.2745542899661489e-04  3.1046011128400997e-05  1.3347884962199843e-04  1.9251762714833141e-04  4.3238812381930894e-04  3.3974431696944088e-04  1.8333158628984315e-04  8.1497132898076058e-05  3.0797294685511585e-05  9.3746713168443605e-06  1.3251901665248529e-06  1.0605195505065442e-06  1.3056624169698990e-06  1.0072600816847309e-06  7.3947273931657388e-07  5.7471864624697243e-07  3.8242806950122333e-07  3.2682863000294986e-23  -1.0469475095017215e-19  5.7173564340621159e-03  4.3082854988371853e-03  4.6619335849065373e-03  6.4929102371437562e-03  7.2826506549296894e-03  1.6448275506595056e-02  7.2906400319523788e-04  3.7648462657100781e-03  1.2427467155626320e-02  1.1388246946538434e-02  2.4716615959750549e-03  4.7651320019849478e-03  5.2263493446368875e-03  3.9948846547814745e-03  2.6688288566243223e-02  9.3162951012112829e-03  