<?xml version="1.0"?>
<VTKFile type="UnstructuredGrid"  version="0.1"  >
<UnstructuredGrid>
<Piece  NumberOfPoints="10201" NumberOfCells="20000">
<Points>
<DataArray  type="Float64"  NumberOfComponents="3"  format="ascii">0 0 0  0.01 0 0  0.02 0 0  0.03 0 0  0.04 0 0  0.05 0 0  0.06 0 0  0.07000000000000001 0 0  0.08 0 0  0.09 0 0  0.1 0 0  0.11 0 0  0.12 0 0  0.13 0 0  0.14 0 0  0.15 0 0  0.16 0 0  0.17 0 0  0.18 0 0  0.19 0 0  0.2 0 0  0.21 0 0  0.22 0 0  0.23 0 0  0.24 0 0  0.25 0 0  0.26 0 0  0.27 0 0  0.28 0 0  0.29 0 0  0.3 0 0  0.31 0 0  0.32 0 0  0.33 0 0  0.34 0 0  0.35 0 0  0.36 0 0  0.37 0 0  0.38 0 0  0.39 0 0  0.4 0 0  0.41 0 0  0.42 0 0  0.43 0 0  0.44 0 0  0.45 0 0  0.46 0 0  0.47 0 0  0.48 0 0  0.49 0 0  0.5 0 0  0.51 0 0  0.52 0 0  0.53 0 0  0.54 0 0  0.55 0 0  0.5600000000000001 0 0  0.57 0 0  0.58 0 0  0.59 0 0  0.6 0 0  0.61 0 0  0.62 0 0  0.63 0 0  0.64 0 0  0.65 0 0  0.66 0 0  0.67 0 0  0.68 0 0  0.6899999999999999 0 0  0.7 0 0  0.71 0 0  0.72 0 0  0.73 0 0  0.74 0 0  0.75 0 0  0.76 0 0  0.77 0 0  0.78 0 0  0.79 0 0  0.8 0 0  0.8100000000000001 0 0  0.82 0 0  0.83 0 0  0.84 0 0  0.85 0 0  0.86 0 0  0.87 0 0  0.88 0 0  0.89 0 0  0.9 0 0  0.91 0 0  0.92 0 0  0.93 0 0  0.9399999999999999 0 0  0.95 0 0  0.96 0 0  0.97 0 0  0.98 0 0  0.99 0 0  1 0 0  0 0.01 0  0.01 0.01 0  0.02 0.01 0  0.03 0.01 0  0.04 0.01 0  0.05 0.01 0  0.06 0.01 0  0.07000000000000001 0.01 0  0.08 0.01 0  0.09 0.01 0  0.1 0.01 0  0.11 0.01 0  0.12 0.01 0  0.13 0.01 0  0.14 0.01 0  0.15 0.01 0  0.16 0.01 0  0.17 0.01 0  0.18 0.01 0  0.19 0.01 0  0.2 0.01 0  0.21 0.01 0  0.22 0.01 0  0.23 0.01 0  0.24 0.01 0  0.25 0.01 0  0.26 0.01 0  0.27 0.01 0  0.28 0.01 0  0.29 0.01 0  0.3 0.01 0  0.31 0.01 0  0.32 0.01 0  0.33 0.01 0  0.34 0.01 0  0.35 0.01 0  0.36 0.01 0  0.37 0.01 0  0.38 0.01 0  0.39 0.01 0  0.4 0.01 0  0.41 0.01 0  0.42 0.01 0  0.43 0.01 0  0.44 0.01 0  0.45 0.01 0  0.46 0.01 0  0.47 0.01 0  0.48 0.01 0  0.49 0.01 0  0.5 0.01 0  0.51 0.01 0  0.52 0.01 0  0.53 0.01 0  0.54 0.01 0  0.55 0.01 0  0.5600000000000001 0.01 0  0.57 0.01 0  0.58 0.01 0  0.59 0.01 0  0.6 0.01 0  0.61 0.01 0  0.62 0.01 0  0.63 0.01 0  0.64 0.01 0  0.65 0.01 0  0.66 0.01 0  0.67 0.01 0  0.68 0.01 0  0.6899999999999999 0.01 0  0.7 0.01 0  0.71 0.01 0  0.72 0.01 0  0.73 0.01 0  0.74 0.01 0  0.75 0.01 0  0.76 0.01 0  0.77 0.01 0  0.78 0.01 0  0.79 0.01 0  0.8 0.01 0  0.8100000000000001 0.01 0  0.82 0.01 0  0.83 0.01 0  0.84 0.01 0  0.85 0.01 0  0.86 0.01 0  0.87 0.01 0  0.88 0.01 0  0.89 0.01 0  0.9 0.01 0  0.91 0.01 0  0.92 0.01 0  0.93 0.01 0  0.9399999999999999 0.01 0  0.95 0.01 0  0.96 0.01 0  0.97 0.01 0  0.98 0.01 0  0.99 0.01 0  1 0.01 0  0 0.02 0  0.01 0.02 0  0.02 0.02 0  0.03 0.02 0  0.04 0.02 0  0.05 0.02 0  0.06 0.02 0  0.07000000000000001 0.02 0  0.08 0.02 0  0.09 0.02 0  0.1 0.02 0  0.11 0.02 0  0.12 0.02 0  0.13 0.02 0  0.14 0.02 0  0.15 0.02 0  0.16 0.02 0  0.17 0.02 0  0.18 0.02 0  0.19 0.02 0  0.2 0.02 0  0.21 0.02 0  0.22 0.02 0  0.23 0.02 0  0.24 0.02 0  0.25 0.02 0  0.26 0.02 0  0.27 0.02 0  0.28 0.02 0  0.29 0.02 0  0.3 0.02 0  0.31 0.02 0  0.32 0.02 0  0.33 0.02 0  0.34 0.02 0  0.35 0.02 0  0.36 0.02 0  0.37 0.02 0  0.38 0.02 0  0.39 0.02 0  0.4 0.02 0  0.41 0.02 0  0.42 0.02 0  0.43 0.02 0  0.44 0.02 0  0.45 0.02 0  0.46 0.02 0  0.47 0.02 0  0.48 0.02 0  0.49 0.02 0  0.5 0.02 0  0.51 0.02 0  0.52 0.02 0  0.53 0.02 0  0.54 0.02 0  0.55 0.02 0  0.5600000000000001 0.02 0  0.57 0.02 0  0.58 0.02 0  0.59 0.02 0  0.6 0.02 0  0.61 0.02 0  0.62 0.02 0  0.63 0.02 0  0.64 0.02 0  0.65 0.02 0  0.66 0.02 0  0.67 0.02 0  0.68 0.02 0  0.6899999999999999 0.02 0  0.7 0.02 0  0.71 0.02 0  0.72 0.02 0  0.73 0.02 0  0.74 0.02 0  0.75 0.02 0  0.76 0.02 0  0.77 0.02 0  0.78 0.02 0  0.79 0.02 0  0.8 0.02 0  0.8100000000000001 0.02 0  0.82 0.02 0  0.83 0.02 0  0.84 0.02 0  0.85 0.02 0  0.86 0.02 0  0.87 0.02 0  0.88 0.02 0  0.89 0.02 0  0.9 0.02 0  0.91 0.02 0  0.92 0.02 0  0.93 0.02 0  0.9399999999999999 0.02 0  0.95 0.02 0  0.96 0.02 0  0.97 0.02 0  0.98 0.02 0  0.99 0.02 0  1 0.02 0  0 0.03 0  0.01 0.03 0  0.02 0.03 0  0.03 0.03 0  0.04 0.03 0  0.05 0.03 0  0.06 0.03 0  0.07000000000000001 0.03 0  0.08 0.03 0  0.09 0.03 0  0.1 0.03 0  0.11 0.03 0  0.12 0.03 0  0.13 0.03 0  0.14 0.03 0  0.15 0.03 0  0.16 0.03 0  0.17 0.03 0  0.18 0.03 0  0.19 0.03 0  0.2 0.03 0  0.21 0.03 0  0.22 0.03 0  0.23 0.03 0  0.24 0.03 0  0.25 0.03 0  0.26 0.03 0  0.27 0.03 0  0.28 0.03 0  0.29 0.03 0  0.3 0.03 0  0.31 0.03 0  0.32 0.03 0  0.33 0.03 0  0.34 0.03 0  0.35 0.03 0  0.36 0.03 0  0.37 0.03 0  0.38 0.03 0  0.39 0.03 0  0.4 0.03 0  0.41 0.03 0  0.42 0.03 0  0.43 0.03 0  0.44 0.03 0  0.45 0.03 0  0.46 0.03 0  0.47 0.03 0  0.48 0.03 0  0.49 0.03 0  0.5 0.03 0  0.51 0.03 0  0.52 0.03 0  0.53 0.03 0  0.54 0.03 0  0.55 0.03 0  0.5600000000000001 0.03 0  0.57 0.03 0  0.58 0.03 0  0.59 0.03 0  0.6 0.03 0  0.61 0.03 0  0.62 0.03 0  0.63 0.03 0  0.64 0.03 0  0.65 0.03 0  0.66 0.03 0  0.67 0.03 0  0.68 0.03 0  0.6899999999999999 0.03 0  0.7 0.03 0  0.71 0.03 0  0.72 0.03 0  0.73 0.03 0  0.74 0.03 0  0.75 0.03 0  0.76 0.03 0  0.77 0.03 0  0.78 0.03 0  0.79 0.03 0  0.8 0.03 0  0.8100000000000001 0.03 0  0.82 0.03 0  0.83 0.03 0  0.84 0.03 0  0.85 0.03 0  0.86 0.03 0  0.87 0.03 0  0.88 0.03 0  0.89 0.03 0  0.9 0.03 0  0.91 0.03 0  0.92 0.03 0  0.93 0.03 0  0.9399999999999999 0.03 0  0.95 0.03 0  0.96 0.03 0  0.97 0.03 0  0.98 0.03 0  0.99 0.03 0  1 0.03 0  0 0.04 0  0.01 0.04 0  0.02 0.04 0  0.03 0.04 0  0.04 0.04 0  0.05 0.04 0  0.06 0.04 0  0.07000000000000001 0.04 0  0.08 0.04 0  0.09 0.04 0  0.1 0.04 0  0.11 0.04 0  0.12 0.04 0  0.13 0.04 0  0.14 0.04 0  0.15 0.04 0  0.16 0.04 0  0.17 0.04 0  0.18 0.04 0  0.19 0.04 0  0.2 0.04 0  0.21 0.04 0  0.22 0.04 0  0.23 0.04 0  0.24 0.04 0  0.25 0.04 0  0.26 0.04 0  0.27 0.04 0  0.28 0.04 0  0.29 0.04 0  0.3 0.04 0  0.31 0.04 0  0.32 0.04 0  0.33 0.04 0  0.34 0.04 0  0.35 0.04 0  0.36 0.04 0  0.37 0.04 0  0.38 0.04 0  0.39 0.04 0  0.4 0.04 0  0.41 0.04 0  0.42 0.04 0  0.43 0.04 0  0.44 0.04 0  0.45 0.04 0  0.46 0.04 0  0.47 0.04 0  0.48 0.04 0  0.49 0.04 0  0.5 0.04 0  0.51 0.04 0  0.52 0.04 0  0.53 0.04 0  0.54 0.04 0  0.55 0.04 0  0.5600000000000001 0.04 0  0.57 0.04 0  0.58 0.04 0  0.59 0.04 0  0.6 0.04 0  0.61 0.04 0  0.62 0.04 0  0.63 0.04 0  0.64 0.04 0  0.65 0.04 0  0.66 0.04 0  0.67 0.04 0  0.68 0.04 0  0.6899999999999999 0.04 0  0.7 0.04 0  0.71 0.04 0  0.72 0.04 0  0.73 0.04 0  0.74 0.04 0  0.75 0.04 0  0.76 0.04 0  0.77 0.04 0  0.78 0.04 0  0.79 0.04 0  0.8 0.04 0  0.8100000000000001 0.04 0  0.82 0.04 0  0.83 0.04 0  0.84 0.04 0  0.85 0.04 0  0.86 0.04 0  0.87 0.04 0  0.88 0.04 0  0.89 0.04 0  0.9 0.04 0  0.91 0.04 0  0.92 0.04 0  0.93 0.04 0  0.9399999999999999 0.04 0  0.95 0.04 0  0.96 0.04 0  0.97 0.04 0  0.98 0.04 0  0.99 0.04 0  1 0.04 0  0 0.05 0  0.01 0.05 0  0.02 0.05 0  0.03 0.05 0  0.04 0.05 0  0.05 0.05 0  0.06 0.05 0  0.07000000000000001 0.05 0  0.08 0.05 0  0.09 0.05 0  0.1 0.05 0  0.11 0.05 0  0.12 0.05 0  0.13 0.05 0  0.14 0.05 0  0.15 0.05 0  0.16 0.05 0  0.17 0.05 0  0.18 0.05 0  0.19 0.05 0  0.2 0.05 0  0.21 0.05 0  0.22 0.05 0  0.23 0.05 0  0.24 0.05 0  0.25 0.05 0  0.26 0.05 0  0.27 0.05 0  0.28 0.05 0  0.29 0.05 0  0.3 0.05 0  0.31 0.05 0  0.32 0.05 0  0.33 0.05 0  0.34 0.05 0  0.35 0.05 0  0.36 0.05 0  0.37 0.05 0  0.38 0.05 0  0.39 0.05 0  0.4 0.05 0  0.41 0.05 0  0.42 0.05 0  0.43 0.05 0  0.44 0.05 0  0.45 0.05 0  0.46 0.05 0  0.47 0.05 0  0.48 0.05 0  0.49 0.05 0  0.5 0.05 0  0.51 0.05 0  0.52 0.05 0  0.53 0.05 0  0.54 0.05 0  0.55 0.05 0  0.5600000000000001 0.05 0  0.57 0.05 0  0.58 0.05 0  0.59 0.05 0  0.6 0.05 0  0.61 0.05 0  0.62 0.05 0  0.63 0.05 0  0.64 0.05 0  0.65 0.05 0  0.66 0.05 0  0.67 0.05 0  0.68 0.05 0  0.6899999999999999 0.05 0  0.7 0.05 0  0.71 0.05 0  0.72 0.05 0  0.73 0.05 0  0.74 0.05 0  0.75 0.05 0  0.76 0.05 0  0.77 0.05 0  0.78 0.05 0  0.79 0.05 0  0.8 0.05 0  0.8100000000000001 0.05 0  0.82 0.05 0  0.83 0.05 0  0.84 0.05 0  0.85 0.05 0  0.86 0.05 0  0.87 0.05 0  0.88 0.05 0  0.89 0.05 0  0.9 0.05 0  0.91 0.05 0  0.92 0.05 0  0.93 0.05 0  0.9399999999999999 0.05 0  0.95 0.05 0  0.96 0.05 0  0.97 0.05 0  0.98 0.05 0  0.99 0.05 0  1 0.05 0  0 0.06 0  0.01 0.06 0  0.02 0.06 0  0.03 0.06 0  0.04 0.06 0  0.05 0.06 0  0.06 0.06 0  0.07000000000000001 0.06 0  0.08 0.06 0  0.09 0.06 0  0.1 0.06 0  0.11 0.06 0  0.12 0.06 0  0.13 0.06 0  0.14 0.06 0  0.15 0.06 0  0.16 0.06 0  0.17 0.06 0  0.18 0.06 0  0.19 0.06 0  0.2 0.06 0  0.21 0.06 0  0.22 0.06 0  0.23 0.06 0  0.24 0.06 0  0.25 0.06 0  0.26 0.06 0  0.27 0.06 0  0.28 0.06 0  0.29 0.06 0  0.3 0.06 0  0.31 0.06 0  0.32 0.06 0  0.33 0.06 0  0.34 0.06 0  0.35 0.06 0  0.36 0.06 0  0.37 0.06 0  0.38 0.06 0  0.39 0.06 0  0.4 0.06 0  0.41 0.06 0  0.42 0.06 0  0.43 0.06 0  0.44 0.06 0  0.45 0.06 0  0.46 0.06 0  0.47 0.06 0  0.48 0.06 0  0.49 0.06 0  0.5 0.06 0  0.51 0.06 0  0.52 0.06 0  0.53 0.06 0  0.54 0.06 0  0.55 0.06 0  0.5600000000000001 0.06 0  0.57 0.06 0  0.58 0.06 0  0.59 0.06 0  0.6 0.06 0  0.61 0.06 0  0.62 0.06 0  0.63 0.06 0  0.64 0.06 0  0.65 0.06 0  0.66 0.06 0  0.67 0.06 0  0.68 0.06 0  0.6899999999999999 0.06 0  0.7 0.06 0  0.71 0.06 0  0.72 0.06 0  0.73 0.06 0  0.74 0.06 0  0.75 0.06 0  0.76 0.06 0  0.77 0.06 0  0.78 0.06 0  0.79 0.06 0  0.8 0.06 0  0.8100000000000001 0.06 0  0.82 0.06 0  0.83 0.06 0  0.84 0.06 0  0.85 0.06 0  0.86 0.06 0  0.87 0.06 0  0.88 0.06 0  0.89 0.06 0  0.9 0.06 0  0.91 0.06 0  0.92 0.06 0  0.93 0.06 0  0.9399999999999999 0.06 0  0.95 0.06 0  0.96 0.06 0  0.97 0.06 0  0.98 0.06 0  0.99 0.06 0  1 0.06 0  0 0.07000000000000001 0  0.01 0.07000000000000001 0  0.02 0.07000000000000001 0  0.03 0.07000000000000001 0  0.04 0.07000000000000001 0  0.05 0.07000000000000001 0  0.06 0.07000000000000001 0  0.07000000000000001 0.07000000000000001 0  0.08 0.07000000000000001 0  0.09 0.07000000000000001 0  0.1 0.07000000000000001 0  0.11 0.07000000000000001 0  0.12 0.07000000000000001 0  0.13 0.07000000000000001 0  0.14 0.07000000000000001 0  0.15 0.07000000000000001 0  0.16 0.07000000000000001 0  0.17 0.0700
[...]
<PointData  Scalars="u"> 
<DataArray  type="Float64"  Name="u"  format="ascii">0.0000000000000000e+00  0.0000000000000000e+00  0.0000000000000000e+00  0.0000000000000000e+00  0.0000000000000000e+00  0.0000000000000000e+00  0.0000000000000000e+00  0.0000000000000000e+00  0.0000000000000000e+00  0.0000000000000000e+00  0.0000000000000000e+00  0.0000000000000000e+00  0.0000000000000000e+00  0.0000000000000000e+00  0.0000000000000000e+00  0.0000000000000000e+00  0.0000000000000000e+00  0.0000000000000000e+00  0.0000000000000000e+00  0.0000000000000000e+00  0.0000000000000000e+00  0.0000000000000000e+00  0.0000000000000000e+00  0.0000000000000000e+00  0.0000000000000000e+00  0.0000000000000000e+00  0.0000000000000000e+00  0.0000000000000000e+00  0.0000000000000000e+00  0.0000000000000000e+00  0.0000000000000000e+00  0.0000000000000000e+00  0.0000000000000000e+00  0.0000000000000000e+00  0.0000000000000000e+00  0.0000000000000000e+00  0.0000000000000000e+00  0.0000000000000000e+00  0.0000000000000000e+00  0.0000000000000000e+00  0.0000000000000000e+00  0.0000000000000000e+00  0.0000000000000000e+00  0.0000000000000000e+00  0.0000000000000000e+00  0.0000000000000000e+00  0.0000000000000000e+00  0.0000000000000000e+00  0.0000000000000000e+00  0.0000000000000000e+00  0.0000000000000000e+00  0.0000000000000000e+00  0.0000000000000000e+00  0.0000000000000000e+00  0.0000000000000000e+00  0.0000000000000000e+00  0.0000000000000000e+00  0.0000000000000000e+00  0.0000000000000000e+00  0.0000000000000000e+00  0.0000000000000000e+00  0.0000000000000000e+00  0.0000000000000000e+00  0.0000000000000000e+00  0.0000000000000000e+00  0.0000000000000000e+00  0.0000000000000000e+00  0.0000000000000000e+00  0.0000000000000000e+00  0.0000000000000000e+00  0.0000000000000000e+00  0.0000000000000000e+00  0.0000000000000000e+00  0.0000000000000000e+00  0.0000000000000000e+00  0.0000000000000000e+00  0.0000000000000000e+00  0.0000000000000000e+00  0.0000000000000000e+00  0.0000000000000000e+00  0.0000000000000000e+00  0.0000000000000000e+00  0.0000000000000000e+00  0.0000000000000000e+00  0.0000000000000000e+00  0.0000000000000000e+00  0.0000000000000000e+00  0.0000000000000000e+00  0.0000000000000000e+00  0.0000000000000000e+00  0.0000000000000000e+00  0.0000000000000000e+00  0.0000000000000000e+00  0.0000000000000000e+00  0.0000000000000000e+00  0.0000000000000000e+00  0.0000000000000000e+00  0.0000000000000000e+00  0.0000000000000000e+00  0.0000000000000000e+00  0.0000000000000000e+00  0.0000000000000000e+00  -1.3354139782032698e-02  -8.5607117154284096e-02  -2.1715707888775519e-02  -4.8090099629027258e-02  5.7639606108902647e-02  -3.8582779805909136e-02  -8.3859695833859698e-03  5.6290397703662787e-02  -1.0063435802122415e-01  1.4049459628102327e-02  1.0193589166246754e-01  -2.8072599473984664e-02  -1.4994134019839611e-01  6.5886260475821565e-02  -1.2452888312824137e-02  -1.9120268508980760e-03  4.6048767303082730e-03  -6.8823987713335089e-02  1.9743765040722114e-01  -1.1727061356255591e-01  8.5659651382411786e-02  -1.1576218738202036e-01  3.9979582083717949e-02  -1.2110997594156760e-02  9.5373561702780274e-02  -9.7686562906602117e-02  3.5525371056647562e-02  -1.9989611276395761e-02  -1.3289367392177327e-02  2.4510755973217058e-02  6.7297852132655170e-02  -1.1159712448394360e-01  2.6525559771555778e-02  -1.9536103343210077e-03  -1.9559941904380113e-02  4.2093652158966037e-02  2.2407422676067226e-02  6.6620226393134266e-02  1.3301109717186770e-02  -5.6567964293449381e-02  -3.5151042999260300e-02  -1.0369680816752810e-02  -1.8965210920457779e-02  -1.0624550794302280e-02  8.4546510385920648e-02  -7.6184208008388155e-02  3.4359326429900972e-02  -2.2143843761344456e-02  2.7664884256864493e-03  6.7005072886829557e-03  9.9649374928499884e-03  9.3694615415746141e-03  -4.7532843156553706e-02  3.6808813704390445e-02  -1.8735795464679704e-02  3.9508778672340622e-02  -3.8322646870829188e-02  2.9476262162187718e-02  -3.4646576169465627e-02  1.8022435674782761e-02  -3.1211246890449715e-03  -5.5795664304809298e-03  7.9000064274251484e-03  -1.0131451873392266e-03  1.3769683323493051e-03  2.0889454108922027e-03  -4.8657459845396801e-03  3.1785335191264709e-03  2.7960862760964692e-03  -1.7884594490120483e-03  -8.7543758666604329e-04  4.3613808102750017e-04  -4.4116177407111977e-03  -6.2978545347647432e-03  8.8203187550661677e-04  6.3726455379448108e-03  3.0648114991914731e-03  8.9233112967114568e-04  -1.5035145467505377e-03  3.3711883751650593e-04  -3.6181078765796511e-03  3.5349438696842458e-04  4.9825836363987285e-03  1.1781195776783106e-03  -1.9291135320517652e-03  -1.2443645880640482e-03  -1.0224080063407609e-03  2.3513754224106813e-03  -1.1029106781599428e-03  -1.7181222475546160e-03  6.5563879196061173e-04  -1.9886309899140852e-04  -4.4221564823942495e-04  2.3283365189064455e-04  2.4852974054322200e-04  2.8438469513106230e-04  3.3008383225662251e-04  2.0453287991588367e-04  -5.5037784246952083e-05  0.0000000000000000e+00  0.0000000000000000e+00  -1.7366399811522534e-02  -3.1500414985619341e-02  8.9130836037548261e-02  -2.0726614969359763e-02  -8.5330655855169288e-02  -4.9516106066509608e-02  1.1527792255667932e-01  -3.7256220146922134e-02  -1.7046528283032322e-01  2.3754093901633846e-01  -1.0288580774114101e-01  -1.4336855901437515e-01  2.4553531781690455e-01  -1.6427068989413246e-01  -1.9653899576963257e-01  1.3531395320375286e-01  -5.0299064065736442e-02  1.3824880998195557e-01  -5.6431069319289165e-02  -1.7481077298229567e-02  1.9011242411467263e-01  -1.7299439224982224e-01  -7.5324806059855781e-02  1.7891730066918554e-01  -5.6751027630308183e-02  -6.3860870968933753e-02  7.8533502220982113e-02  -3.4532302606224141e-02  4.8398943897493642e-02  -1.5223012666062913e-01  1.2341986512255265e-01  7.3971173223126865e-02  -9.5575191207639437e-02  -1.0906990362993750e-01  7.4672185691212672e-02  -1.7312811427515635e-02  1.1856618201686789e-01  6.4661130728190949e-02  -1.3682134524172818e-02  6.3557186977688640e-02  -7.7685505078810405e-02  -1.2784848796199030e-01  5.6038036754442585e-04  2.6631766348073595e-02  2.7708495109987831e-02  -3.4714861177850224e-04  -2.8629728847646383e-04  -3.0617332734276942e-02  1.4815899039561185e-02  -3.3138605313685066e-02  7.1559280900252889e-02  -3.5795641368517525e-02  1.1649985078285584e-02  -5.4144245746199943e-02  4.0599570378482434e-02  2.1246800464172332e-02  -6.8695975832286649e-03  -5.8844156677729858e-03  2.7231364597383586e-03  -3.4486769813884474e-02  3.7404711893234410e-02  -2.4784756193813550e-02  7.6791149311597664e-03  8.7118332098323932e-03  -5.0013127662905266e-03  8.6161957919269477e-03  -5.4715579344836590e-03  -2.7368438479780069e-03  8.1676449311323431e-03  1.2862201628873553e-03  -4.6129778269935230e-03  1.2325266352343307e-03  -2.4891252965994395e-03  -1.0943819543703041e-02  -7.7179710811541742e-03  9.7622335251848300e-03  8.7602855935793207e-03  3.9221515165609637e-03  -1.7797054821656142e-03  -1.4621895661793287e-03  -5.5579539528476628e-04  -7.4782374363414452e-03  7.3970026921731562e-03  7.3089334155326665e-03  -2.9328590095224873e-03  -1.3057622496011590e-03  -4.7969344790641565e-03  3.3662048899006538e-03  8.8664528008860404e-04  -3.1918713756044106e-03  -1.3973479820462746e-03  1.6282597067231086e-03  -2.5965372403639500e-03  1.3091935351517018e-03  -7.0914298638255783e-04  5.9394304476815749e-04  3.9156177200220317e-04  5.0431325873445210e-04  4.6767507578074249e-04  0.0000000000000000e+00  0.0000000000000000e+00  7.7670286977680025e-02  7.8140030822033690e-02  -2.0192218263150935e-01  8.7566299211212215e-02  -1.1103905971051051e-02  1.4124593610715441e-01  -1.7132247212277818e-01  7.4560453878040361e-02  1.2933318292552265e-01  -3.9537622141884188e-01  2.5871249014461478e-01  2.0856072600965309e-01  -3.0399536232815855e-01  -1.7089662185970567e-01  2.3369319561748036e-01  -2.0113102931971927e-01  1.9180892681323752e-02  -3.5239252482311051e-02  -2.0917067850612675e-02  4.6735913966131820e-01  -4.2752444600999523e-01  3.4622705862330894e-01  -3.7508439986510922e-01  7.4277441655828891e-02  9.4210883265856291e-02  2.0073737316936904e-01  -3.4934270018838259e-01  1.5985394920425131e-01  -5.4998788114339489e-02  4.0782613274709972e-02  -3.9244251117548652e-02  1.5549702128730111e-01  -2.2032552418284868e-01  1.0490337798992487e-01  -9.2427465752374607e-02  -2.2948198040765529e-02  8.8227221501102016e-02  1.0586158180099740e-01  1.8562223266341904e-01  -4.0100457102466548e-02  -1.0475065427853208e-01  -6.0382445689585319e-02  -7.8461925657854772e-02  -5.4238544131843071e-02  1.4986827432203214e-02  2.1550403894258605e-01  -2.1870894690262724e-01  1.1514609409340945e-01  -8.0128952254049632e-02  2.5627469921277006e-02  -1.1280273670218628e-02  6.1948211640284259e-02  -4.9703288332108410e-03  -1.0033174887329985e-01  7.1691305974680056e-02  -3.9165995510515979e-02  1.0947200981848569e-01  -1.0578426657356708e-01  7.7881822062319500e-02  -8.4357563772596497e-02  3.3470898296572085e-02  6.7149933069121362e-03  -2.3476024096167322e-02  2.2552340763265954e-02  -1.3324415244359754e-04  1.0242256017151143e-04  8.6771743558653903e-03  -1.3910621835420328e-02  6.9839823478823415e-03  9.3300731364281669e-03  -3.8162572553213938e-03  -3.7424623035030207e-03  2.1561830310246359e-03  -1.0297933853312581e-02  -1.7060070372355681e-02  2.9023290749169265e-04  1.8912471868411645e-02  8.7851079376558387e-03  2.5929242581464473e-03  -4.9580372396887560e-03  2.6856110720305866e-04  -7.7588765398658435e-03  -2.0514827850032203e-03  1.4207488274584601e-02  4.6180192557215222e-03  -6.5189070897911190e-03  -2.4934575149252020e-03  -4.5227261172669161e-03  7.1284815576528604e-03  -2.7956702726855977e-03  -5.1668893731237550e-03  1.1169127827239452e-03  1.6752586625505634e-04  -2.6880546533000023e-03  1.0556360493964138e-03  -2.2286530818143866e-04  3.2881889156945963e-04  3.8918264611229687e-04  2.5721609008006201e-04  0.0000000000000000e+00  0.0000000000000000e+00  -1.0935685269933640e-01  -8.7546263994174728e-02  1.0074766193974991e-01  8.5858975907037768e-02  -4.4260845739079270e-02  -1.3194046045589680e-01  9.6480730416426200e-02  1.3634877133438780e-01  -5.7816379850086440e-02  -1.1113659208615514e-01  1.6050269164202818e-01  -1.4074084236406689e-01  3.0875649685755058e-02  2.7662589703020102e-01  -5.0797245834210425e-01  -1.2513905830221522e-01  2.3271954711774445e-01  -7.1887111995197067e-02  1.3872994370184108e-01  -1.9363579640206158e-01  2.9512980748693657e-01  9.2299340962021151e-02  -1.4777268058085744e-01  -2.5068555439726220e-01  2.7155749519491895e-01  -9.8086452565477905e-02  8.5918389043987312e-02  -2.8918323376498366e-02  -2.9109665663782511e-02  1.8766094250790163e-02  -2.0160992888990789e-01  2.3914863405049300e-01  1.6749660915684242e-01  -3.2238126599285005e-01  -8.7828812197053546e-02  1.2958517858692609e-01  -5.0304927792626797e-02  1.9968818487878248e-01  9.7779654125700749e-02  7.9727940916325540e-02  9.5865923755373464e-02  -2.1289808825595155e-01  -2.0951345590457116e-01  1.6177694479066015e-02  1.0328122016419959e-02  2.2944830569938655e-02  1.2386375008732786e-01  -1.0662029598993877e-01  3.6408259329745838e-03  -6.1932787297915605e-03  -3.5699999936170485e-02  1.0165978188894476e-01  -3.7113884120590711e-02  2.7965318929970798e-02  -1.3555546817338834e-01  1.0718126851148219e-01  1.0310492178178174e-03  4.1080915395892481e-02  -5.8954639031673320e-02  4.2334306960151995e-02  -8.9330851017712265e-02  7.5048867172517103e-02  -3.8345074446073255e-02  4.7297157569530079e-03  2.1703943158713393e-02  -8.3366355814567666e-03  1.3233917109827933e-02  -5.3918052572984234e-03  -9.3832402166827179e-03  1.5252261206321773e-02  5.0588024249576787e-03  -8.4612776817123182e-03  8.4930478553766383e-04  -2.4706226069251269e-03  -1.9886055404923060e-02  -1.7011238726120557e-02  1.5924050477474878e-02  2.0497200451027459e-02  8.6805202189452098e-03  -1.9988178665409288e-03  -4.3103739583182921e-03  -6.6534508533729855e-04  -1.4365295934461108e-02  1.0990018740622385e-02  1.5844133968238951e-02  -3.1807177278611637e-03  -4.8708285054807213e-03  -7.9936068436739244e-03  3.4252446137011693e-03  3.9062290574952098e-03  -5.9135404434262195e-03  -4.0738042960718496e-03  2.7576338514604701e-03  -3.8952627587313278e-03  8.9163490194728073e-04  -1.1853456912752430e-03  5.7436910373648796e-04  1.9982753932473599e-04  2.8786861270117798e-04  0.0000000000000000e+00  0.0000000000000000e+00  2.5153519058233575e-01  1.7583786876442581e-01  -2.9921226989654520e-02  -2.5883664628916170e-01  2.4020408937953291e-01  3.0427066244259653e-02  7.3937957400193474e-02  -2.0566223715730955e-01  2.1801275227540726e-01  1.1084085946351926e-01  -5.0423948775222738e-01  5.1215600740174139e-01  8.8124513152355699e-02  -4.3566803288466271e-01  9.1803651271328890e-02  1.0861770328382642e-01  -4.2683025974892075e-01  1.2431686656196110e-01  -1.2585025333158474e-02  1.3193547910085848e-01  3.9796586423117869e-01  -4.8658034540069706e-01  5.2775272664218331e-01  -5.3094180352972042e-01  4.2054114532459837e-02  2.4459257797298653e-01  1.1943561128339476e-01  -4.3048618694258511e-01  2.6285230097967210e-01  -5.8987354745667568e-02  5.5553270495762322e-02  -1.9159659182092514e-01  2.6776154431369464e-01  -1.3778248233043691e-01  2.7150750638849957e-02  -2.1349560443107238e-01  3.3109079175600721e-02  1.0828556365970175e-01  2.2536781352177634e-01  2.3098909147906521e-01  -6.8180624467077969e-02  -5.2645936088693585e-02  -1.3152742488933583e-01  -2.0665163207760470e-01  -5.5685499508110706e-02  5.6026129370228689e-02  2.4619127789621553e-01  -2.3195984080193466e-01  1.2796546577635654e-01  -1.1018297104534654e-01  3.9234396997568692e-02  -3.1817840742274874e-02  1.2108977118824242e-01  -3.4117332795396922e-02  -9.7424951335142007e-02  3.3909592977973461e-02  -7.3982238298069825e-03  1.3260436425510488e-01  -1.1762726162328520e-01  7.7726184337222531e-02  -8.8596276366367521e-02  1.1164746791012608e-02  3.4514504833852558e-02  -4.3099690319063827e-02  3.0854580278753662e-02  6.7978246660473744e-03  -2.9678025025724583e-03  1.5721730490618771e-02  -1.8978507271910500e-02  5.9150332153819415e-03  1.6547004524966654e-02  -3.0999476078721728e-03  -7.4182949493599793e-03  3.2392811848508600e-03  -1.3139513293829029e-02  -2.7033581359897207e-02  -4.7269330029224210e-03  2.9212032969647937e-02  1.7378014510151179e-02  6.0761981688456828e-03  -6.6841094336213911e-03  -8.9237902738907061e-04  -9.2097407089564137e-03  -7.4686125132145511e-03  2.1515736433897297e-02  1.0477230121402671e-02  -9.2358337691253820e-03  -4.4305469162177012e-03  -8.4134340028119373e-03  9.9013976954424182e-03  -2.6109061999117348e-03  -8.2090914961437597e-03  1.7463968384032321e-04  9.2538677752219565e-04  -4.9178494079146293e-03  1.7316651284937248e-03  -1.0805409734570256e-03  2.6512918118593720e-04  1.5737221119467863e-04  0.0000000000000000e+00  0.0000000000000000e+00  -2.4130725771529321e-01  -1.2362385269856634e-01  7.1654298047467868e-02  2.3167235786075713e-01  -6.6152455635377180e-02  -3.4281486216342194e-02  -8.4930638819831095e-02  2.0753989356157077e-01  4.1088629684553700e-02  1.6958691881569274e-02  -5.6895116570236881e-02  -8.3801757288077455e-02  1.0433480796684716e-01  1.7333638404701315e-01  9.5510327440291275e-03  -5.5433316881171235e-01  6.0496050321206973e-02  1.2341000741301972e-01  -8.4679368577964570e-02  5.4964077557011631e-02  -9.5118824239559960e-02  5.6121417327930234e-01  -1.4456442906034575e-01  1.1058447113909744e-02  -4.7386708754989310e-01  3.0066137892609707e-01  3.2266283121047158e-02  1.8103596287899970e-01  -2.5581531642943861e-01  3.5209989212647071e-02  -5.4914749730364696e-03  -1.2677518573004862e-01  2.1316976811715027e-01  1.9839234546756152e-01  -4.3712353024039069e-01  -4.7345926763031135e-03  7.3805511818237371e-02  -6.0838180594622752e-02  2.2912898012045466e-01  1.8956984393463308e-01  2.0130238380804499e-01  4.2338183913244135e-02  -2.8171251767973393e-01  -2.3461247343363570e-01  -3.7323789883920690e-02  -3.2188751621961990e-02  5.5236558173297860e-02  2.2918184377713116e-01  -2.2097067395239078e-01  6.4475667477486426e-02  -5.1681292536195057e-02  -1.1915816559364674e-02  8.8782367780547780e-02  8.4697995986494495e-03  1.0366583106078383e-02  -1.7340305300793563e-01  1.3247920481688943e-01  -6.4292403899273145e-03  9.1809488696042121e-02  -1.0780977501680582e-01  7.5569551493883474e-02  -1.2581675872530720e-01  8.6966351726578489e-02  -3.1659554336516744e-02  -7.9610672259160555e-03  3.4103545216098125e-02  -6.8818403286537355e-03  1.3350234176465331e-02  -8.3943704259430824e-04  -1.5671709794655059e-02  1.9093906843017747e-02  1.0743019247781222e-02  -9.9970949631250691e-03  -1.2800057561795507e-03  -1.5614104272667494e-03  -2.5945695642640161e-02  -2.6207765590327340e-02  1.6965554177219819e-02  3.2469590566259192e-02  1.4623157392334492e-02  -3.8201867041023538e-04  -6.8131312721836307e-03  -1.1135097959816701e-03  -1.7783879808643092e-02  1.0107425581459852e-02  2.4342055599567567e-02  -4.9029322571084372e-04  -8.6586473360002938e-03  -9.3628995600181699e-03  1.2483337525039477e-03  7.3582008049367003e-03  -7.6792431032017758e-03  -7.0380564840926904e-03  2.9232807569575456e-03  -3.8321126617933093e-03  -8.7477199467586413e-04  -7.6341056529975499e-04  7.6002874411000592e-05  5.8212566903329053e-05  0.0000000000000000e+00  0.0000000000000000e+00  1.2154450146021266e-01  7.9370397190612507e-02  -7.4418876075655588e-02  -2.2190825413669418e-01  -1.3549817204219064e-01  2.9472322203778734e-01  6.9207931767833394e-03  -4.7366243863635832e-02  -1.1425903683865846e-01  2.4308407411038266e-01  8.3579340179141509e-02  -4.1772471482588275e-01  4.3374617335778243e-01  1.8741930858656046e-02  -2.6331579134504363e-01  1.5177913719290351e-01  -1.9885001842971553e-01  -3.9405388107376682e-01  2.0984825374624025e-01  4.6833235655779064e-02  1.3965045586294492e-01  2.2573480568506646e-01  -2.0588933433436923e-01  4.5751421782644264e-01  -4.7243887337156310e-01  -1.0495959438082315e-01  3.0307972557065332e-01  5.5434016711059179e-02  -2.7964430159317410e-01  1.9493358088946816e-01  -3.3161710190128701e-02  -2.1106514132389904e-02  -2.3910971950129065e-01  3.8047850008402984e-01  -2.5392539530087639e-02  -1.8988988974975746e-01  -2.1796688825965099e-01  7.5430027527879945e-02  1.1859215976148256e-01  3.0476255508546346e-01  2.4308289000881753e-01  1.2371427543710824e-02  -1.9818419086660970e-02  -2.5255729830889917e-01  -2.9112984108252504e-01  -4.5613614474527171e-02  5.5445333302319301e-02  2.3610674679477367e-01  -1.2688319337636775e-01  3.2127721990467692e-02  -7.6886916968105790e-02  1.3545222156600123e-02  -2.1899808898279194e-02  1.3960675910781278e-01  -3.1633524233438251e-02  -8.7901779959474999e-02  -2.9725544380843159e-02  4.9998355597809470e-02  1.1486750700422242e-01  -7.4615104528849063e-02  3.1296343515026880e-02  -5.5774788457252852e-02  -3.0400628450723517e-02  6.2360773430246701e-02  -5.2187471897028867e-02  2.8757093584909112e-02  1.7833582586620794e-02  -4.3404872840737459e-03  1.9215131520231205e-02  -1.8429655776189938e-02  1.5352442013872542e-03  2.2724683209478246e-02  2.8501541985803523e-04  -1.0041535415606848e-02  2.7375369741999087e-03  -1.3584277276224256e-02  -3.5061029579254055e-02  -1.1659231834279951e-02  3.5448180735375735e-02  2.8637170541249087e-02  1.0542402899134237e-02  -6.4545437337811080e-03  -3.1072197404447299e-03  -9.6485220062234034e-03  -1.1918060324882920e-02  2.5092523398960561e-02  1.7862193005246659e-02  -9.0559763677731039e-03  -7.9719134928515709e-03  -1.0201318360830105e-02  1.0142187697249753e-02  -3.9273633254854223e-05  -1.0377945254367480e-02  -1.7403089899826721e-03  1.3416941566819715e-03  -5.8294054125312602e-03  1.0951365389542005e-03  -1.3131008815713517e-03  8.0477794780105805e-05  0.0000000000000000e+00  0.0000000000000000e+00  -5.4280425461847519e-02  2.9042964192452225e-02  6.0312240420034489e-02  1.5043615257273663e-01  5.1201124975309646e-02  -2.4615362234166457e-01  4.3477751237