<?xml version="1.0"?>
<VTKFile type="UnstructuredGrid"  version="0.1"  >
<UnstructuredGrid>
<Piece  NumberOfPoints="10201" NumberOfCells="20000">
<Points>
<DataArray  type="Float64"  NumberOfComponents="3"  format="ascii">0 0 0  0.01 0 0  0.02 0 0  0.03 0 0  0.04 0 0  0.05 0 0  0.06 0 0  0.07000000000000001 0 0  0.08 0 0  0.09 0 0  0.1 0 0  0.11 0 0  0.12 0 0  0.13 0 0  0.14 0 0  0.15 0 0  0.16 0 0  0.17 0 0  0.18 0 0  0.19 0 0  0.2 0 0  0.21 0 0  0.22 0 0  0.23 0 0  0.24 0 0  0.25 0 0  0.26 0 0  0.27 0 0  0.28 0 0  0.29 0 0  0.3 0 0  0.31 0 0  0.32 0 0  0.33 0 0  0.34 0 0  0.35 0 0  0.36 0 0  0.37 0 0  0.38 0 0  0.39 0 0  0.4 0 0  0.41 0 0  0.42 0 0  0.43 0 0  0.44 0 0  0.45 0 0  0.46 0 0  0.47 0 0  0.48 0 0  0.49 0 0  0.5 0 0  0.51 0 0  0.52 0 0  0.53 0 0  0.54 0 0  0.55 0 0  0.5600000000000001 0 0  0.57 0 0  0.58 0 0  0.59 0 0  0.6 0 0  0.61 0 0  0.62 0 0  0.63 0 0  0.64 0 0  0.65 0 0  0.66 0 0  0.67 0 0  0.68 0 0  0.6899999999999999 0 0  0.7 0 0  0.71 0 0  0.72 0 0  0.73 0 0  0.74 0 0  0.75 0 0  0.76 0 0  0.77 0 0  0.78 0 0  0.79 0 0  0.8 0 0  0.8100000000000001 0 0  0.82 0 0  0.83 0 0  0.84 0 0  0.85 0 0  0.86 0 0  0.87 0 0  0.88 0 0  0.89 0 0  0.9 0 0  0.91 0 0  0.92 0 0  0.93 0 0  0.9399999999999999 0 0  0.95 0 0  0.96 0 0  0.97 0 0  0.98 0 0  0.99 0 0  1 0 0  0 0.01 0  0.01 0.01 0  0.02 0.01 0  0.03 0.01 0  0.04 0.01 0  0.05 0.01 0  0.06 0.01 0  0.07000000000000001 0.01 0  0.08 0.01 0  0.09 0.01 0  0.1 0.01 0  0.11 0.01 0  0.12 0.01 0  0.13 0.01 0  0.14 0.01 0  0.15 0.01 0  0.16 0.01 0  0.17 0.01 0  0.18 0.01 0  0.19 0.01 0  0.2 0.01 0  0.21 0.01 0  0.22 0.01 0  0.23 0.01 0  0.24 0.01 0  0.25 0.01 0  0.26 0.01 0  0.27 0.01 0  0.28 0.01 0  0.29 0.01 0  0.3 0.01 0  0.31 0.01 0  0.32 0.01 0  0.33 0.01 0  0.34 0.01 0  0.35 0.01 0  0.36 0.01 0  0.37 0.01 0  0.38 0.01 0  0.39 0.01 0  0.4 0.01 0  0.41 0.01 0  0.42 0.01 0  0.43 0.01 0  0.44 0.01 0  0.45 0.01 0  0.46 0.01 0  0.47 0.01 0  0.48 0.01 0  0.49 0.01 0  0.5 0.01 0  0.51 0.01 0  0.52 0.01 0  0.53 0.01 0  0.54 0.01 0  0.55 0.01 0  0.5600000000000001 0.01 0  0.57 0.01 0  0.58 0.01 0  0.59 0.01 0  0.6 0.01 0  0.61 0.01 0  0.62 0.01 0  0.63 0.01 0  0.64 0.01 0  0.65 0.01 0  0.66 0.01 0  0.67 0.01 0  0.68 0.01 0  0.6899999999999999 0.01 0  0.7 0.01 0  0.71 0.01 0  0.72 0.01 0  0.73 0.01 0  0.74 0.01 0  0.75 0.01 0  0.76 0.01 0  0.77 0.01 0  0.78 0.01 0  0.79 0.01 0  0.8 0.01 0  0.8100000000000001 0.01 0  0.82 0.01 0  0.83 0.01 0  0.84 0.01 0  0.85 0.01 0  0.86 0.01 0  0.87 0.01 0  0.88 0.01 0  0.89 0.01 0  0.9 0.01 0  0.91 0.01 0  0.92 0.01 0  0.93 0.01 0  0.9399999999999999 0.01 0  0.95 0.01 0  0.96 0.01 0  0.97 0.01 0  0.98 0.01 0  0.99 0.01 0  1 0.01 0  0 0.02 0  0.01 0.02 0  0.02 0.02 0  0.03 0.02 0  0.04 0.02 0  0.05 0.02 0  0.06 0.02 0  0.07000000000000001 0.02 0  0.08 0.02 0  0.09 0.02 0  0.1 0.02 0  0.11 0.02 0  0.12 0.02 0  0.13 0.02 0  0.14 0.02 0  0.15 0.02 0  0.16 0.02 0  0.17 0.02 0  0.18 0.02 0  0.19 0.02 0  0.2 0.02 0  0.21 0.02 0  0.22 0.02 0  0.23 0.02 0  0.24 0.02 0  0.25 0.02 0  0.26 0.02 0  0.27 0.02 0  0.28 0.02 0  0.29 0.02 0  0.3 0.02 0  0.31 0.02 0  0.32 0.02 0  0.33 0.02 0  0.34 0.02 0  0.35 0.02 0  0.36 0.02 0  0.37 0.02 0  0.38 0.02 0  0.39 0.02 0  0.4 0.02 0  0.41 0.02 0  0.42 0.02 0  0.43 0.02 0  0.44 0.02 0  0.45 0.02 0  0.46 0.02 0  0.47 0.02 0  0.48 0.02 0  0.49 0.02 0  0.5 0.02 0  0.51 0.02 0  0.52 0.02 0  0.53 0.02 0  0.54 0.02 0  0.55 0.02 0  0.5600000000000001 0.02 0  0.57 0.02 0  0.58 0.02 0  0.59 0.02 0  0.6 0.02 0  0.61 0.02 0  0.62 0.02 0  0.63 0.02 0  0.64 0.02 0  0.65 0.02 0  0.66 0.02 0  0.67 0.02 0  0.68 0.02 0  0.6899999999999999 0.02 0  0.7 0.02 0  0.71 0.02 0  0.72 0.02 0  0.73 0.02 0  0.74 0.02 0  0.75 0.02 0  0.76 0.02 0  0.77 0.02 0  0.78 0.02 0  0.79 0.02 0  0.8 0.02 0  0.8100000000000001 0.02 0  0.82 0.02 0  0.83 0.02 0  0.84 0.02 0  0.85 0.02 0  0.86 0.02 0  0.87 0.02 0  0.88 0.02 0  0.89 0.02 0  0.9 0.02 0  0.91 0.02 0  0.92 0.02 0  0.93 0.02 0  0.9399999999999999 0.02 0  0.95 0.02 0  0.96 0.02 0  0.97 0.02 0  0.98 0.02 0  0.99 0.02 0  1 0.02 0  0 0.03 0  0.01 0.03 0  0.02 0.03 0  0.03 0.03 0  0.04 0.03 0  0.05 0.03 0  0.06 0.03 0  0.07000000000000001 0.03 0  0.08 0.03 0  0.09 0.03 0  0.1 0.03 0  0.11 0.03 0  0.12 0.03 0  0.13 0.03 0  0.14 0.03 0  0.15 0.03 0  0.16 0.03 0  0.17 0.03 0  0.18 0.03 0  0.19 0.03 0  0.2 0.03 0  0.21 0.03 0  0.22 0.03 0  0.23 0.03 0  0.24 0.03 0  0.25 0.03 0  0.26 0.03 0  0.27 0.03 0  0.28 0.03 0  0.29 0.03 0  0.3 0.03 0  0.31 0.03 0  0.32 0.03 0  0.33 0.03 0  0.34 0.03 0  0.35 0.03 0  0.36 0.03 0  0.37 0.03 0  0.38 0.03 0  0.39 0.03 0  0.4 0.03 0  0.41 0.03 0  0.42 0.03 0  0.43 0.03 0  0.44 0.03 0  0.45 0.03 0  0.46 0.03 0  0.47 0.03 0  0.48 0.03 0  0.49 0.03 0  0.5 0.03 0  0.51 0.03 0  0.52 0.03 0  0.53 0.03 0  0.54 0.03 0  0.55 0.03 0  0.5600000000000001 0.03 0  0.57 0.03 0  0.58 0.03 0  0.59 0.03 0  0.6 0.03 0  0.61 0.03 0  0.62 0.03 0  0.63 0.03 0  0.64 0.03 0  0.65 0.03 0  0.66 0.03 0  0.67 0.03 0  0.68 0.03 0  0.6899999999999999 0.03 0  0.7 0.03 0  0.71 0.03 0  0.72 0.03 0  0.73 0.03 0  0.74 0.03 0  0.75 0.03 0  0.76 0.03 0  0.77 0.03 0  0.78 0.03 0  0.79 0.03 0  0.8 0.03 0  0.8100000000000001 0.03 0  0.82 0.03 0  0.83 0.03 0  0.84 0.03 0  0.85 0.03 0  0.86 0.03 0  0.87 0.03 0  0.88 0.03 0  0.89 0.03 0  0.9 0.03 0  0.91 0.03 0  0.92 0.03 0  0.93 0.03 0  0.9399999999999999 0.03 0  0.95 0.03 0  0.96 0.03 0  0.97 0.03 0  0.98 0.03 0  0.99 0.03 0  1 0.03 0  0 0.04 0  0.01 0.04 0  0.02 0.04 0  0.03 0.04 0  0.04 0.04 0  0.05 0.04 0  0.06 0.04 0  0.07000000000000001 0.04 0  0.08 0.04 0  0.09 0.04 0  0.1 0.04 0  0.11 0.04 0  0.12 0.04 0  0.13 0.04 0  0.14 0.04 0  0.15 0.04 0  0.16 0.04 0  0.17 0.04 0  0.18 0.04 0  0.19 0.04 0  0.2 0.04 0  0.21 0.04 0  0.22 0.04 0  0.23 0.04 0  0.24 0.04 0  0.25 0.04 0  0.26 0.04 0  0.27 0.04 0  0.28 0.04 0  0.29 0.04 0  0.3 0.04 0  0.31 0.04 0  0.32 0.04 0  0.33 0.04 0  0.34 0.04 0  0.35 0.04 0  0.36 0.04 0  0.37 0.04 0  0.38 0.04 0  0.39 0.04 0  0.4 0.04 0  0.41 0.04 0  0.42 0.04 0  0.43 0.04 0  0.44 0.04 0  0.45 0.04 0  0.46 0.04 0  0.47 0.04 0  0.48 0.04 0  0.49 0.04 0  0.5 0.04 0  0.51 0.04 0  0.52 0.04 0  0.53 0.04 0  0.54 0.04 0  0.55 0.04 0  0.5600000000000001 0.04 0  0.57 0.04 0  0.58 0.04 0  0.59 0.04 0  0.6 0.04 0  0.61 0.04 0  0.62 0.04 0  0.63 0.04 0  0.64 0.04 0  0.65 0.04 0  0.66 0.04 0  0.67 0.04 0  0.68 0.04 0  0.6899999999999999 0.04 0  0.7 0.04 0  0.71 0.04 0  0.72 0.04 0  0.73 0.04 0  0.74 0.04 0  0.75 0.04 0  0.76 0.04 0  0.77 0.04 0  0.78 0.04 0  0.79 0.04 0  0.8 0.04 0  0.8100000000000001 0.04 0  0.82 0.04 0  0.83 0.04 0  0.84 0.04 0  0.85 0.04 0  0.86 0.04 0  0.87 0.04 0  0.88 0.04 0  0.89 0.04 0  0.9 0.04 0  0.91 0.04 0  0.92 0.04 0  0.93 0.04 0  0.9399999999999999 0.04 0  0.95 0.04 0  0.96 0.04 0  0.97 0.04 0  0.98 0.04 0  0.99 0.04 0  1 0.04 0  0 0.05 0  0.01 0.05 0  0.02 0.05 0  0.03 0.05 0  0.04 0.05 0  0.05 0.05 0  0.06 0.05 0  0.07000000000000001 0.05 0  0.08 0.05 0  0.09 0.05 0  0.1 0.05 0  0.11 0.05 0  0.12 0.05 0  0.13 0.05 0  0.14 0.05 0  0.15 0.05 0  0.16 0.05 0  0.17 0.05 0  0.18 0.05 0  0.19 0.05 0  0.2 0.05 0  0.21 0.05 0  0.22 0.05 0  0.23 0.05 0  0.24 0.05 0  0.25 0.05 0  0.26 0.05 0  0.27 0.05 0  0.28 0.05 0  0.29 0.05 0  0.3 0.05 0  0.31 0.05 0  0.32 0.05 0  0.33 0.05 0  0.34 0.05 0  0.35 0.05 0  0.36 0.05 0  0.37 0.05 0  0.38 0.05 0  0.39 0.05 0  0.4 0.05 0  0.41 0.05 0  0.42 0.05 0  0.43 0.05 0  0.44 0.05 0  0.45 0.05 0  0.46 0.05 0  0.47 0.05 0  0.48 0.05 0  0.49 0.05 0  0.5 0.05 0  0.51 0.05 0  0.52 0.05 0  0.53 0.05 0  0.54 0.05 0  0.55 0.05 0  0.5600000000000001 0.05 0  0.57 0.05 0  0.58 0.05 0  0.59 0.05 0  0.6 0.05 0  0.61 0.05 0  0.62 0.05 0  0.63 0.05 0  0.64 0.05 0  0.65 0.05 0  0.66 0.05 0  0.67 0.05 0  0.68 0.05 0  0.6899999999999999 0.05 0  0.7 0.05 0  0.71 0.05 0  0.72 0.05 0  0.73 0.05 0  0.74 0.05 0  0.75 0.05 0  0.76 0.05 0  0.77 0.05 0  0.78 0.05 0  0.79 0.05 0  0.8 0.05 0  0.8100000000000001 0.05 0  0.82 0.05 0  0.83 0.05 0  0.84 0.05 0  0.85 0.05 0  0.86 0.05 0  0.87 0.05 0  0.88 0.05 0  0.89 0.05 0  0.9 0.05 0  0.91 0.05 0  0.92 0.05 0  0.93 0.05 0  0.9399999999999999 0.05 0  0.95 0.05 0  0.96 0.05 0  0.97 0.05 0  0.98 0.05 0  0.99 0.05 0  1 0.05 0  0 0.06 0  0.01 0.06 0  0.02 0.06 0  0.03 0.06 0  0.04 0.06 0  0.05 0.06 0  0.06 0.06 0  0.07000000000000001 0.06 0  0.08 0.06 0  0.09 0.06 0  0.1 0.06 0  0.11 0.06 0  0.12 0.06 0  0.13 0.06 0  0.14 0.06 0  0.15 0.06 0  0.16 0.06 0  0.17 0.06 0  0.18 0.06 0  0.19 0.06 0  0.2 0.06 0  0.21 0.06 0  0.22 0.06 0  0.23 0.06 0  0.24 0.06 0  0.25 0.06 0  0.26 0.06 0  0.27 0.06 0  0.28 0.06 0  0.29 0.06 0  0.3 0.06 0  0.31 0.06 0  0.32 0.06 0  0.33 0.06 0  0.34 0.06 0  0.35 0.06 0  0.36 0.06 0  0.37 0.06 0  0.38 0.06 0  0.39 0.06 0  0.4 0.06 0  0.41 0.06 0  0.42 0.06 0  0.43 0.06 0  0.44 0.06 0  0.45 0.06 0  0.46 0.06 0  0.47 0.06 0  0.48 0.06 0  0.49 0.06 0  0.5 0.06 0  0.51 0.06 0  0.52 0.06 0  0.53 0.06 0  0.54 0.06 0  0.55 0.06 0  0.5600000000000001 0.06 0  0.57 0.06 0  0.58 0.06 0  0.59 0.06 0  0.6 0.06 0  0.61 0.06 0  0.62 0.06 0  0.63 0.06 0  0.64 0.06 0  0.65 0.06 0  0.66 0.06 0  0.67 0.06 0  0.68 0.06 0  0.6899999999999999 0.06 0  0.7 0.06 0  0.71 0.06 0  0.72 0.06 0  0.73 0.06 0  0.74 0.06 0  0.75 0.06 0  0.76 0.06 0  0.77 0.06 0  0.78 0.06 0  0.79 0.06 0  0.8 0.06 0  0.8100000000000001 0.06 0  0.82 0.06 0  0.83 0.06 0  0.84 0.06 0  0.85 0.06 0  0.86 0.06 0  0.87 0.06 0  0.88 0.06 0  0.89 0.06 0  0.9 0.06 0  0.91 0.06 0  0.92 0.06 0  0.93 0.06 0  0.9399999999999999 0.06 0  0.95 0.06 0  0.96 0.06 0  0.97 0.06 0  0.98 0.06 0  0.99 0.06 0  1 0.06 0  0 0.07000000000000001 0  0.01 0.07000000000000001 0  0.02 0.07000000000000001 0  0.03 0.07000000000000001 0  0.04 0.07000000000000001 0  0.05 0.07000000000000001 0  0.06 0.07000000000000001 0  0.07000000000000001 0.07000000000000001 0  0.08 0.07000000000000001 0  0.09 0.07000000000000001 0  0.1 0.07000000000000001 0  0.11 0.07000000000000001 0  0.12 0.07000000000000001 0  0.13 0.07000000000000001 0  0.14 0.07000000000000001 0  0.15 0.07000000000000001 0  0.16 0.07000000000000001 0  0.17 0.0700
[...]
<PointData  Scalars="Indicator Function"> 
<DataArray  type="Float64"  Name="Indicator Function"  format="ascii">-2.6181060037512641e-19  7.1746448845465610e-19  1.8161963602867426e-17  8.1982718392832033e-19  4.9820827912935343e-17  -1.5080388218519659e-19  -2.6292447243401481e-19  1.3369237080710384e-17  1.0015682473030528e-16  -3.3466633927659692e-20  2.3494395233246998e-17  2.2252436383780034e-17  -1.4393324244752485e-19  -2.9104513283888959e-19  2.4591799899299073e-16  -1.9259299443872359e-34  -7.6004204378675974e-19  2.3329580877921110e-16  -4.7383360601620598e-19  -6.3327255532197382e-19  5.2112663670618274e-16  -1.2144397953255182e-18  -4.9826488684189658e-19  2.5274270788159272e-17  -2.2929340769822748e-19  -4.7625070163798259e-19  -4.6314808768020879e-19  -7.0737226886620217e-19  6.9285524810977631e-16  -1.4110022054205521e-18  -1.9998460731340722e-18  -9.9992303656703646e-19  -1.1197199778315546e-18  -1.3909455093344310e-18  5.1241926209563945e-17  -6.6097477350499736e-19  -2.4671835480645860e-18  -3.6363585487107307e-18  -3.1874680712919431e-18  -3.8915020286006947e-18  3.0195349711751400e-16  -4.3622006585303129e-19  -1.1792951048522839e-18  -1.7839326042866614e-18  -1.0816665989435259e-18  -5.4083329947174380e-19  1.0995958952480458e-16  -6.7189526040103471e-19  -1.4907921095317663e-19  -4.0691639582423301e-19  -2.0345819791211655e-19  -3.8815520168471372e-19  -1.3037596580767062e-19  -5.0862978344512284e-19  -4.1654311540526146e-19  7.1018666699279322e-34  1.4791141972893971e-31  -7.6511128077743443e-21  -6.6640359555619444e-22  -1.4732660067547548e-21  -3.5625939029221618e-22  -1.0099357883343501e-21  -1.3034128657115484e-20  -1.0973578142940088e-20  -7.3139637698954932e-21  -6.7581243898298086e-21  -2.2077327660190638e-20  9.8177288180677453e-35  1.8429520624207359e-17  -4.4983394992853159e-20  -1.0673064310142528e-20  -3.1416657062087793e-21  3.0092655381050560e-36  -3.6849612180080895e-20  -1.2635751714317896e-19  -9.7679457591354377e-20  -2.7367745201163638e-20  -7.3938506383949192e-20  -5.5310326514694412e-20  -3.6324521106237708e-20  -1.3686063652486205e-20  2.2766344039765742e-18  -2.2004185387090302e-20  -4.6197441573298611e-20  -4.2033864072136706e-20  -2.6025243605347579e-20  -1.3400438150213637e-20  -6.9603593300926102e-21  -4.3304876429273366e-21  -2.0930754935856898e-21  -1.6247693222756856e-22  -7.3632786974111508e-22  -8.2057202517351312e-22  2.3058884556456242e-20  -8.4242921510154636e-22  -6.9012681694562330e-22  -4.6293029111846622e-22  -3.5670526442351007e-22  -9.8213392067123213e-23  -4.9106696033561671e-23  9.4039548065783001e-38  0.0000000000000000e+00  1.0287665438855410e-02  1.9830498322202163e-02  4.5835892166495871e-03  4.8048011997267959e-03  4.5683655282788537e-04  3.3673041557185633e-03  3.0527741464623790e-03  1.8134900437016158e-02  1.6313717441682602e-02  6.0288128034380133e-04  2.1028334944282807e-02  5.1857415764232050e-03  1.0486006014409448e-02  4.2650922301775479e-03  3.2311559672470479e-02  1.7090953114958698e-02  5.1462237032564861e-03  1.7071654811921622e-02  2.2816048353375726e-02  1.1783550910822822e-02  2.8965439542514491e-02  2.1877402438767620e-02  8.9759422348519927e-03  8.2611656437459879e-03  1.7158739859454035e-02  1.6686668440751569e-02  5.1217872530538843e-03  1.0181992319385170e-02  1.2041707868131059e-02  1.9397502092138259e-02  3.6026024119059828e-02  1.3676807131221144e-02  1.3332678334075386e-02  2.8641034964211099e-02  1.9692150969129657e-02  1.1907062974633613e-02  4.6244396921082891e-02  7.1079206439598502e-02  7.1427772057352207e-02  5.5981355396509766e-02  2.8685031667916843e-02  7.8582421041089746e-03  2.8894670032823682e-02  1.7689137831266109e-02  1.9485573167764697e-02  2.0044105569854500e-02  3.3547607725135380e-03  1.2103788977496406e-02  2.6855723155896571e-03  7.3303541144198441e-03  4.5901865568816714e-03  4.6972892082359496e-03  1.1050781031998384e-03  8.6101205611720435e-03  3.1987133967055015e-03  1.3020786665397938e-03  2.7566039032049690e-04  2.4009719877002162e-05  2.2235679908584819e-05  1.5422161001860911e-05  6.4177986294690019e-06  6.4153489952302681e-05  2.0272524287698619e-04  1.3147362440020158e-04  1.3153613130213509e-04  2.7932964109602775e-04  2.5804495794706968e-04  7.0071828342303184e-05  5.4402434037055785e-04  5.3833663352541403e-04  1.0901601444290770e-04  2.0872107937641217e-06  3.5358423279603510e-04  1.3657034924940811e-03  1.9628676563024513e-03  8.4762952488738467e-04  4.9301346835972485e-04  1.0854509850164759e-03  9.8017862719354944e-04  7.1119217441624743e-04  1.7670006929199498e-04  1.9828009664622602e-04  5.2076575025902436e-04  7.3923230966818621e-04  7.0065340770449080e-04  5.0475173953191293e-04  3.0916122310954838e-04  1.7566935794907808e-04  9.4649610553144861e-05  3.7865443590380788e-05  3.1532021897288803e-06  1.3264503679154391e-05  1.9820812929473811e-05  2.1956653559996000e-05  2.0667769970306799e-05  1.7163174363021757e-05  1.2867220572540669e-05  6.1760149636558457e-06  1.7692551836651533e-06  4.9106696033561818e-23  -6.0831899553473271e-19  1.7474601046502730e-03  4.7038847635540179e-03  1.0852350707394284e-03  5.5919648713912270e-03  1.9032375909867002e-02  3.2240371539999342e-03  1.6064012739067400e-02  6.8744640276707000e-04  8.0534202693407532e-03  1.9834821837547856e-02  1.8627860789517042e-02  1.1636075527028765e-02  3.4429244107483332e-02  3.4379410669934607e-02  2.5378753879494141e-02  1.3543373519282812e-03  4.2831561437554108e-02  1.0363349455972778e-02  8.0467646679125288e-03  9.8192247901613058e-03  2.0675304275996786e-02  1.9554940323135834e-02  2.0769560882296083e-02  1.3807461978977137e-02  1.8802814829053964e-03  1.5268173454271930e-02  2.4656162638381600e-02  3.3300734609766840e-02  1.2109885775851049e-02  3.7106356695637034e-02  2.9906626276844161e-02  2.1162515294709298e-02  2.4956458957020311e-02  2.9444827544919817e-02  3.1426957102721691e-02  1.8613800786319843e-03  3.8720902653997490e-02  7.0717368018071339e-02  7.9652837317035083e-02  8.9438683278206768e-02  4.9399477682420798e-02  6.5932924220343187e-03  1.5363053304061184e-02  3.4679179465454242e-02  8.5152628572962574e-03  5.1685679916126277e-04  7.9644190554598576e-03  1.4612492895485591e-02  5.6457106460394381e-03  1.0607961720374851e-02  1.6641735370018001e-03  5.1717744180959672e-03  4.7620231534840360e-03  1.0219677354682009e-02  5.9693830328383119e-03  1.6098375877302597e-03  1.1595253383131659e-03  9.3598119215162299e-05  6.5138476928532012e-05  1.1699066330650980e-05  2.6797370039898210e-05  1.8473329875739752e-05  2.3507194878561266e-04  1.9473503986776843e-04  1.7770216018020963e-04  1.9242964325101488e-04  4.7452892094766128e-04  3.6891658721073161e-05  3.5240732053001410e-04  9.0137728977096989e-04  6.9993136200899482e-05  1.6718300317303679e-04  3.4514211797927614e-05  1.0705488268574466e-03  2.2484232115397565e-03  1.7239570443760730e-03  1.1925348821475625e-04  1.0825312156057590e-03  1.1592887194448137e-03  1.0274494063320346e-03  4.6705348886463176e-04  9.3943531633603288e-05  4.9831385954756671e-04  7.8513570112895216e-04  8.5232172395765745e-04  6.8005496007903724e-04  4.4756058274379116e-04  2.6115058572274622e-04  1.4597645841891389e-04  6.7214696623224286e-05  1.3398991706369317e-05  1.4012177592216947e-05  2.5253778557976369e-05  2.9765711576009352e-05  3.0349486592304451e-05  2.7434059481561039e-05  2.2158164431882963e-05  1.6401853376980241e-05  4.3213868471159631e-06  -1.7531090535418327e-21  1.9259299443872359e-34  1.4229696549191293e-02  4.9106019957588006e-03  2.6726186926631260e-02  1.1854326090012799e-02  6.7203820988185475e-04  2.2103423358414464e-03  3.2061629765958287e-06  4.4040731204827458e-03  2.9330273107182617e-02  4.6883470647488920e-02  2.3503506282979862e-02  2.9353608165500152e-02  1.6387956843423344e-02  7.2432828276174747e-03  1.8044209539813744e-02  6.5806183024458412e-02  1.9655758255943435e-03  8.8694106406792921e-03  2.6426865171495947e-02  4.6024498349342059e-02  3.9198053904707576e-02  6.5736042799404440e-02  6.4465960502363764e-02  4.0134509908721451e-02  2.1504063232213298e-02  3.1390353198031407e-02  3.6810302123357279e-02  1.3301250430837320e-02  2.2363251580877902e-02  2.3966307694210855e-02  3.3473244030782272e-02  7.2378014164212745e-02  4.3162860309032533e-02  5.3047018998434144e-03  3.8329038126278685e-02  2.4782994285344268e-02  2.2893395624272634e-02  6.2558518864290119e-02  8.9623783868544318e-02  7.8613173646648660e-02  6.6628795063573137e-02  3.5588245070737705e-02  2.0474419994769590e-02  3.5946617724593538e-02  1.7407081371639665e-02  4.1008092882108944e-02  5.1188556107138149e-02  2.4274171857958941e-02  2.7500416698148331e-02  1.4217823018659018e-02  1.8020454709421558e-02  1.2549653782998533e-02  3.5671998187137596e-03  2.5922396417773128e-03  1.3233630627861674e-02  1.9826408507460372e-04  1.8376460078884189e-03  7.9724289555327269e-04  7.0811463088029088e-05  3.7494977242451997e-05  1.6282746487266151e-08  3.6277934576241833e-05  7.4885341709587030e-05  3.2609039388778422e-04  1.3598954942058185e-04  1.8625718436058997e-04  3.6825023903156335e-04  3.5962794451737182e-04  7.3172622871595214e-05  8.6880877624498094e-04  7.0982034640752311e-04  4.5817519192284476e-04  1.9237981825473473e-04  3.6747820826176132e-04  1.8995871180010916e-03  2.4564935360512656e-03  5.2691561174225807e-04  8.7909907303787636e-04  1.2079673159222284e-03  9.8477414590853450e-04  8.5468065164977485e-04  7.3543041252847557e-05  2.9074433987230674e-04  7.6426916942705597e-04  8.7210085042885483e-04  7.7183926666235774e-04  5.4635865948679107e-04  3.4326975510450285e-04  2.0238041107622907e-04  1.1143140279822821e-04  4.1143921366511964e-05  1.8445159704996685e-07  1.8547747757518946e-05  2.6693071310804423e-05  3.0517838734398604e-05  2.9983156553710117e-05  2.6991645981331424e-05  2.3024251436642088e-05  1.5172778330834718e-05  -2.1056459813032959e-21  -2.1209576771210872e-19  4.6098880696870967e-03  6.0095978472744244e-03  1.1121524119457287e-02  1.9176741549148126e-03  2.8525306113567671e-03  1.8298103379457132e-02  1.8560539492988644e-02  2.1056409119971659e-02  9.0044421950030637e-03  5.0198367325154517e-03  1.1256714512497686e-02  2.9096492384359719e-02  3.5938106263855969e-02  3.5447604426236484e-02  6.4057388623207701e-02  4.0921067226807346e-03  5.3856850406138876e-03  5.3949777103611894e-02  2.7233557312013126e-02  2.6247536942442244e-02  2.9373572052213869e-02  5.6071949365944767e-03  7.7951893247440469e-03  1.2136013560254939e-02  1.3955633788052809e-02  6.1799716010784702e-03  3.5354862484189155e-02  4.8516588790570955e-02  5.1689333992070610e-02  2.1108864670993877e-02  4.5559055317547337e-02  4.2167466848559501e-02  3.7008936418235189e-02  5.5586338137694168e-02  2.2104080601690484e-02  3.1883188732621026e-02  4.5606265192827938e-03  4.2464391670424553e-02  7.5803534915826518e-02  8.7241609635975811e-02  9.5795946267018511e-02  4.1544984999575242e-02  1.2658781263482969e-02  1.1924951765248853e-02  4.2165317198571466e-02  1.6432628662301191e-02  1.0722641315377573e-02  2.8094021862484424e-02  4.0631430815435288e-03  4.6188281525346526e-03  1.0038768655795624e-02  9.7915602049554744e-04  9.5838421901972785e-03  4.4993343872062894e-03  1.4220598589077585e-02  6.1961419662574244e-03  1.2990844388938211e-03  1.9316256705184521e-03  2.8521215316195845e-04  8.6225798526915390e-05  5.5880916519023402e-05  1.1267579589173824e-05  7.3936553415952250e-06  2.5079935946536644e-04  2.2525826176929197e-04  1.5978814751755393e-04  1.9161220211879877e-04  5.6842804706162353e-04  3.5707154757036107e-05  2.8668091356194732e-04  1.1945566161437415e-03  2.6274118444828946e-05  3.7720678287479309e-04  3.4840156408018564e-04  1.1545652796840316e-03  2.6084711367041066e-03  1.7844760567859062e-03  6.2819315353197954e-04  1.2375923382093455e-03  1.0501206513256840e-03  9.4197799251733892e-04  4.5892887012812666e-04  5.1691711286949923e-05  6.2172048275785201e-04  9.0409522585271408e-04  8.5063236840854351e-04  6.4736963208605035e-04  4.2738508017463203e-04  2.6258861453331547e-04  1.5931221462702950e-04  8.0037349087883972e-05  2.2310885992442594e-05  5.4272567732818641e-06  1.6878896405724900e-05  2.3183562061724208e-05  2.6003537776056828e-05  2.4799408535018810e-05  2.1436048403836802e-05  1.7531320269441849e-05  4.3793269684227075e-21  -8.8163748587151118e-19  2.6960905708581860e-02  2.4011482135297850e-02  2.6983725995308591e-03  2.9616870270775999e-02  2.6059082905190458e-02  3.4655456643019650e-03  1.1442201093266711e-02  5.7664532829789584e-03  1.6079470128921903e-02  2.7418392136483023e-02  5.2747496380096168e-02  4.6638529298219066e-02  1.3105426685305444e-02  1.9018416949299479e-02  1.4714530731960773e-02  4.0508198517228223e-03  7.6469269232898276e-02  1.6148852605796661e-02  2.2562776974819964e-02  1.6205466669143465e-02  4.4652434138140726e-02  4.4087266624648992e-02  7.7906975169563117e-02  8.5906643390577742e-02  6.4391498948014686e-02  3.4091361648968845e-02  3.0817196311291439e-02  3.6228263291427081e-02  9.2850418781607862e-03  4.1446167688508569e-02  4.0518355199962407e-02  4.6452028310890604e-02  9.8986220401136388e-02  4.8429692356248687e-02  1.2365569759683752e-02  4.3707733285414364e-02  2.7560260075629783e-02  3.1792771986600223e-02  6.9611173231161311e-02  9.2254713738411570e-02  7.7719039049934102e-02  7.6941437472305543e-02  3.4054112944548603e-02  3.5138872680422990e-02  3.3747478345943945e-02  1.7510294591011912e-02  5.3165123824010806e-02  6.1864319106531042e-02  2.8682469044356101e-02  3.3795376535125647e-02  2.3054124449800237e-02  2.5092530568818851e-02  1.6750793325692126e-02  3.8739912754672417e-03  2.4108575374754502e-03  1.7219812314189203e-02  2.5808337714017661e-03  1.0105003205998682e-03  1.4438938014274623e-03  1.0010554489341779e-04  1.2400023784327979e-05  1.3649370425893273e-05  3.2130951728049992e-05  7.0855968816941370e-05  3.6301874580160282e-04  1.1788730829785100e-04  1.8225793917996778e-04  3.5977725142723145e-04  4.3698120165492244e-04  2.1292620926010230e-04  9.3666527734744594e-04  9.0447498887026817e-04  6.8386698127243320e-04  1.7669779990662251e-04  1.3988056068981198e-04  2.0944718986708427e-03  2.7450960029531258e-03  3.7731540375541428e-04  1.2650136270519387e-03  1.2213582507277802e-03  8.6717382583623658e-04  8.4872447356089083e-04  2.6201731480453779e-05  2.1542824797332719e-04  9.0145278318572977e-04  9.2263443746699468e-04  7.4446017250982984e-04  5.1891339763618502e-04  3.3456581811205569e-04  2.0924926338840489e-04  1.2321352299807090e-04  5.0521438733472396e-05  8.3913299062090811e-06  8.5230670219587713e-06  1.5972348160362410e-05  2.0341154482646616e-05  2.0770357911716990e-05  1.8588671161441130e-05  1.4326511007200858e-05  -7.9528111913700458e-22  -7.4365346514198738e-20  1.6138375969328853e-02  2.3416293649940719e-03  6.0380351396901889e-03  2.3262500990393096e-02  1.4612896010646158e-02  2.0531783654231394e-04  1.2641706267265443e-02  2.3067856553566059e-02  1.8313594936881415e-02  7.5885471445488965e-03  1.3157745169574759e-02  7.4028042482326877e-03  1.0486811724098741e-02  4.8514224833943936e-02  1.8606799974878890e-02  6.5528186249902476e-02  1.0340270757439802e-02  2.1409692277952540e-02  4.4389207591865508e-02  2.5807154466071472e-02  2.9516028699084880e-02  4.2944205144067389e-02  9.4841053389353742e-03  1.1129958033855504e-02  1.3463482359732005e-02  3.0343460960386226e-03  1.0337853896458403e-02  4.5580103010924043e-02  6.4783922171262734e-02  5.6967698257755876e-02  1.4404529020197667e-02  5.2984147612718982e-02  4.0887331801551512e-02  5.3489739574465081e-02  7.8223043413143900e-02  1.3615894815749615e-02  3.3028864978631098e-02  2.2772982353323670e-03  4.7950040199238021e-02  8.4203809756802209e-02  9.5471022892331267e-02  9.4302130350632327e-02  4.0116149181093984e-02  1.0858567268822904e-02  1.8041784764942514e-02  4.6359201921398821e-02  2.0670390215071430e-02  2.2257369857892274e-02  4.7913234154042861e-02  9.7236020537587470e-03  3.5684166654065060e-03  3.0048247447035615e-03  7.5327698417465968e-03  1.5311323345111849e-02  3.0867570470818565e-03  1.5668950557175976e-02  8.0219972586113835e-03  4.4657841202741895e-03  2.3630502012108134e-03  6.9947932113356790e-04  1.3490050761639361e-04  2.9709737193928911e-05  5.2893313592601461e-05  4.1490621805487902e-05  2.7814484541418069e-04  2.7276837525484391e-04  1.3843394048951586e-04  2.1263043553198111e-04  5.6960858403846417e-04  6.7843819182010607e-07  1.7011645395388170e-04  1.3414788119885757e-03  3.3253034720585207e-05  6.1371268059492838e-04  4.5670659662367898e-04  1.1024205385053046e-03  2.8823536176094131e-03  1.9263589907345432e-03  9.5693039338974183e-04  1.4650195196033429e-03  9.7237267467171638e-04  8.2271650707340922e-04  4.8300950653960064e-04  1.0963146103524985e-04  6.4749855481419690e-04  1.0466513437539409e-03  8.5683595575050382e-04  6.0668597626863693e-04  4.0422784794952381e-04  2.6223649699507785e-04  1.6982883731704704e-04  8.8617291659617216e-05  2.6955472236665938e-05  9.0452512418219971e-07  1.1071472603933855e-05  1.6703124122024212e-05  1.9155835404859034e-05  1.7428134480121574e-05  1.2529053578837579e-05  -6.9550218799938365e-22  -3.1757561333116353e-19  1.3396469874025036e-03  1.1001562840236161e-02  6.4006867449635614e-03  1.8045617196297225e-02  1.9529579693603503e-02  2.9967939939568960e-02  1.0392281936028832e-03  2.0312326341682268e-02  1.3083130049519597e-02  2.1213643188115878e-02  2.0549577084308952e-02  4.2636077561804729e-02  4.0145067398103043e-02  4.3703159529521569e-03  2.5547756212330893e-03  1.8826057884469147e-02  1.4585028295039524e-02  6.5538596240850164e-02  1.2488439212804271e-02  2.3912220443408884e-02  6.4748845828820553e-03  3.3026530806129946e-02  2.9772685793030277e-02  6.6438602577708950e-02  7.5016747364335723e-02  5.8405835808407969e-02  3.2859549380213328e-02  2.4699830363906123e-02  2.4581179370341204e-02  9.5668362619301416e-04  5.2796563846404153e-02  5.2912787745953545e-02  5.0820905971564363e-02  1.1158166316655006e-01  3.8462818065520814e-02  3.5182517405103191e-02  4.1975577397321641e-02  2.6317664430959693e-02  3.8953352745480140e-02  7.6391923031465525e-02  9.5306618981881641e-02  8.3818654925088276e-02  8.2865253945237430e-02  2.7578214577773614e-02  4.1899736077938274e-02  3.3263667882829362e-02  1.7292110879425386e-02  5.7544083414419488e-02  5.7070841869257920e-02  1.3800982149674174e-02  2.4569983806105155e-02  2.0076019673814494e-02  2.3625234826162734e-02  1.4403095811130329e-02  7.3630550899144781e-03  3.6604136169172212e-03  1.9834296648784274e-02  2.6576616880559316e-03  1.3555712871190530e-03  2.1209055307918061e-03  2.8148683017989717e-05  5.5748712289243069e-06  3.7759940797169439e-05  5.1326484053750204e-05  1.2868549789169466e-04  3.9356952530916837e-04  1.5844056258089008e-04  1.7925930559600214e-04  3.8692452141423516e-04  4.5253554495734363e-04  2.0678978913440116e-04  8.7321536531319039e-04  1.0430891281471132e-03  7.1370420895175456e-04  1.3302923657212788e-05  9.4984010192441716e-06  2.1836554841430330e-03  2.9986170710795865e-03  3.9144524526240140e-04  1.6598362843436526e-03  1.3225836920899268e-03  7.7844100934271665e-04  7.3806102662409923e-04  5.3771357627184239e-05  1.4463935402565217e-04  9.9225345620698323e-04  1.0414124202325870e-03  7.3232841394482164e-04  4.8321958140141731e-04  3.1637464315891129e-04  2.1140438740643820e-04  1.3195012767475012e-04  5.6272793137019602e-05  1.1368423221668054e-05  5.7872492032406769e-06  1.2978806920388763e-05  1.7324689549966672e-05  1.7480835125532298e-05  1.3246561411274135e-05  -1.5215923563971324e-21  -1.9132189347811641e-19  6.6372277881807887e-03  5.8456227222507783e-03  7.5412352874122532e-03  1.0001047041854070e-02  1.1106677584930872e-02  2.6640306863818183e-02  2.2850259267468498e-03  5.9534599214218949e-03  1.8952587728354932e-02  1.6204307348186554e-02  3.7883832531255207e-03  5.9572918189899461e-03  8.3611336536804515e-03  6.3524879163171476e-03  3.8702693130637393e-02  1.2602741730300524e-02 