<?xml version="1.0"?>
<VTKFile type="UnstructuredGrid"  version="0.1"  >
<UnstructuredGrid>
<Piece  NumberOfPoints="10201" NumberOfCells="20000">
<Points>
<DataArray  type="Float64"  NumberOfComponents="3"  format="ascii">0 0 0  0.01 0 0  0.02 0 0  0.03 0 0  0.04 0 0  0.05 0 0  0.06 0 0  0.07000000000000001 0 0  0.08 0 0  0.09 0 0  0.1 0 0  0.11 0 0  0.12 0 0  0.13 0 0  0.14 0 0  0.15 0 0  0.16 0 0  0.17 0 0  0.18 0 0  0.19 0 0  0.2 0 0  0.21 0 0  0.22 0 0  0.23 0 0  0.24 0 0  0.25 0 0  0.26 0 0  0.27 0 0  0.28 0 0  0.29 0 0  0.3 0 0  0.31 0 0  0.32 0 0  0.33 0 0  0.34 0 0  0.35 0 0  0.36 0 0  0.37 0 0  0.38 0 0  0.39 0 0  0.4 0 0  0.41 0 0  0.42 0 0  0.43 0 0  0.44 0 0  0.45 0 0  0.46 0 0  0.47 0 0  0.48 0 0  0.49 0 0  0.5 0 0  0.51 0 0  0.52 0 0  0.53 0 0  0.54 0 0  0.55 0 0  0.5600000000000001 0 0  0.57 0 0  0.58 0 0  0.59 0 0  0.6 0 0  0.61 0 0  0.62 0 0  0.63 0 0  0.64 0 0  0.65 0 0  0.66 0 0  0.67 0 0  0.68 0 0  0.6899999999999999 0 0  0.7 0 0  0.71 0 0  0.72 0 0  0.73 0 0  0.74 0 0  0.75 0 0  0.76 0 0  0.77 0 0  0.78 0 0  0.79 0 0  0.8 0 0  0.8100000000000001 0 0  0.82 0 0  0.83 0 0  0.84 0 0  0.85 0 0  0.86 0 0  0.87 0 0  0.88 0 0  0.89 0 0  0.9 0 0  0.91 0 0  0.92 0 0  0.93 0 0  0.9399999999999999 0 0  0.95 0 0  0.96 0 0  0.97 0 0  0.98 0 0  0.99 0 0  1 0 0  0 0.01 0  0.01 0.01 0  0.02 0.01 0  0.03 0.01 0  0.04 0.01 0  0.05 0.01 0  0.06 0.01 0  0.07000000000000001 0.01 0  0.08 0.01 0  0.09 0.01 0  0.1 0.01 0  0.11 0.01 0  0.12 0.01 0  0.13 0.01 0  0.14 0.01 0  0.15 0.01 0  0.16 0.01 0  0.17 0.01 0  0.18 0.01 0  0.19 0.01 0  0.2 0.01 0  0.21 0.01 0  0.22 0.01 0  0.23 0.01 0  0.24 0.01 0  0.25 0.01 0  0.26 0.01 0  0.27 0.01 0  0.28 0.01 0  0.29 0.01 0  0.3 0.01 0  0.31 0.01 0  0.32 0.01 0  0.33 0.01 0  0.34 0.01 0  0.35 0.01 0  0.36 0.01 0  0.37 0.01 0  0.38 0.01 0  0.39 0.01 0  0.4 0.01 0  0.41 0.01 0  0.42 0.01 0  0.43 0.01 0  0.44 0.01 0  0.45 0.01 0  0.46 0.01 0  0.47 0.01 0  0.48 0.01 0  0.49 0.01 0  0.5 0.01 0  0.51 0.01 0  0.52 0.01 0  0.53 0.01 0  0.54 0.01 0  0.55 0.01 0  0.5600000000000001 0.01 0  0.57 0.01 0  0.58 0.01 0  0.59 0.01 0  0.6 0.01 0  0.61 0.01 0  0.62 0.01 0  0.63 0.01 0  0.64 0.01 0  0.65 0.01 0  0.66 0.01 0  0.67 0.01 0  0.68 0.01 0  0.6899999999999999 0.01 0  0.7 0.01 0  0.71 0.01 0  0.72 0.01 0  0.73 0.01 0  0.74 0.01 0  0.75 0.01 0  0.76 0.01 0  0.77 0.01 0  0.78 0.01 0  0.79 0.01 0  0.8 0.01 0  0.8100000000000001 0.01 0  0.82 0.01 0  0.83 0.01 0  0.84 0.01 0  0.85 0.01 0  0.86 0.01 0  0.87 0.01 0  0.88 0.01 0  0.89 0.01 0  0.9 0.01 0  0.91 0.01 0  0.92 0.01 0  0.93 0.01 0  0.9399999999999999 0.01 0  0.95 0.01 0  0.96 0.01 0  0.97 0.01 0  0.98 0.01 0  0.99 0.01 0  1 0.01 0  0 0.02 0  0.01 0.02 0  0.02 0.02 0  0.03 0.02 0  0.04 0.02 0  0.05 0.02 0  0.06 0.02 0  0.07000000000000001 0.02 0  0.08 0.02 0  0.09 0.02 0  0.1 0.02 0  0.11 0.02 0  0.12 0.02 0  0.13 0.02 0  0.14 0.02 0  0.15 0.02 0  0.16 0.02 0  0.17 0.02 0  0.18 0.02 0  0.19 0.02 0  0.2 0.02 0  0.21 0.02 0  0.22 0.02 0  0.23 0.02 0  0.24 0.02 0  0.25 0.02 0  0.26 0.02 0  0.27 0.02 0  0.28 0.02 0  0.29 0.02 0  0.3 0.02 0  0.31 0.02 0  0.32 0.02 0  0.33 0.02 0  0.34 0.02 0  0.35 0.02 0  0.36 0.02 0  0.37 0.02 0  0.38 0.02 0  0.39 0.02 0  0.4 0.02 0  0.41 0.02 0  0.42 0.02 0  0.43 0.02 0  0.44 0.02 0  0.45 0.02 0  0.46 0.02 0  0.47 0.02 0  0.48 0.02 0  0.49 0.02 0  0.5 0.02 0  0.51 0.02 0  0.52 0.02 0  0.53 0.02 0  0.54 0.02 0  0.55 0.02 0  0.5600000000000001 0.02 0  0.57 0.02 0  0.58 0.02 0  0.59 0.02 0  0.6 0.02 0  0.61 0.02 0  0.62 0.02 0  0.63 0.02 0  0.64 0.02 0  0.65 0.02 0  0.66 0.02 0  0.67 0.02 0  0.68 0.02 0  0.6899999999999999 0.02 0  0.7 0.02 0  0.71 0.02 0  0.72 0.02 0  0.73 0.02 0  0.74 0.02 0  0.75 0.02 0  0.76 0.02 0  0.77 0.02 0  0.78 0.02 0  0.79 0.02 0  0.8 0.02 0  0.8100000000000001 0.02 0  0.82 0.02 0  0.83 0.02 0  0.84 0.02 0  0.85 0.02 0  0.86 0.02 0  0.87 0.02 0  0.88 0.02 0  0.89 0.02 0  0.9 0.02 0  0.91 0.02 0  0.92 0.02 0  0.93 0.02 0  0.9399999999999999 0.02 0  0.95 0.02 0  0.96 0.02 0  0.97 0.02 0  0.98 0.02 0  0.99 0.02 0  1 0.02 0  0 0.03 0  0.01 0.03 0  0.02 0.03 0  0.03 0.03 0  0.04 0.03 0  0.05 0.03 0  0.06 0.03 0  0.07000000000000001 0.03 0  0.08 0.03 0  0.09 0.03 0  0.1 0.03 0  0.11 0.03 0  0.12 0.03 0  0.13 0.03 0  0.14 0.03 0  0.15 0.03 0  0.16 0.03 0  0.17 0.03 0  0.18 0.03 0  0.19 0.03 0  0.2 0.03 0  0.21 0.03 0  0.22 0.03 0  0.23 0.03 0  0.24 0.03 0  0.25 0.03 0  0.26 0.03 0  0.27 0.03 0  0.28 0.03 0  0.29 0.03 0  0.3 0.03 0  0.31 0.03 0  0.32 0.03 0  0.33 0.03 0  0.34 0.03 0  0.35 0.03 0  0.36 0.03 0  0.37 0.03 0  0.38 0.03 0  0.39 0.03 0  0.4 0.03 0  0.41 0.03 0  0.42 0.03 0  0.43 0.03 0  0.44 0.03 0  0.45 0.03 0  0.46 0.03 0  0.47 0.03 0  0.48 0.03 0  0.49 0.03 0  0.5 0.03 0  0.51 0.03 0  0.52 0.03 0  0.53 0.03 0  0.54 0.03 0  0.55 0.03 0  0.5600000000000001 0.03 0  0.57 0.03 0  0.58 0.03 0  0.59 0.03 0  0.6 0.03 0  0.61 0.03 0  0.62 0.03 0  0.63 0.03 0  0.64 0.03 0  0.65 0.03 0  0.66 0.03 0  0.67 0.03 0  0.68 0.03 0  0.6899999999999999 0.03 0  0.7 0.03 0  0.71 0.03 0  0.72 0.03 0  0.73 0.03 0  0.74 0.03 0  0.75 0.03 0  0.76 0.03 0  0.77 0.03 0  0.78 0.03 0  0.79 0.03 0  0.8 0.03 0  0.8100000000000001 0.03 0  0.82 0.03 0  0.83 0.03 0  0.84 0.03 0  0.85 0.03 0  0.86 0.03 0  0.87 0.03 0  0.88 0.03 0  0.89 0.03 0  0.9 0.03 0  0.91 0.03 0  0.92 0.03 0  0.93 0.03 0  0.9399999999999999 0.03 0  0.95 0.03 0  0.96 0.03 0  0.97 0.03 0  0.98 0.03 0  0.99 0.03 0  1 0.03 0  0 0.04 0  0.01 0.04 0  0.02 0.04 0  0.03 0.04 0  0.04 0.04 0  0.05 0.04 0  0.06 0.04 0  0.07000000000000001 0.04 0  0.08 0.04 0  0.09 0.04 0  0.1 0.04 0  0.11 0.04 0  0.12 0.04 0  0.13 0.04 0  0.14 0.04 0  0.15 0.04 0  0.16 0.04 0  0.17 0.04 0  0.18 0.04 0  0.19 0.04 0  0.2 0.04 0  0.21 0.04 0  0.22 0.04 0  0.23 0.04 0  0.24 0.04 0  0.25 0.04 0  0.26 0.04 0  0.27 0.04 0  0.28 0.04 0  0.29 0.04 0  0.3 0.04 0  0.31 0.04 0  0.32 0.04 0  0.33 0.04 0  0.34 0.04 0  0.35 0.04 0  0.36 0.04 0  0.37 0.04 0  0.38 0.04 0  0.39 0.04 0  0.4 0.04 0  0.41 0.04 0  0.42 0.04 0  0.43 0.04 0  0.44 0.04 0  0.45 0.04 0  0.46 0.04 0  0.47 0.04 0  0.48 0.04 0  0.49 0.04 0  0.5 0.04 0  0.51 0.04 0  0.52 0.04 0  0.53 0.04 0  0.54 0.04 0  0.55 0.04 0  0.5600000000000001 0.04 0  0.57 0.04 0  0.58 0.04 0  0.59 0.04 0  0.6 0.04 0  0.61 0.04 0  0.62 0.04 0  0.63 0.04 0  0.64 0.04 0  0.65 0.04 0  0.66 0.04 0  0.67 0.04 0  0.68 0.04 0  0.6899999999999999 0.04 0  0.7 0.04 0  0.71 0.04 0  0.72 0.04 0  0.73 0.04 0  0.74 0.04 0  0.75 0.04 0  0.76 0.04 0  0.77 0.04 0  0.78 0.04 0  0.79 0.04 0  0.8 0.04 0  0.8100000000000001 0.04 0  0.82 0.04 0  0.83 0.04 0  0.84 0.04 0  0.85 0.04 0  0.86 0.04 0  0.87 0.04 0  0.88 0.04 0  0.89 0.04 0  0.9 0.04 0  0.91 0.04 0  0.92 0.04 0  0.93 0.04 0  0.9399999999999999 0.04 0  0.95 0.04 0  0.96 0.04 0  0.97 0.04 0  0.98 0.04 0  0.99 0.04 0  1 0.04 0  0 0.05 0  0.01 0.05 0  0.02 0.05 0  0.03 0.05 0  0.04 0.05 0  0.05 0.05 0  0.06 0.05 0  0.07000000000000001 0.05 0  0.08 0.05 0  0.09 0.05 0  0.1 0.05 0  0.11 0.05 0  0.12 0.05 0  0.13 0.05 0  0.14 0.05 0  0.15 0.05 0  0.16 0.05 0  0.17 0.05 0  0.18 0.05 0  0.19 0.05 0  0.2 0.05 0  0.21 0.05 0  0.22 0.05 0  0.23 0.05 0  0.24 0.05 0  0.25 0.05 0  0.26 0.05 0  0.27 0.05 0  0.28 0.05 0  0.29 0.05 0  0.3 0.05 0  0.31 0.05 0  0.32 0.05 0  0.33 0.05 0  0.34 0.05 0  0.35 0.05 0  0.36 0.05 0  0.37 0.05 0  0.38 0.05 0  0.39 0.05 0  0.4 0.05 0  0.41 0.05 0  0.42 0.05 0  0.43 0.05 0  0.44 0.05 0  0.45 0.05 0  0.46 0.05 0  0.47 0.05 0  0.48 0.05 0  0.49 0.05 0  0.5 0.05 0  0.51 0.05 0  0.52 0.05 0  0.53 0.05 0  0.54 0.05 0  0.55 0.05 0  0.5600000000000001 0.05 0  0.57 0.05 0  0.58 0.05 0  0.59 0.05 0  0.6 0.05 0  0.61 0.05 0  0.62 0.05 0  0.63 0.05 0  0.64 0.05 0  0.65 0.05 0  0.66 0.05 0  0.67 0.05 0  0.68 0.05 0  0.6899999999999999 0.05 0  0.7 0.05 0  0.71 0.05 0  0.72 0.05 0  0.73 0.05 0  0.74 0.05 0  0.75 0.05 0  0.76 0.05 0  0.77 0.05 0  0.78 0.05 0  0.79 0.05 0  0.8 0.05 0  0.8100000000000001 0.05 0  0.82 0.05 0  0.83 0.05 0  0.84 0.05 0  0.85 0.05 0  0.86 0.05 0  0.87 0.05 0  0.88 0.05 0  0.89 0.05 0  0.9 0.05 0  0.91 0.05 0  0.92 0.05 0  0.93 0.05 0  0.9399999999999999 0.05 0  0.95 0.05 0  0.96 0.05 0  0.97 0.05 0  0.98 0.05 0  0.99 0.05 0  1 0.05 0  0 0.06 0  0.01 0.06 0  0.02 0.06 0  0.03 0.06 0  0.04 0.06 0  0.05 0.06 0  0.06 0.06 0  0.07000000000000001 0.06 0  0.08 0.06 0  0.09 0.06 0  0.1 0.06 0  0.11 0.06 0  0.12 0.06 0  0.13 0.06 0  0.14 0.06 0  0.15 0.06 0  0.16 0.06 0  0.17 0.06 0  0.18 0.06 0  0.19 0.06 0  0.2 0.06 0  0.21 0.06 0  0.22 0.06 0  0.23 0.06 0  0.24 0.06 0  0.25 0.06 0  0.26 0.06 0  0.27 0.06 0  0.28 0.06 0  0.29 0.06 0  0.3 0.06 0  0.31 0.06 0  0.32 0.06 0  0.33 0.06 0  0.34 0.06 0  0.35 0.06 0  0.36 0.06 0  0.37 0.06 0  0.38 0.06 0  0.39 0.06 0  0.4 0.06 0  0.41 0.06 0  0.42 0.06 0  0.43 0.06 0  0.44 0.06 0  0.45 0.06 0  0.46 0.06 0  0.47 0.06 0  0.48 0.06 0  0.49 0.06 0  0.5 0.06 0  0.51 0.06 0  0.52 0.06 0  0.53 0.06 0  0.54 0.06 0  0.55 0.06 0  0.5600000000000001 0.06 0  0.57 0.06 0  0.58 0.06 0  0.59 0.06 0  0.6 0.06 0  0.61 0.06 0  0.62 0.06 0  0.63 0.06 0  0.64 0.06 0  0.65 0.06 0  0.66 0.06 0  0.67 0.06 0  0.68 0.06 0  0.6899999999999999 0.06 0  0.7 0.06 0  0.71 0.06 0  0.72 0.06 0  0.73 0.06 0  0.74 0.06 0  0.75 0.06 0  0.76 0.06 0  0.77 0.06 0  0.78 0.06 0  0.79 0.06 0  0.8 0.06 0  0.8100000000000001 0.06 0  0.82 0.06 0  0.83 0.06 0  0.84 0.06 0  0.85 0.06 0  0.86 0.06 0  0.87 0.06 0  0.88 0.06 0  0.89 0.06 0  0.9 0.06 0  0.91 0.06 0  0.92 0.06 0  0.93 0.06 0  0.9399999999999999 0.06 0  0.95 0.06 0  0.96 0.06 0  0.97 0.06 0  0.98 0.06 0  0.99 0.06 0  1 0.06 0  0 0.07000000000000001 0  0.01 0.07000000000000001 0  0.02 0.07000000000000001 0  0.03 0.07000000000000001 0  0.04 0.07000000000000001 0  0.05 0.07000000000000001 0  0.06 0.07000000000000001 0  0.07000000000000001 0.07000000000000001 0  0.08 0.07000000000000001 0  0.09 0.07000000000000001 0  0.1 0.07000000000000001 0  0.11 0.07000000000000001 0  0.12 0.07000000000000001 0  0.13 0.07000000000000001 0  0.14 0.07000000000000001 0  0.15 0.07000000000000001 0  0.16 0.07000000000000001 0  0.17 0.0700
[...]
<PointData  Scalars="u"> 
<DataArray  type="Float64"  Name="u"  format="ascii">0.0000000000000000e+00  0.0000000000000000e+00  0.0000000000000000e+00  0.0000000000000000e+00  0.0000000000000000e+00  0.0000000000000000e+00  0.0000000000000000e+00  0.0000000000000000e+00  0.0000000000000000e+00  0.0000000000000000e+00  0.0000000000000000e+00  0.0000000000000000e+00  0.0000000000000000e+00  0.0000000000000000e+00  0.0000000000000000e+00  0.0000000000000000e+00  0.0000000000000000e+00  0.0000000000000000e+00  0.0000000000000000e+00  0.0000000000000000e+00  0.0000000000000000e+00  0.0000000000000000e+00  0.0000000000000000e+00  0.0000000000000000e+00  0.0000000000000000e+00  0.0000000000000000e+00  0.0000000000000000e+00  0.0000000000000000e+00  0.0000000000000000e+00  0.0000000000000000e+00  0.0000000000000000e+00  0.0000000000000000e+00  0.0000000000000000e+00  0.0000000000000000e+00  0.0000000000000000e+00  0.0000000000000000e+00  0.0000000000000000e+00  0.0000000000000000e+00  0.0000000000000000e+00  0.0000000000000000e+00  0.0000000000000000e+00  0.0000000000000000e+00  0.0000000000000000e+00  0.0000000000000000e+00  0.0000000000000000e+00  0.0000000000000000e+00  0.0000000000000000e+00  0.0000000000000000e+00  0.0000000000000000e+00  0.0000000000000000e+00  0.0000000000000000e+00  0.0000000000000000e+00  0.0000000000000000e+00  0.0000000000000000e+00  0.0000000000000000e+00  0.0000000000000000e+00  0.0000000000000000e+00  0.0000000000000000e+00  0.0000000000000000e+00  0.0000000000000000e+00  0.0000000000000000e+00  0.0000000000000000e+00  0.0000000000000000e+00  0.0000000000000000e+00  0.0000000000000000e+00  0.0000000000000000e+00  0.0000000000000000e+00  0.0000000000000000e+00  0.0000000000000000e+00  0.0000000000000000e+00  0.0000000000000000e+00  0.0000000000000000e+00  0.0000000000000000e+00  0.0000000000000000e+00  0.0000000000000000e+00  0.0000000000000000e+00  0.0000000000000000e+00  0.0000000000000000e+00  0.0000000000000000e+00  0.0000000000000000e+00  0.0000000000000000e+00  0.0000000000000000e+00  0.0000000000000000e+00  0.0000000000000000e+00  0.0000000000000000e+00  0.0000000000000000e+00  0.0000000000000000e+00  0.0000000000000000e+00  0.0000000000000000e+00  0.0000000000000000e+00  0.0000000000000000e+00  0.0000000000000000e+00  0.0000000000000000e+00  0.0000000000000000e+00  0.0000000000000000e+00  0.0000000000000000e+00  0.0000000000000000e+00  0.0000000000000000e+00  0.0000000000000000e+00  0.0000000000000000e+00  0.0000000000000000e+00  0.0000000000000000e+00  -1.1207545847383009e-02  -1.8985072735254304e-02  -3.7882804869914014e-03  -7.8437600096012451e-03  3.2018501434440487e-03  -6.2006449451508625e-04  -9.0010502746333682e-03  9.9176589865353527e-03  -1.5282754022470859e-02  -1.1092945452546130e-03  1.6349672199572948e-02  -6.5174660046791906e-03  -2.1761472402208402e-02  1.9769090949822904e-02  -9.5280099932008970e-03  1.8638289513620502e-03  1.5931578511119732e-02  -1.3927965638790035e-02  2.2716659004556244e-02  -2.2333029243560551e-02  1.8495911313130227e-02  -1.9264237536384014e-02  1.1290874528770839e-02  -7.5867734878003676e-03  1.8074614047258207e-02  -2.2522506616094905e-02  1.8219707046218885e-02  -3.4699834190524831e-03  -7.7402584695828560e-03  6.7327919500459639e-03  2.1208552341635621e-02  -3.4605146530103520e-02  8.7209587418032811e-03  3.7475114340718031e-03  8.9792804972906402e-03  1.0515916755644785e-02  1.3865421471848539e-03  -6.4637145834182935e-03  -1.5884418709733329e-02  -2.4410302798378178e-02  -1.7210689422716911e-02  -6.8736744351639229e-03  -2.9148818993599995e-03  9.8385898683203358e-03  1.5570031732357027e-02  -2.4970096135660348e-02  1.5155087088532578e-02  -5.2748806803400690e-03  5.0292941408304082e-03  -4.5552840296702018e-03  6.0095898914973335e-03  -4.1734752009637378e-04  -4.3574363638310036e-03  -9.5824142224224386e-04  3.6595585309950793e-03  1.5413609637026616e-03  -1.5560242056016360e-03  1.2798343491737746e-03  -5.5003026420784914e-04  4.2268527424592492e-04  -1.2364683278145002e-04  -1.6577866420217885e-04  1.2153280308783193e-04  -5.1681503061433522e-05  2.1531921882104543e-05  1.0782052224787833e-04  1.3938502161404923e-05  -6.2804396000526902e-05  3.2577951939365200e-04  9.5322609383857292e-06  -3.2770499685582754e-04  1.8311104526544375e-04  -1.4638978169230141e-04  -4.9756836461056666e-04  -1.7702892260060469e-04  6.8323409774819128e-04  5.8316424307237652e-04  1.1133084657206314e-04  -8.5915383475383331e-05  -6.5346211866204953e-05  -1.7648353992093040e-04  4.4991305744398003e-05  2.5946874806288773e-04  1.5802725983126670e-04  -5.2401149282866046e-05  -9.9258083062421027e-05  -7.6919580942942840e-05  7.5824640159651875e-05  -1.7919321911584803e-05  -6.3141426920057788e-05  -2.9477666604795474e-05  -6.6229707751496219e-06  -9.6835123468981211e-06  -7.3021075884975316e-07  2.8775555756925423e-06  5.5118104872993846e-06  8.2247450906549065e-06  8.4346209913413951e-06  7.4984901280152585e-06  0.0000000000000000e+00  0.0000000000000000e+00  -6.8957743908717312e-04  -6.2015899707420549e-03  6.5364320130518582e-03  -7.2659773842045465e-03  -2.2027052490846254e-02  4.4976792931084543e-03  9.5405309111165626e-03  -1.1350557534987451e-02  -2.2961651964293162e-02  3.1834885105715645e-02  -2.6619600808585640e-02  -1.8877144696373301e-03  2.7231246712878986e-02  -3.6924434206649939e-02  -1.1289512700495238e-02  3.4924559936982166e-02  -2.6147264422697023e-02  2.7763831939186884e-02  -2.4259371014086605e-03  -1.8725330803238938e-03  1.9877356968374994e-02  -4.1315685845137125e-02  3.7935871035688094e-02  -1.9661784903060826e-02  3.0506334402906998e-03  1.0035323313565610e-02  -2.1317805835436097e-02  3.9144473003904910e-02  -2.9126460098122031e-02  -2.3264456179109789e-02  5.5067212089753806e-02  -7.7814680635228872e-03  -2.6474587380309247e-02  -1.6179976265158274e-04  6.2338566716501663e-03  2.6038122291142374e-02  1.9464353260544506e-02  5.1899044858327789e-03  -1.3366408704471724e-02  -5.0353986318359759e-03  -2.6663180349256702e-02  -4.1640157600865674e-02  9.5778275437917047e-04  -1.5367573468591943e-03  3.2059701912533940e-02  -1.4981307784913205e-02  1.1930889841156279e-03  -9.3840317637759445e-03  1.7398986593963068e-02  -1.2725539172442941e-02  8.2590334423328620e-03  2.2149200834213133e-03  -6.7165248839151485e-06  -1.0291824515492013e-02  4.5119899078068203e-03  5.2066058795996548e-03  -6.7417455640363111e-04  -8.1580514345573130e-04  1.4979931006152750e-03  -8.6583669962145347e-04  9.5418415047305596e-04  -7.1011614276553247e-04  1.9261113230592918e-04  -1.4696383052562825e-05  -3.0745776108409688e-05  6.8420240329732812e-05  2.5923149638543445e-04  -1.9327342696787476e-04  2.4326855873318216e-04  5.6870823610084907e-04  -5.0491168099795316e-04  -1.8220218665169937e-04  2.9347960701719836e-04  -6.8191566912534037e-04  -8.5684895138197852e-04  3.6748927883297193e-04  1.4511394035741098e-03  6.2315659362058924e-04  -7.4360153951117601e-05  -1.0361962982972447e-04  -2.0302564788673443e-04  -2.0619053699280773e-04  3.4047239076288616e-04  4.7908482216502872e-04  7.6714391927141130e-05  -1.1107490351987762e-04  -2.1942111716167524e-04  3.4394801954013399e-05  1.0381258298218343e-04  -9.3370600655160981e-05  -9.0967426433757201e-05  -2.4074926139369053e-05  -1.5746499060502913e-05  -1.6478464870330846e-05  -2.5378253406563926e-06  -2.2602401258495103e-06  3.4630098051432642e-06  7.2042097480429299e-06  1.0469119417856952e-05  0.0000000000000000e+00  0.0000000000000000e+00  1.5221339433283337e-02  8.4606368932460662e-03  -3.0643875533147104e-02  2.0797802870124463e-02  -9.6490383728876309e-04  1.0922865221655300e-03  -3.0554253759347838e-03  -7.0705938950517827e-03  2.5473833784691362e-02  -6.1111487077129212e-02  3.3646207211905699e-02  2.8961238984272802e-02  -3.7281340947432157e-02  -2.2938941336303066e-02  3.6070256306482196e-02  -5.2335506600257556e-02  2.8956310533329029e-02  1.4121780122240763e-02  -2.4227409224364622e-02  5.8516081323445400e-02  -6.2565548137033578e-02  6.9107981484667735e-02  -8.4076129204509659e-02  5.8451589514666551e-02  -2.8091115333193074e-02  4.1920478750312989e-02  -5.3170050057060755e-02  2.9143924268647786e-02  1.6237480473695200e-02  -3.2632334393785059e-02  -1.1890415612688800e-02  8.2583730422267299e-02  -8.2217789364950680e-02  1.2381814077460244e-02  -5.6462669375836362e-03  1.0420663507652186e-02  3.5595096951069043e-02  2.8997257927918598e-02  1.5800335391508921e-02  -1.5434019845819267e-02  -2.6119729694220887e-02  -2.5776238045525781e-02  -3.5831666248023544e-02  -1.3091096108336569e-02  1.6558276277596713e-02  5.5641482064572603e-02  -7.1901812629412531e-02  4.5639826449300161e-02  -2.5947835658052344e-02  2.4570393992401886e-02  -2.0243270391450033e-02  1.9854092895282734e-02  -1.4230592151795837e-03  -8.7174921878434824e-03  -8.0691045338265720e-03  1.0153080312494695e-02  4.9206327786642705e-03  -4.2603262341006209e-03  2.7297690249034087e-03  -8.7575086275143768e-04  6.5913687715310769e-04  8.6270296831763744e-05  -5.8118634454371585e-04  4.0413189720805206e-04  -1.9383013417866775e-04  3.8764701470680245e-05  2.4863996568844977e-04  1.5671035925571487e-04  -2.4001798916540844e-04  8.4189646863551382e-04  2.5293929140697075e-04  -9.7058710184167579e-04  4.1160247078576655e-04  -1.9097000329178497e-04  -1.3586092982857355e-03  -7.5566535147482102e-04  1.6746346651985511e-03  1.7499992137848090e-03  3.6519475847707482e-04  -2.9125604005632961e-04  -1.7165524961714791e-04  -4.4723239734491819e-04  6.6923923978224006e-05  7.2034099759264942e-04  5.0997021212855279e-04  -1.0579658659461169e-04  -2.2951925244808676e-04  -2.3302494514755980e-04  2.0855725082037917e-04  1.3113726593402923e-05  -1.5878682329982670e-04  -8.0783776259675343e-05  -1.3580889501240519e-05  -2.6002142673191474e-05  -1.1955036922678485e-05  -4.1062836785090527e-06  -3.4732315814268692e-06  5.9404448417429413e-07  3.1771518593548301e-07  0.0000000000000000e+00  0.0000000000000000e+00  -9.0763817413635345e-03  -9.5886880089150819e-03  1.4054616143858292e-02  3.1488631241293448e-03  -1.7927725810900333e-03  -2.3938698556524030e-02  2.6421678783543151e-02  1.9986931903945827e-02  -2.2535222603375475e-02  -7.3810391645722237e-03  1.7585691360139526e-02  -3.6249441257157060e-02  3.2455089806747307e-02  2.8497297105374349e-02  -8.3722593968499862e-02  1.2398042501145241e-02  2.5899884816090745e-02  -3.9046650021010661e-02  5.5198641434671049e-02  -2.5143735872023912e-02  3.0688173174995836e-02  -1.8280586342146049e-03  -2.5377071591782582e-02  1.8773298659624849e-02  -1.4396888284547226e-02  -4.7019627855427694e-03  4.0984040214636669e-02  -6.0373624443069804e-02  7.0643632338119822e-02  -4.1315658874883296e-02  -4.5493097755243718e-02  7.7124287856996418e-02  2.4820472679211069e-02  -8.2438137349182650e-02  2.4897825725608341e-03  5.2506343874190071e-03  3.9336408764532434e-02  4.2062568284378779e-02  2.8869140606715554e-02  6.8942561647610603e-03  5.0134422452420939e-03  -4.4444960031196183e-02  -6.6139036650630853e-02  -7.6040215369290575e-03  -1.4737717243835876e-02  5.1408078873084087e-02  7.7358690318145729e-03  -3.3090457748608977e-02  7.5095968481987494e-03  1.5392021596896607e-02  -9.9658191209452858e-03  4.1588851414601840e-03  1.1599262095223920e-02  -1.1967007088875187e-04  -1.9759420018998563e-02  3.0533389150567223e-03  1.1525443017326494e-02  7.1242212058660872e-04  -2.9577223733986049e-03  3.3834547557886462e-03  -1.8245346742775761e-03  1.7166369412582030e-03  -1.1123716800853149e-03  2.0452465231712494e-04  1.0329965695919795e-04  -1.5410610266048590e-04  1.1379704637321731e-04  4.6560604156020127e-04  -2.3037424745657632e-04  2.6971615374641483e-04  1.1702039561563653e-03  -6.7680683072023637e-04  -6.2957018100230763e-04  6.5514066131582428e-04  -1.1026883244417381e-03  -1.7911309193675874e-03  2.4705674029815318e-04  2.8463579286355763e-03  1.5072529009097961e-03  -2.6893871238930658e-05  -3.1060180711921709e-04  -3.9090029546112975e-04  -4.9545657130207772e-04  5.6035843761762221e-04  9.6165093862680062e-04  2.7355043772774908e-04  -2.1843921086802520e-04  -3.9847620663818273e-04  -2.7801846987023683e-05  2.3415657445568047e-04  -1.2606482842387879e-04  -1.7685646428766707e-04  -5.1650027393940925e-05  -2.0162216630176970e-05  -2.8257680865609949e-05  -6.5614238756632851e-06  -6.9006831665962299e-06  -1.6230747913417652e-06  1.3461636495046145e-06  0.0000000000000000e+00  0.0000000000000000e+00  2.9666372813724338e-02  2.5757451652759430e-02  -3.2985317031733381e-03  -3.6606948756165138e-02  3.9904949695180714e-02  3.4028538460509896e-03  -1.3157687661027208e-02  7.1936978058741961e-03  1.1287176242391157e-02  2.3792307408386899e-02  -7.6506964271322739e-02  6.5979355570764953e-02  1.1476266204223299e-02  -3.9065413628748769e-02  3.1995150991789168e-03  7.7946194939723249e-03  -7.0544455137594608e-02  5.5383796997087321e-02  -4.5485058876099512e-03  -5.9418827564698372e-03  6.1134770928733394e-02  -6.6956539360636197e-02  8.8066977821031567e-02  -1.2025610746223173e-01  9.1468825497682607e-02  -4.4468082077661439e-02  4.3585742316234757e-02  -5.1144972084663488e-02  1.8303395071477026e-02  4.9546316054905316e-02  -6.1254325045249261e-02  -3.6700631337445319e-02  1.3132894815655402e-01  -8.7714470937387740e-02  -1.3107470213095138e-02  -1.6642264930227472e-02  9.1378398108827169e-03  6.0613402379743678e-02  5.6651813771100228e-02  3.5536215473677038e-02  -8.1625066915996906e-03  -1.4505786943124545e-02  -3.9155467205958812e-02  -7.2955671948042283e-02  -2.0002230725881122e-02  1.5403898241440211e-02  8.4722638279849674e-02  -8.6192694665351011e-02  4.7411572244429712e-02  -3.3960385983701560e-02  3.9336779964155189e-02  -3.0466502928703246e-02  2.7485992899775723e-02  1.2918218998358572e-03  -9.6927025523109375e-03  -1.7359759622232279e-02  1.3660583049701889e-02  9.3204674985381923e-03  -4.9434904810414211e-03  2.4902575710879977e-03  1.7278275504187707e-05  2.6689299435199865e-04  6.2238665676970660e-04  -1.0155347353273561e-03  6.4103871664041782e-04  -2.5957555630150243e-04  -1.8056527326643080e-05  3.3150514782518629e-04  3.4065118288394819e-04  -3.6542834659906401e-04  1.1235819880098458e-03  6.9289508572692644e-04  -1.4229562853255164e-03  3.0664744593239936e-04  -5.5481933031985096e-07  -2.0346691571974311e-03  -1.5190691895726586e-03  2.1311927829575483e-03  3.0892101352330880e-03  9.1568634992931401e-04  -3.5411965013183071e-04  -3.0854849061678506e-04  -6.7195900014141571e-04  -8.7623657224887900e-05  1.0735976797924271e-03  8.9749698602923939e-04  -5.4736092945926345e-05  -3.5045025513969722e-04  -3.9913916535619148e-04  2.3138186797021357e-04  8.5992591363650769e-05  -2.2663555798204825e-04  -1.4711290145518201e-04  -3.0777868658542849e-05  -3.5176375851073670e-05  -2.0164348719725495e-05  -5.7700293995983638e-06  -6.7163893942226469e-06  -1.7414299108156574e-06  0.0000000000000000e+00  0.0000000000000000e+00  -2.1754530787049843e-02  -5.6532297769020905e-03  4.3231526195463416e-03  2.9499663481313214e-02  -1.6256476219440368e-02  5.0258774852649860e-03  -1.7681477583756884e-02  3.1707583717530533e-02  2.0103473025106608e-02  -1.9552537452046298e-02  3.4223873986272838e-03  -1.3777745778297813e-02  -7.1157955899901152e-03  5.1326908095915322e-02  6.9297520254522739e-03  -9.1495503247515333e-02  2.5652025889209625e-02  -7.2339706837715070e-04  -2.3084791646876053e-02  5.4320629259427697e-02  -2.6987501544885856e-02  5.5577022418754632e-02  -2.4149868706259171e-02  3.1120454632305762e-03  -2.4944018606272069e-02  1.4433292406276339e-02  -1.3441049770725844e-02  5.9681128897391092e-02  -8.6510518978615308e-02  7.9946292238200975e-02  -2.7109678296144923e-02  -6.5636409800876261e-02  7.3759701801022551e-02  6.3795972817580968e-02  -1.2165991896677540e-01  2.1396808663187465e-03  7.4584587940542952e-04  4.1547118168387354e-02  6.4475859542857977e-02  5.7003709604817702e-02  3.0247001518118440e-02  8.0866284238195647e-03  -5.0717269147400185e-02  -7.8023892231355224e-02  -3.2053118949414740e-02  -2.6701012058678537e-02  6.1098083423400798e-02  3.6067980637021171e-02  -6.5979893578975629e-02  2.7259517472617727e-02  2.4811830338121866e-03  3.2970108534390299e-03  -6.5994305232750343e-03  2.2970302098676551e-02  -9.0926600758168739e-04  -2.4604153923203025e-02  -2.4574503462450430e-03  1.7555151715980148e-02  3.0896563427436604e-03  -4.5109993190916619e-03  4.3549179267906423e-03  -1.8587735959261149e-03  1.9529873222297123e-03  -1.0075800911329294e-03  9.2338148023563143e-05  3.5123239038645346e-04  -2.8461648340631629e-04  1.3082864989848628e-04  5.8888022754982118e-04  -1.3449664998084780e-04  2.0593702459181215e-04  1.6153930528438089e-03  -5.3585168848316181e-04  -1.1180267767660385e-03  8.0805283067413947e-04  -1.2421903397385448e-03  -2.6106199183371557e-03  -1.3977519636911313e-04  3.8294059021138356e-03  2.5934381613214085e-03  2.1150541642301655e-04  -4.5802428744621810e-04  -5.2136457682856394e-04  -7.1607902265009035e-04  6.3624541120048969e-04  1.3951437317421683e-03  5.2998590309436401e-04  -2.7399188173237777e-04  -5.3200327152970038e-04  -1.3258094641424226e-04  3.0460784847059883e-04  -1.0955072152572405e-04  -2.5239131714351255e-04  -9.5261716082274946e-05  -3.1510356679091768e-05  -3.8427796689451203e-05  -1.1455928071593406e-05  -6.8925590594004032e-06  -2.6056886314244205e-06  0.0000000000000000e+00  0.0000000000000000e+00  3.3328252821293652e-03  1.0396031875175725e-02  4.5523716635224943e-03  -2.4318579764654565e-02  -2.3998182512481203e-02  4.2147543368486147e-02  2.5976065532927859e-03  -2.6505581492470072e-02  1.8797453304085176e-02  2.1976211068843381e-02  1.5122933958353424e-02  -6.5630793919230532e-02  5.3517432810390148e-02  3.8073865357783165e-03  -1.3305660406020428e-02  7.2499835020652693e-03  -2.5260801456909992e-02  -6.0673400956408760e-02  4.7034295180872369e-02  -4.6780036205460130e-03  1.1759950993249293e-02  4.7887077741615200e-02  -4.0259139235104859e-02  7.0818071641008978e-02  -1.0570879564651546e-01  7.4460155327550639e-02  -3.6459237234458250e-02  3.4261052911082793e-02  -3.1832143445198594e-02  -1.0505225124183048e-03  7.2386877351040532e-02  -7.8109085506177622e-02  -5.3630314656307930e-02  1.5446551343854578e-01  -6.4193559258283073e-02  -5.8395846832250638e-02  -2.1408686927314971e-02  9.2516693554317297e-03  7.8417252333580309e-02  8.1493895507093364e-02  5.5880080846826906e-02  9.3611003230264240e-03  -5.3355310076967808e-03  -5.5200613925546996e-02  -9.8094195203931145e-02  -3.2159306147245090e-02  1.1153287883567158e-02  1.0016644821038892e-01  -7.2532279126538882e-02  1.8807414291362692e-02  -1.8730632479447659e-02  3.5173598860512433e-02  -2.6568021143249590e-02  2.3636996589141576e-02  9.7023218774591868e-03  -1.1320189057956176e-02  -2.4839535676366899e-02  1.2694932424340074e-02  1.4949266830761632e-02  -4.0075307266137375e-03  1.2972173969507804e-03  1.1918985148635258e-03  -8.1983594303805025e-05  1.0621255794752043e-03  -1.1567745942025402e-03  8.2710137387520457e-04  -1.0841463157345298e-04  -1.0475416894048846e-04  4.1467443139440682e-04  4.8875520558019957e-04  -3.3784875707376069e-04  1.2109762760455448e-03  1.1387229012850590e-03  -1.5519643160966682e-03  -4.1981283314068078e-05  2.1789177770876095e-04  -2.4688379431215489e-03  -2.3003039428827164e-03  2.1711442425976324e-03  4.3333629211171863e-03  1.7111744558408865e-03  -2.9593037947809816e-04  -4.8656793719821972e-04  -8.3627008404109403e-04  -2.6692576320277262e-04  1.3348894706167402e-03  1.3178202019539260e-03  9.7803708307725323e-05  -4.5616145552488990e-04  -5.1978267431041208e-04  1.8180546704088277e-04  1.6170670856160404e-04  -2.4558081556038075e-04  -2.1104916594256673e-04  -5.6857929978939277e-05  -4.1314327624426413e-05  -2.6353699409705753e-05  -6.9605208766355411e-06  -5.2712144108968444e-06  0.0000000000000000e+00  0.0000000000000000e+00  6.9133377287045840e-03  7.8573119786117581e-03  6.7362518901964647e-03  9.0279935536429368e-03  1.3611855295238758e-02  -3.1912337352712664e-02  