<?xml version="1.0"?>
<VTKFile type="UnstructuredGrid"  version="0.1"  >
<UnstructuredGrid>
<Piece  NumberOfPoints="10201" NumberOfCells="20000">
<Points>
<DataArray  type="Float64"  NumberOfComponents="3"  format="ascii">0 0 0  0.01 0 0  0.02 0 0  0.03 0 0  0.04 0 0  0.05 0 0  0.06 0 0  0.07000000000000001 0 0  0.08 0 0  0.09 0 0  0.1 0 0  0.11 0 0  0.12 0 0  0.13 0 0  0.14 0 0  0.15 0 0  0.16 0 0  0.17 0 0  0.18 0 0  0.19 0 0  0.2 0 0  0.21 0 0  0.22 0 0  0.23 0 0  0.24 0 0  0.25 0 0  0.26 0 0  0.27 0 0  0.28 0 0  0.29 0 0  0.3 0 0  0.31 0 0  0.32 0 0  0.33 0 0  0.34 0 0  0.35 0 0  0.36 0 0  0.37 0 0  0.38 0 0  0.39 0 0  0.4 0 0  0.41 0 0  0.42 0 0  0.43 0 0  0.44 0 0  0.45 0 0  0.46 0 0  0.47 0 0  0.48 0 0  0.49 0 0  0.5 0 0  0.51 0 0  0.52 0 0  0.53 0 0  0.54 0 0  0.55 0 0  0.5600000000000001 0 0  0.57 0 0  0.58 0 0  0.59 0 0  0.6 0 0  0.61 0 0  0.62 0 0  0.63 0 0  0.64 0 0  0.65 0 0  0.66 0 0  0.67 0 0  0.68 0 0  0.6899999999999999 0 0  0.7 0 0  0.71 0 0  0.72 0 0  0.73 0 0  0.74 0 0  0.75 0 0  0.76 0 0  0.77 0 0  0.78 0 0  0.79 0 0  0.8 0 0  0.8100000000000001 0 0  0.82 0 0  0.83 0 0  0.84 0 0  0.85 0 0  0.86 0 0  0.87 0 0  0.88 0 0  0.89 0 0  0.9 0 0  0.91 0 0  0.92 0 0  0.93 0 0  0.9399999999999999 0 0  0.95 0 0  0.96 0 0  0.97 0 0  0.98 0 0  0.99 0 0  1 0 0  0 0.01 0  0.01 0.01 0  0.02 0.01 0  0.03 0.01 0  0.04 0.01 0  0.05 0.01 0  0.06 0.01 0  0.07000000000000001 0.01 0  0.08 0.01 0  0.09 0.01 0  0.1 0.01 0  0.11 0.01 0  0.12 0.01 0  0.13 0.01 0  0.14 0.01 0  0.15 0.01 0  0.16 0.01 0  0.17 0.01 0  0.18 0.01 0  0.19 0.01 0  0.2 0.01 0  0.21 0.01 0  0.22 0.01 0  0.23 0.01 0  0.24 0.01 0  0.25 0.01 0  0.26 0.01 0  0.27 0.01 0  0.28 0.01 0  0.29 0.01 0  0.3 0.01 0  0.31 0.01 0  0.32 0.01 0  0.33 0.01 0  0.34 0.01 0  0.35 0.01 0  0.36 0.01 0  0.37 0.01 0  0.38 0.01 0  0.39 0.01 0  0.4 0.01 0  0.41 0.01 0  0.42 0.01 0  0.43 0.01 0  0.44 0.01 0  0.45 0.01 0  0.46 0.01 0  0.47 0.01 0  0.48 0.01 0  0.49 0.01 0  0.5 0.01 0  0.51 0.01 0  0.52 0.01 0  0.53 0.01 0  0.54 0.01 0  0.55 0.01 0  0.5600000000000001 0.01 0  0.57 0.01 0  0.58 0.01 0  0.59 0.01 0  0.6 0.01 0  0.61 0.01 0  0.62 0.01 0  0.63 0.01 0  0.64 0.01 0  0.65 0.01 0  0.66 0.01 0  0.67 0.01 0  0.68 0.01 0  0.6899999999999999 0.01 0  0.7 0.01 0  0.71 0.01 0  0.72 0.01 0  0.73 0.01 0  0.74 0.01 0  0.75 0.01 0  0.76 0.01 0  0.77 0.01 0  0.78 0.01 0  0.79 0.01 0  0.8 0.01 0  0.8100000000000001 0.01 0  0.82 0.01 0  0.83 0.01 0  0.84 0.01 0  0.85 0.01 0  0.86 0.01 0  0.87 0.01 0  0.88 0.01 0  0.89 0.01 0  0.9 0.01 0  0.91 0.01 0  0.92 0.01 0  0.93 0.01 0  0.9399999999999999 0.01 0  0.95 0.01 0  0.96 0.01 0  0.97 0.01 0  0.98 0.01 0  0.99 0.01 0  1 0.01 0  0 0.02 0  0.01 0.02 0  0.02 0.02 0  0.03 0.02 0  0.04 0.02 0  0.05 0.02 0  0.06 0.02 0  0.07000000000000001 0.02 0  0.08 0.02 0  0.09 0.02 0  0.1 0.02 0  0.11 0.02 0  0.12 0.02 0  0.13 0.02 0  0.14 0.02 0  0.15 0.02 0  0.16 0.02 0  0.17 0.02 0  0.18 0.02 0  0.19 0.02 0  0.2 0.02 0  0.21 0.02 0  0.22 0.02 0  0.23 0.02 0  0.24 0.02 0  0.25 0.02 0  0.26 0.02 0  0.27 0.02 0  0.28 0.02 0  0.29 0.02 0  0.3 0.02 0  0.31 0.02 0  0.32 0.02 0  0.33 0.02 0  0.34 0.02 0  0.35 0.02 0  0.36 0.02 0  0.37 0.02 0  0.38 0.02 0  0.39 0.02 0  0.4 0.02 0  0.41 0.02 0  0.42 0.02 0  0.43 0.02 0  0.44 0.02 0  0.45 0.02 0  0.46 0.02 0  0.47 0.02 0  0.48 0.02 0  0.49 0.02 0  0.5 0.02 0  0.51 0.02 0  0.52 0.02 0  0.53 0.02 0  0.54 0.02 0  0.55 0.02 0  0.5600000000000001 0.02 0  0.57 0.02 0  0.58 0.02 0  0.59 0.02 0  0.6 0.02 0  0.61 0.02 0  0.62 0.02 0  0.63 0.02 0  0.64 0.02 0  0.65 0.02 0  0.66 0.02 0  0.67 0.02 0  0.68 0.02 0  0.6899999999999999 0.02 0  0.7 0.02 0  0.71 0.02 0  0.72 0.02 0  0.73 0.02 0  0.74 0.02 0  0.75 0.02 0  0.76 0.02 0  0.77 0.02 0  0.78 0.02 0  0.79 0.02 0  0.8 0.02 0  0.8100000000000001 0.02 0  0.82 0.02 0  0.83 0.02 0  0.84 0.02 0  0.85 0.02 0  0.86 0.02 0  0.87 0.02 0  0.88 0.02 0  0.89 0.02 0  0.9 0.02 0  0.91 0.02 0  0.92 0.02 0  0.93 0.02 0  0.9399999999999999 0.02 0  0.95 0.02 0  0.96 0.02 0  0.97 0.02 0  0.98 0.02 0  0.99 0.02 0  1 0.02 0  0 0.03 0  0.01 0.03 0  0.02 0.03 0  0.03 0.03 0  0.04 0.03 0  0.05 0.03 0  0.06 0.03 0  0.07000000000000001 0.03 0  0.08 0.03 0  0.09 0.03 0  0.1 0.03 0  0.11 0.03 0  0.12 0.03 0  0.13 0.03 0  0.14 0.03 0  0.15 0.03 0  0.16 0.03 0  0.17 0.03 0  0.18 0.03 0  0.19 0.03 0  0.2 0.03 0  0.21 0.03 0  0.22 0.03 0  0.23 0.03 0  0.24 0.03 0  0.25 0.03 0  0.26 0.03 0  0.27 0.03 0  0.28 0.03 0  0.29 0.03 0  0.3 0.03 0  0.31 0.03 0  0.32 0.03 0  0.33 0.03 0  0.34 0.03 0  0.35 0.03 0  0.36 0.03 0  0.37 0.03 0  0.38 0.03 0  0.39 0.03 0  0.4 0.03 0  0.41 0.03 0  0.42 0.03 0  0.43 0.03 0  0.44 0.03 0  0.45 0.03 0  0.46 0.03 0  0.47 0.03 0  0.48 0.03 0  0.49 0.03 0  0.5 0.03 0  0.51 0.03 0  0.52 0.03 0  0.53 0.03 0  0.54 0.03 0  0.55 0.03 0  0.5600000000000001 0.03 0  0.57 0.03 0  0.58 0.03 0  0.59 0.03 0  0.6 0.03 0  0.61 0.03 0  0.62 0.03 0  0.63 0.03 0  0.64 0.03 0  0.65 0.03 0  0.66 0.03 0  0.67 0.03 0  0.68 0.03 0  0.6899999999999999 0.03 0  0.7 0.03 0  0.71 0.03 0  0.72 0.03 0  0.73 0.03 0  0.74 0.03 0  0.75 0.03 0  0.76 0.03 0  0.77 0.03 0  0.78 0.03 0  0.79 0.03 0  0.8 0.03 0  0.8100000000000001 0.03 0  0.82 0.03 0  0.83 0.03 0  0.84 0.03 0  0.85 0.03 0  0.86 0.03 0  0.87 0.03 0  0.88 0.03 0  0.89 0.03 0  0.9 0.03 0  0.91 0.03 0  0.92 0.03 0  0.93 0.03 0  0.9399999999999999 0.03 0  0.95 0.03 0  0.96 0.03 0  0.97 0.03 0  0.98 0.03 0  0.99 0.03 0  1 0.03 0  0 0.04 0  0.01 0.04 0  0.02 0.04 0  0.03 0.04 0  0.04 0.04 0  0.05 0.04 0  0.06 0.04 0  0.07000000000000001 0.04 0  0.08 0.04 0  0.09 0.04 0  0.1 0.04 0  0.11 0.04 0  0.12 0.04 0  0.13 0.04 0  0.14 0.04 0  0.15 0.04 0  0.16 0.04 0  0.17 0.04 0  0.18 0.04 0  0.19 0.04 0  0.2 0.04 0  0.21 0.04 0  0.22 0.04 0  0.23 0.04 0  0.24 0.04 0  0.25 0.04 0  0.26 0.04 0  0.27 0.04 0  0.28 0.04 0  0.29 0.04 0  0.3 0.04 0  0.31 0.04 0  0.32 0.04 0  0.33 0.04 0  0.34 0.04 0  0.35 0.04 0  0.36 0.04 0  0.37 0.04 0  0.38 0.04 0  0.39 0.04 0  0.4 0.04 0  0.41 0.04 0  0.42 0.04 0  0.43 0.04 0  0.44 0.04 0  0.45 0.04 0  0.46 0.04 0  0.47 0.04 0  0.48 0.04 0  0.49 0.04 0  0.5 0.04 0  0.51 0.04 0  0.52 0.04 0  0.53 0.04 0  0.54 0.04 0  0.55 0.04 0  0.5600000000000001 0.04 0  0.57 0.04 0  0.58 0.04 0  0.59 0.04 0  0.6 0.04 0  0.61 0.04 0  0.62 0.04 0  0.63 0.04 0  0.64 0.04 0  0.65 0.04 0  0.66 0.04 0  0.67 0.04 0  0.68 0.04 0  0.6899999999999999 0.04 0  0.7 0.04 0  0.71 0.04 0  0.72 0.04 0  0.73 0.04 0  0.74 0.04 0  0.75 0.04 0  0.76 0.04 0  0.77 0.04 0  0.78 0.04 0  0.79 0.04 0  0.8 0.04 0  0.8100000000000001 0.04 0  0.82 0.04 0  0.83 0.04 0  0.84 0.04 0  0.85 0.04 0  0.86 0.04 0  0.87 0.04 0  0.88 0.04 0  0.89 0.04 0  0.9 0.04 0  0.91 0.04 0  0.92 0.04 0  0.93 0.04 0  0.9399999999999999 0.04 0  0.95 0.04 0  0.96 0.04 0  0.97 0.04 0  0.98 0.04 0  0.99 0.04 0  1 0.04 0  0 0.05 0  0.01 0.05 0  0.02 0.05 0  0.03 0.05 0  0.04 0.05 0  0.05 0.05 0  0.06 0.05 0  0.07000000000000001 0.05 0  0.08 0.05 0  0.09 0.05 0  0.1 0.05 0  0.11 0.05 0  0.12 0.05 0  0.13 0.05 0  0.14 0.05 0  0.15 0.05 0  0.16 0.05 0  0.17 0.05 0  0.18 0.05 0  0.19 0.05 0  0.2 0.05 0  0.21 0.05 0  0.22 0.05 0  0.23 0.05 0  0.24 0.05 0  0.25 0.05 0  0.26 0.05 0  0.27 0.05 0  0.28 0.05 0  0.29 0.05 0  0.3 0.05 0  0.31 0.05 0  0.32 0.05 0  0.33 0.05 0  0.34 0.05 0  0.35 0.05 0  0.36 0.05 0  0.37 0.05 0  0.38 0.05 0  0.39 0.05 0  0.4 0.05 0  0.41 0.05 0  0.42 0.05 0  0.43 0.05 0  0.44 0.05 0  0.45 0.05 0  0.46 0.05 0  0.47 0.05 0  0.48 0.05 0  0.49 0.05 0  0.5 0.05 0  0.51 0.05 0  0.52 0.05 0  0.53 0.05 0  0.54 0.05 0  0.55 0.05 0  0.5600000000000001 0.05 0  0.57 0.05 0  0.58 0.05 0  0.59 0.05 0  0.6 0.05 0  0.61 0.05 0  0.62 0.05 0  0.63 0.05 0  0.64 0.05 0  0.65 0.05 0  0.66 0.05 0  0.67 0.05 0  0.68 0.05 0  0.6899999999999999 0.05 0  0.7 0.05 0  0.71 0.05 0  0.72 0.05 0  0.73 0.05 0  0.74 0.05 0  0.75 0.05 0  0.76 0.05 0  0.77 0.05 0  0.78 0.05 0  0.79 0.05 0  0.8 0.05 0  0.8100000000000001 0.05 0  0.82 0.05 0  0.83 0.05 0  0.84 0.05 0  0.85 0.05 0  0.86 0.05 0  0.87 0.05 0  0.88 0.05 0  0.89 0.05 0  0.9 0.05 0  0.91 0.05 0  0.92 0.05 0  0.93 0.05 0  0.9399999999999999 0.05 0  0.95 0.05 0  0.96 0.05 0  0.97 0.05 0  0.98 0.05 0  0.99 0.05 0  1 0.05 0  0 0.06 0  0.01 0.06 0  0.02 0.06 0  0.03 0.06 0  0.04 0.06 0  0.05 0.06 0  0.06 0.06 0  0.07000000000000001 0.06 0  0.08 0.06 0  0.09 0.06 0  0.1 0.06 0  0.11 0.06 0  0.12 0.06 0  0.13 0.06 0  0.14 0.06 0  0.15 0.06 0  0.16 0.06 0  0.17 0.06 0  0.18 0.06 0  0.19 0.06 0  0.2 0.06 0  0.21 0.06 0  0.22 0.06 0  0.23 0.06 0  0.24 0.06 0  0.25 0.06 0  0.26 0.06 0  0.27 0.06 0  0.28 0.06 0  0.29 0.06 0  0.3 0.06 0  0.31 0.06 0  0.32 0.06 0  0.33 0.06 0  0.34 0.06 0  0.35 0.06 0  0.36 0.06 0  0.37 0.06 0  0.38 0.06 0  0.39 0.06 0  0.4 0.06 0  0.41 0.06 0  0.42 0.06 0  0.43 0.06 0  0.44 0.06 0  0.45 0.06 0  0.46 0.06 0  0.47 0.06 0  0.48 0.06 0  0.49 0.06 0  0.5 0.06 0  0.51 0.06 0  0.52 0.06 0  0.53 0.06 0  0.54 0.06 0  0.55 0.06 0  0.5600000000000001 0.06 0  0.57 0.06 0  0.58 0.06 0  0.59 0.06 0  0.6 0.06 0  0.61 0.06 0  0.62 0.06 0  0.63 0.06 0  0.64 0.06 0  0.65 0.06 0  0.66 0.06 0  0.67 0.06 0  0.68 0.06 0  0.6899999999999999 0.06 0  0.7 0.06 0  0.71 0.06 0  0.72 0.06 0  0.73 0.06 0  0.74 0.06 0  0.75 0.06 0  0.76 0.06 0  0.77 0.06 0  0.78 0.06 0  0.79 0.06 0  0.8 0.06 0  0.8100000000000001 0.06 0  0.82 0.06 0  0.83 0.06 0  0.84 0.06 0  0.85 0.06 0  0.86 0.06 0  0.87 0.06 0  0.88 0.06 0  0.89 0.06 0  0.9 0.06 0  0.91 0.06 0  0.92 0.06 0  0.93 0.06 0  0.9399999999999999 0.06 0  0.95 0.06 0  0.96 0.06 0  0.97 0.06 0  0.98 0.06 0  0.99 0.06 0  1 0.06 0  0 0.07000000000000001 0  0.01 0.07000000000000001 0  0.02 0.07000000000000001 0  0.03 0.07000000000000001 0  0.04 0.07000000000000001 0  0.05 0.07000000000000001 0  0.06 0.07000000000000001 0  0.07000000000000001 0.07000000000000001 0  0.08 0.07000000000000001 0  0.09 0.07000000000000001 0  0.1 0.07000000000000001 0  0.11 0.07000000000000001 0  0.12 0.07000000000000001 0  0.13 0.07000000000000001 0  0.14 0.07000000000000001 0  0.15 0.07000000000000001 0  0.16 0.07000000000000001 0  0.17 0.0700
[...]
<PointData  Scalars="Indicator Function"> 
<DataArray  type="Float64"  Name="Indicator Function"  format="ascii">-9.7870033917180011e-19  1.5844570352215096e-17  7.2238790093204717e-17  1.6731741407126372e-18  1.5109186122761670e-16  -5.1633465659986384e-19  -2.6963019221421302e-33  1.6445277313711462e-16  4.3283298750556766e-16  -1.5830643971471389e-19  2.0554636388431552e-16  1.1596626719852445e-16  7.7037197775489434e-34  -2.0197127267542625e-18  1.8082021115063396e-16  -3.7575325463584409e-18  -3.7292225004531967e-18  3.2508860561325059e-16  -1.6781079480956093e-18  -2.1369800523053946e-18  1.2592205372583651e-15  -2.7518049488291624e-18  -1.3759024744145687e-18  6.5193798213056457e-16  -2.8237548990557837e-19  -1.7286088159363708e-18  -1.5215935029652224e-18  -9.3742284952564443e-19  -1.8871301599947479e-18  -8.9834503215664104e-19  -2.4798168671802912e-18  -1.4519674038370642e-18  -1.6115564656734147e-18  -1.6800269377935889e-18  3.6313304464526729e-17  -6.2810950609395380e-19  -3.2166281026496029e-18  -7.4672505435666360e-18  -8.2488194908055805e-18  -5.9898824423829300e-18  1.4164628823549050e-15  -6.4286440681329364e-20  -2.1704578573876877e-18  -1.6697971722155999e-18  -1.6261925666925312e-18  -8.1309628334622555e-19  2.3842801610431137e-16  -9.5059170248386332e-19  -1.5013698524220369e-19  -8.5307973925266455e-19  -4.2653986962633247e-19  -2.7365944382823457e-19  -5.1153452996013334e-20  -8.3843180844890523e-19  -4.6505172794609262e-19  -1.3722250853759055e-33  1.5037661005775538e-30  -8.7107788613156462e-20  -1.1837912504843573e-20  -1.9182178852437476e-20  -6.2362103177142726e-21  -3.5670294701320957e-20  -5.4134396441823416e-21  -7.5231638452626401e-37  -3.9287114489197544e-21  -6.2257612032548445e-20  -4.6678929707319117e-20  -3.8217672333934211e-34  1.4570851339484612e-17  -1.2639793523448761e-19  -3.0092655381050560e-36  0.0000000000000000e+00  -2.6794919607339509e-20  -4.1488394241422292e-19  -5.2593857328405211e-19  -2.6077985783533079e-19  -5.8448954348965754e-20  -1.3119173891183395e-19  -1.6598234097593603e-19  -1.4851332660320781e-19  -8.8685683052524923e-20  -2.3733055433520382e-18  -1.2860234024317094e-19  -1.7758193715869934e-19  -1.6332505501946459e-19  -1.2585195061426956e-19  -7.0566290153647273e-20  -3.3950881779748665e-20  -3.0053780461019128e-20  -1.3401441481813393e-20  -7.5231638452626401e-37  0.0000000000000000e+00  -2.3319860491410841e-22  2.7899542489550892e-18  -4.9756504465895196e-22  -1.1461973502106499e-21  -1.5278956685080775e-21  -1.8526975856233894e-21  -1.9279093261296437e-21  -6.2276139000690581e-22  -5.6423728839469800e-37  7.7037197775489434e-34  1.7630697931206016e-02  6.4175376436263545e-02  2.1062578397251983e-02  1.7030503286697272e-02  1.4470571453055886e-02  9.3014582682464791e-03  7.3607094841506655e-04  4.5677440377954723e-02  5.0532547385983728e-02  2.8517952916380460e-03  7.8931273342766298e-02  1.4464695318854017e-03  7.2767819868846700e-02  7.8487540451897212e-03  7.1149560024452482e-02  5.9540237951810092e-02  3.7409581277785792e-02  6.0460210637846810e-02  7.6992820538085108e-02  3.8521798491183985e-02  6.8355956080952726e-02  4.9572110968573217e-02  3.5783631843515750e-03  1.0173649208938583e-02  6.2279696154563115e-02  5.4821183463708324e-02  3.3774217566497573e-02  9.0913937345457572e-03  1.1250954703784528e-02  1.0557668056390851e-02  5.2312638870997658e-02  5.3492503260793557e-02  2.2849687627764202e-03  2.9122190382690261e-02  2.2630029900740766e-02  1.5452023767714342e-02  5.0219608614071702e-02  1.0940822275491949e-01  9.3893410162694230e-02  6.0957424260688266e-02  3.3069379898847576e-02  1.1580815611896319e-03  3.8520452010423402e-02  1.0820165685086230e-02  2.9294880949556613e-02  4.4052690235160778e-02  5.8406033677577606e-03  1.7124337748351249e-02  2.7046274831652741e-03  1.5367718383262480e-02  6.1736258043850779e-03  1.8429973748124774e-03  6.9603758064282206e-03  1.1623656817210131e-02  2.5657987461390462e-03  9.5273426770105837e-04  3.1383888347142350e-03  4.2650574676526419e-04  6.9111082825593290e-04  2.2468315570449635e-04  4.5751261309567490e-04  4.1382259715242169e-04  1.4040964797953607e-05  4.0216563654680631e-05  3.4088630805578985e-04  9.5109027937515347e-04  3.6534770205616681e-04  1.0207429359862486e-03  2.3585022517951296e-03  1.0977316501921889e-03  1.6687283818055077e-04  9.6538871967229297e-04  1.8622585899454383e-03  6.5978968190850079e-03  6.1755186411048043e-03  1.6100329617393051e-03  1.0529227561047894e-03  1.8368788878572963e-03  2.0716325919485834e-03  1.6395619534247451e-03  1.0860303313353194e-03  1.2733461554512090e-03  1.9867049668796724e-03  2.2056793006227601e-03  1.8393629773923255e-03  1.3474657028649353e-03  8.7815070249315107e-04  6.4848475501035681e-04  4.0369175428846813e-04  1.8195165951018658e-04  6.7394737500017015e-05  1.7553504224910854e-05  4.2009326007786888e-06  2.2381630559567944e-06  8.9633349988745610e-06  1.6166388337769647e-05  1.9440927284531068e-05  2.4585566358479242e-05  2.2437343711806645e-05  6.2276139000690572e-22  -9.1859303572392164e-19  1.0544468478152273e-02  1.5385398096075961e-02  3.5104646606279467e-02  2.8920361795982327e-02  5.7927666271300679e-02  4.5284928260322811e-03  5.2525151823073150e-02  2.0124771610549076e-02  4.9278363695586039e-02  1.1072853074010741e-01  7.0186976459924361e-02  5.6971645876981742e-03  1.0873354447815478e-01  1.1756961377983194e-01  1.3410383225871317e-01  1.0427768691534103e-02  1.0408451873507650e-01  7.6306700349194163e-03  4.0635548308594310e-02  5.1423890390179978e-03  1.0798552062506463e-01  7.2197768289893730e-02  4.6504639875430071e-03  3.0137192353838622e-02  1.5227192234277567e-02  1.0144771781422944e-02  3.0422261358321368e-02  1.5663069439058441e-02  1.5441292042547327e-03  9.4465116723546544e-02  7.5641668920147911e-02  3.3600698829881502e-02  5.6091216532572964e-02  6.2193295917067230e-02  2.2346679017225670e-02  1.2379892470358655e-02  7.1606652721503850e-02  1.0082451335606812e-01  1.0682648457638248e-01  1.6242186750614068e-01  4.8680015481422895e-02  2.7261361811651359e-02  7.7518826136789695e-03  2.6843097248214837e-02  2.0037940088922519e-02  3.2866744120354882e-02  4.5027130037722006e-03  4.5822204058403468e-02  2.5523261616570921e-02  3.1497722970301484e-02  5.0854890978256958e-03  1.0108199709376446e-05  5.3241689920757833e-03  2.6748128187247457e-02  3.3219149396963568e-03  9.2590528215715135e-04  3.0447100916034179e-03  2.8581812705772191e-03  8.5851981396838398e-04  1.0629765917863183e-03  6.0287439364242561e-04  1.3618332865937249e-03  1.8513180108628514e-04  1.6541404130195641e-04  2.1581364393136247e-04  1.0237167387958917e-03  1.2077473504420678e-03  2.9187699838279923e-04  2.8866553033212953e-03  2.9483059182462803e-03  3.2733065092235131e-04  8.9282458877883142e-04  1.6228114290736139e-04  6.8697629364760137e-03  1.0598701156656154e-02  4.2710534136394408e-03  1.1857342695814818e-03  2.1602536359213100e-03  2.3898998002813698e-03  2.5022596894750493e-03  1.6942709268205111e-03  1.4944986832236462e-03  2.4329535959885882e-03  3.1548875867496201e-03  2.7738263250567420e-03  2.0545635033670327e-03  1.3886664802785248e-03  9.7073454792779158e-04  7.2971675231812408e-04  3.5581370924542608e-04  1.2330472637008891e-04  3.0277911137614685e-05  1.2153602415446683e-05  2.6462023641833393e-05  1.0752707771856175e-05  1.5276678433683106e-06  8.8245450779245846e-06  1.5785748121703484e-05  3.0415837071121191e-05  3.7501891532494070e-21  1.7333369499485123e-33  4.8904990235174223e-02  4.1218917206313391e-02  1.1915487229713116e-01  4.4737419165315512e-02  1.3525827894879990e-02  2.5767834112714168e-02  4.7560076276099185e-02  2.5054893432163314e-02  7.8924214087614311e-02  1.7414213434774517e-01  1.1038210184642841e-01  1.2534981261708875e-01  1.1274743839137411e-01  8.6972986239826730e-02  6.9542641017251869e-02  1.9014114667236456e-01  6.5141643285409626e-02  6.4175256568342887e-02  6.5809503423476842e-02  1.7808782551771668e-01  1.6451334938010040e-01  1.9298883371480038e-01  1.7507541276691990e-01  4.5703430520551661e-02  1.1952227195013073e-02  1.1744815507381894e-01  1.7720346315102078e-01  1.1185652038916001e-01  2.2166234244573438e-02  1.4560378478197941e-03  5.7151576797031894e-02  1.2146422366000842e-01  1.2763933317908083e-01  3.2586989433547320e-02  6.3304959358013099e-02  3.3857148934024223e-02  4.6668904251951936e-02  1.0476515319746998e-01  1.8911646004906293e-01  9.5040621300342298e-02  9.0078991259585350e-02  4.6167874725959568e-02  2.8881043633862499e-02  6.4259233995487400e-02  9.4618545765598940e-03  7.8178000729675734e-02  1.2912125318782147e-01  5.1577989147839294e-02  5.1764817464571046e-02  2.9671878880032535e-02  4.4872233732639183e-02  2.4259305901788011e-02  2.8406715533029095e-03  1.1901916267986324e-02  2.6188597772670272e-02  5.2993794602231373e-03  1.5157186515991601e-04  7.0840728298090100e-03  1.0144026534577011e-03  1.2588816845637760e-03  2.3230034759986668e-04  6.3604343554302350e-04  1.0094860677474123e-03  3.5912709382949516e-04  1.5020723509626699e-04  6.1539141846013608e-04  1.7993648087435571e-03  3.4723653608056363e-04  1.3687569891520038e-03  4.4806504878152553e-03  1.1974578644974425e-03  1.0642811329312097e-03  2.0112013022039908e-03  3.4401310601757090e-03  1.2300168170442508e-02  9.3665714758745765e-03  8.0753127310266191e-04  3.1811508603643078e-03  2.1832404075475685e-03  2.3941764947158456e-03  2.1124907928532239e-03  1.3985348417340996e-03  2.1384596500695625e-03  3.4803314551921818e-03  3.5283476841516614e-03  2.5382741547627726e-03  1.7493115670449365e-03  1.1388930859928630e-03  9.5084997434919944e-04  6.1105540086719761e-04  2.2495274221011628e-04  6.2371231868532041e-05  2.8385108846680215e-06  3.2361919450023792e-05  3.2264360321861969e-05  1.3506349156566512e-05  7.1021784332543009e-06  7.2389272537629606e-06  8.9729713907717195e-08  -1.2037062152420224e-35  -6.2646908485251384e-19  4.9914030297342545e-02  4.6641461304534219e-02  6.1402607661553324e-02  2.9123799988393026e-02  4.2858306794727886e-02  5.6876848969448723e-02  6.2813088262486327e-02  6.6878910215482076e-02  4.0778326545013489e-02  1.8645583475446555e-03  7.4593691252912389e-02  1.1219271889341641e-01  1.1847249347931393e-01  1.0720448123452367e-01  2.7221869294251255e-01  8.3623387890203293e-02  1.0480172635975251e-02  1.3228158251555386e-01  1.7230272480418748e-02  1.0401170107722187e-01  9.8582234636955229e-02  6.9718365478398825e-02  5.5275171558948295e-02  4.7182043182174893e-02  4.3774146765062423e-02  3.5050244108189965e-02  6.7894114486632837e-02  3.0306719355107335e-02  4.2956252174464186e-02  2.7560454181611193e-02  1.1734445418973337e-01  1.2602891544207936e-01  7.8394584861056660e-02  1.6589134933962091e-01  4.3834384295950310e-02  3.1294332795275851e-03  2.1233621521063086e-02  8.8573726445501003e-02  1.1326470395535433e-01  1.5815436332176688e-01  1.8607329294372546e-01  4.9579702884912872e-03  4.7025624208096688e-02  6.3476754686710175e-03  4.8478542828564619e-02  4.0134135010372531e-02  3.5159563780561920e-03  4.0346611530429483e-02  3.5798308145472642e-02  3.2975260954953484e-02  3.3332856603524211e-02  3.3798081676700174e-03  9.8936703378228134e-03  5.5332665781868415e-03  4.1017741167979002e-02  4.2896758906003076e-03  5.9943798879732056e-03  3.1887222289908798e-03  5.6111317750193431e-03  1.9241258044380022e-03  2.0455818626026116e-03  9.4165200293125134e-04  2.1230985033202287e-03  1.8827760998559894e-04  1.4238841852136675e-04  1.6750932422274214e-04  1.2562497643218310e-03  1.7877492654703243e-03  3.9430887313268752e-04  3.6613095219296273e-03  4.2447714665223499e-03  1.5390708125117142e-03  4.2396112681373208e-04  1.2550517796627878e-03  9.2100519148299795e-03  1.4861717352343750e-02  3.8663853400995691e-03  4.6482109642421113e-03  3.4502201041339653e-03  2.0129410973241321e-03  2.3217259959073633e-03  1.4611587934725333e-03  1.4232674109879249e-03  3.0617011438968393e-03  4.0752355841375256e-03  3.2701129656565729e-03  2.0867688683666851e-03  1.3274329893235065e-03  9.6720824739205281e-04  8.5217988645621637e-04  4.0863776554245153e-04  1.1387854264924663e-04  2.7014183897391370e-05  1.2110738394103566e-05  3.4747198607441411e-05  1.9397343839889521e-05  8.3635744924934984e-06  7.5959998839422415e-06  1.0323681843559235e-05  -3.5673201937995880e-21  -3.5216009084382668e-18  1.2588371915789734e-01  9.3298230281122566e-02  1.6085296634584547e-02  1.4159871556564391e-01  1.2215445152380001e-01  2.3037492613594477e-02  1.4021835155719212e-02  4.1611964603372020e-02  8.2614085381286131e-02  6.1694605044607831e-02  1.9440410454419385e-01  2.2151010501639806e-01  4.5342635233474739e-02  1.3239497377011192e-01  2.1440349777599510e-02  1.0065021076606754e-02  2.7138008356175874e-01  1.5178190033058264e-02  6.8585289689114398e-02  1.3325316212727208e-02  1.5093902976774703e-01  2.0131164580555971e-01  2.6591115682833516e-01  2.4905209033674913e-01  8.0397065517852570e-02  3.4030213924399901e-02  8.1888446789844971e-02  2.0703167165695752e-01  1.6105450783909608e-01  5.8695717483784630e-03  1.3741365992159542e-02  1.3062801499307566e-01  1.9053609618077375e-01  1.0888826346273073e-01  5.2024441845861351e-03  1.0117685255603091e-01  2.9682618084957889e-02  7.8594237085404306e-02  1.3932602489060883e-01  1.9348362538733391e-01  7.8599042143384687e-02  1.3427393499061835e-01  2.3100285155180780e-02  7.7420294077058846e-02  5.7695813639081397e-02  2.2994429870702798e-02  1.0183262240314067e-01  1.5959276565558686e-01  7.1283069095882556e-02  7.5529405674483782e-02  5.8555568816699329e-02  6.5253276671775232e-02  3.4152261332163668e-02  2.7230050165865730e-03  1.0224023468163606e-02  4.1124665653082711e-02  1.2127239126147216e-02  3.7286944302213827e-03  8.8640268775716322e-03  4.2282045694035829e-04  1.0427964802141468e-03  2.0131407513042295e-04  5.4332646012760269e-04  1.7497079652435271e-03  5.7619180067113778e-04  3.8564622963891022e-04  6.1923130253429941e-04  2.0258985770895159e-03  4.8951666897562105e-04  6.8233096416539280e-04  5.6381432772137042e-03  1.5902984392830942e-03  2.5466475059571507e-03  2.5655722622229698e-03  2.9827498486633113e-03  1.5153878204633762e-02  1.2020243275515749e-02  2.9038090129309998e-03  5.8005021635196994e-03  2.5834838904732877e-03  1.9465247185112139e-03  1.9700359023487931e-03  1.0126029352445359e-03  2.1415816730086588e-03  4.0142418669378271e-03  4.0663571772992894e-03  2.6503278936077100e-03  1.6057332273769953e-03  9.9002678238074653e-04  9.1769849264679629e-04  6.5177262731885280e-04  2.1287006269507815e-04  4.0881211553643300e-05  1.6179732497215152e-06  2.7034794203310419e-05  2.7139823709906336e-05  5.0504920873614738e-06  8.7803575685289294e-07  5.4591025266585004e-06  2.2569491535787920e-36  -1.0324516404849896e-18  1.0474830836699692e-01  4.3708499789395082e-02  3.1720170386011312e-02  1.2641650603640053e-01  4.9472538214481873e-02  3.4442130074912460e-02  2.4737264021687362e-02  9.2116442026859160e-02  3.8515189421555664e-02  1.7771166972961876e-02  1.9717693327969524e-02  2.0445424991315873e-02  8.3417158417108239e-03  1.8066770745745489e-01  6.0704734569498979e-03  2.8300666874133101e-01  2.1442579613812174e-03  4.1982353800265805e-02  1.3081694301523750e-01  6.8987413320673718e-03  8.1256317220724808e-02  1.8890446268120822e-01  2.0346252290743973e-02  1.5651597329238123e-02  1.4780411489141732e-01  7.6422319291448826e-02  1.6533082246295897e-03  1.1163546483483014e-01  1.3304261074631676e-01  8.3596872698647615e-02  3.2936507266552902e-02  9.3267312694064394e-02  1.0491979290093832e-01  1.1048114136193780e-01  2.3262959517990403e-01  2.6149240550805655e-04  1.1298215565617371e-02  7.3284801650301641e-03  9.5196167051907227e-02  1.4223975447841514e-01  2.0249897109495135e-01  1.5250925538555346e-01  4.1876155648844027e-03  4.4595510031404779e-02  1.2377326884072368e-02  6.7776475709477702e-02  6.3791530745750863e-02  3.4336460938633157e-02  1.0279582810131442e-01  1.0366052698787711e-03  1.3325618511998347e-02  1.1854912203128105e-02  2.3370516830477698e-02  2.5442684396231253e-02  2.1872851801425790e-03  4.4192327792168341e-02  1.2698755803279074e-02  1.5159819973868536e-02  2.5193431741938471e-03  7.5243121023817394e-03  2.2884237651341391e-03  2.2903704434288981e-03  9.0346505067147981e-04  2.2693954323908250e-03  1.9862180020070719e-04  3.8407634449667702e-05  3.2877645306801041e-05  1.3064219612496817e-03  2.0593380466359516e-03  7.1707950964573156e-04  3.4813895535965541e-03  5.4176851815537245e-03  1.9252367686440094e-03  5.8698177762241230e-04  2.3225188149222690e-03  9.9401297867922917e-03  1.7923560332105227e-02  4.6328269620556327e-03  7.5663528886626766e-03  5.0122380323994690e-03  1.7016719359127096e-03  1.8639555063334316e-03  1.2637804044942731e-03  1.1087044089816858e-03  3.3367393667946433e-03  4.5978459666823198e-03  3.5624531200119150e-03  2.0030426077362815e-03  1.1362953946075008e-03  8.4515586234304961e-04  8.4027296466553645e-04  4.0900999796474302e-04  7.6849446023322790e-05  3.0958584880749190e-07  2.1769741242724275e-05  3.8662544786014989e-05  1.8691301566939915e-05  1.3190011049924744e-06  1.1140024025317907e-06  -6.1839555838925249e-23  2.3111159332646830e-33  4.8844768965030129e-02  4.4271105640186825e-02  1.6582612134407523e-02  1.0180194510299105e-01  6.9430704432379392e-02  1.4665847391382006e-01  3.0605478496185034e-03  5.7313702387424725e-02  6.5421452567033054e-03  9.5731591293905183e-02  4.0442222386352492e-02  1.4048969693027322e-01  1.8267683984468214e-01  2.4145780367003191e-03  3.2903697992337964e-02  4.2572262571340592e-02  1.0969882184019077e-01  2.3312868995262295e-01  9.5638016863107030e-03  5.4411043456155044e-02  1.7363704193387427e-03  8.0463022496738298e-02  1.1400169796938280e-01  2.3696051121683356e-01  2.1420237054360616e-01  4.2882534509255388e-02  3.5621380858896191e-02  4.9303955213650955e-02  1.3252401028301469e-01  1.2851775417154745e-01  2.4159995927260276e-02  6.2694344635867705e-02  1.4801594819111094e-01  2.3789841304464612e-01  5.6818259822286138e-02  8.9447730598397959e-02  9.7290132996047621e-02  1.5475749619857419e-02  9.8701640567561547e-02  1.5104547755007516e-01  1.8274477229413952e-01  1.0994113783344640e-01  1.4993278676677418e-01  1.6213360539390119e-02  1.0080281293411973e-01  4.5843022052311694e-02  1.6323582198698148e-02  1.1210184960325646e-01  1.3279995638312389e-01  3.0703668459538373e-02  5.9939674031215265e-02  5.9402649859737360e-02  6.1955129294174474e-02  2.5995850017181993e-02  7.5621131224498858e-03  1.2093963034286606e-02  4.9713422534105413e-02  1.1643624211814809e-02  1.0845659466780488e-02  9.5215846045009316e-03  5.8664839073110508e-04  6.6847522201627361e-04  3.9752668253843635e-04  5.0376385635761205e-04  1.9715622486583023e-03  5.4631021726039158e-04  3.3827740225472622e-04  6.3204566500741916e-04  2.0796222880900333e-03  8.6106929475893515e-04  1.1290530177255554e-04  6.0482256545020653e-03  2.4421565232950354e-03  3.3865422943027581e-03  2.2473787531026180e-03  2.0745925364589642e-03  1.6779347521897810e-02  1.4737131958343365e-02  3.6520840390011546e-03  8.6673665571871273e-03  3.4349522703510057e-03  1.3580371764045029e-03  1.5937432118331499e-03  6.5214755958489551e-04  1.9643978938887400e-03  4.4410902187996580e-03  4.5282815348207626e-03  2.8057088643560083e-03  1.4553627121515549e-03  8.1379132894407544e-04  8.3233060265557024e-04  6.4724997914672260e-04  1.9755637126963875e-04  5.1383436556457822e-06  2.1915622311792161e-05  4.1119597953365252e-05  3.8576725981246959e-05  1.3242162283645284e-05  3.2700578810961300e-06  1.7948396748021425e-21  5.7777898331617076e-34  8.0102780814738893e-03  1.9390507865418696e-02  3.9324063558403038e-02  6.6827409738222224e-02  4.1185374868617883e-02  1.2458861878705656e-01  9.3489057629838456e-03  8.3911488459440138e-03  7.3276834878465813e-02  2.4568522426230300e-02  4.3930522277523228e-03  2.2149823137621826e-02  3.2031435690252727e-02  9.1843690711829962e-02  1.1504938958447837e-01  2.9743251103897760e-02  