<?xml version="1.0"?>
<VTKFile type="UnstructuredGrid"  version="0.1"  >
<UnstructuredGrid>
<Piece  NumberOfPoints="10201" NumberOfCells="20000">
<Points>
<DataArray  type="Float64"  NumberOfComponents="3"  format="ascii">0 0 0  0.01 0 0  0.02 0 0  0.03 0 0  0.04 0 0  0.05 0 0  0.06 0 0  0.07000000000000001 0 0  0.08 0 0  0.09 0 0  0.1 0 0  0.11 0 0  0.12 0 0  0.13 0 0  0.14 0 0  0.15 0 0  0.16 0 0  0.17 0 0  0.18 0 0  0.19 0 0  0.2 0 0  0.21 0 0  0.22 0 0  0.23 0 0  0.24 0 0  0.25 0 0  0.26 0 0  0.27 0 0  0.28 0 0  0.29 0 0  0.3 0 0  0.31 0 0  0.32 0 0  0.33 0 0  0.34 0 0  0.35 0 0  0.36 0 0  0.37 0 0  0.38 0 0  0.39 0 0  0.4 0 0  0.41 0 0  0.42 0 0  0.43 0 0  0.44 0 0  0.45 0 0  0.46 0 0  0.47 0 0  0.48 0 0  0.49 0 0  0.5 0 0  0.51 0 0  0.52 0 0  0.53 0 0  0.54 0 0  0.55 0 0  0.5600000000000001 0 0  0.57 0 0  0.58 0 0  0.59 0 0  0.6 0 0  0.61 0 0  0.62 0 0  0.63 0 0  0.64 0 0  0.65 0 0  0.66 0 0  0.67 0 0  0.68 0 0  0.6899999999999999 0 0  0.7 0 0  0.71 0 0  0.72 0 0  0.73 0 0  0.74 0 0  0.75 0 0  0.76 0 0  0.77 0 0  0.78 0 0  0.79 0 0  0.8 0 0  0.8100000000000001 0 0  0.82 0 0  0.83 0 0  0.84 0 0  0.85 0 0  0.86 0 0  0.87 0 0  0.88 0 0  0.89 0 0  0.9 0 0  0.91 0 0  0.92 0 0  0.93 0 0  0.9399999999999999 0 0  0.95 0 0  0.96 0 0  0.97 0 0  0.98 0 0  0.99 0 0  1 0 0  0 0.01 0  0.01 0.01 0  0.02 0.01 0  0.03 0.01 0  0.04 0.01 0  0.05 0.01 0  0.06 0.01 0  0.07000000000000001 0.01 0  0.08 0.01 0  0.09 0.01 0  0.1 0.01 0  0.11 0.01 0  0.12 0.01 0  0.13 0.01 0  0.14 0.01 0  0.15 0.01 0  0.16 0.01 0  0.17 0.01 0  0.18 0.01 0  0.19 0.01 0  0.2 0.01 0  0.21 0.01 0  0.22 0.01 0  0.23 0.01 0  0.24 0.01 0  0.25 0.01 0  0.26 0.01 0  0.27 0.01 0  0.28 0.01 0  0.29 0.01 0  0.3 0.01 0  0.31 0.01 0  0.32 0.01 0  0.33 0.01 0  0.34 0.01 0  0.35 0.01 0  0.36 0.01 0  0.37 0.01 0  0.38 0.01 0  0.39 0.01 0  0.4 0.01 0  0.41 0.01 0  0.42 0.01 0  0.43 0.01 0  0.44 0.01 0  0.45 0.01 0  0.46 0.01 0  0.47 0.01 0  0.48 0.01 0  0.49 0.01 0  0.5 0.01 0  0.51 0.01 0  0.52 0.01 0  0.53 0.01 0  0.54 0.01 0  0.55 0.01 0  0.5600000000000001 0.01 0  0.57 0.01 0  0.58 0.01 0  0.59 0.01 0  0.6 0.01 0  0.61 0.01 0  0.62 0.01 0  0.63 0.01 0  0.64 0.01 0  0.65 0.01 0  0.66 0.01 0  0.67 0.01 0  0.68 0.01 0  0.6899999999999999 0.01 0  0.7 0.01 0  0.71 0.01 0  0.72 0.01 0  0.73 0.01 0  0.74 0.01 0  0.75 0.01 0  0.76 0.01 0  0.77 0.01 0  0.78 0.01 0  0.79 0.01 0  0.8 0.01 0  0.8100000000000001 0.01 0  0.82 0.01 0  0.83 0.01 0  0.84 0.01 0  0.85 0.01 0  0.86 0.01 0  0.87 0.01 0  0.88 0.01 0  0.89 0.01 0  0.9 0.01 0  0.91 0.01 0  0.92 0.01 0  0.93 0.01 0  0.9399999999999999 0.01 0  0.95 0.01 0  0.96 0.01 0  0.97 0.01 0  0.98 0.01 0  0.99 0.01 0  1 0.01 0  0 0.02 0  0.01 0.02 0  0.02 0.02 0  0.03 0.02 0  0.04 0.02 0  0.05 0.02 0  0.06 0.02 0  0.07000000000000001 0.02 0  0.08 0.02 0  0.09 0.02 0  0.1 0.02 0  0.11 0.02 0  0.12 0.02 0  0.13 0.02 0  0.14 0.02 0  0.15 0.02 0  0.16 0.02 0  0.17 0.02 0  0.18 0.02 0  0.19 0.02 0  0.2 0.02 0  0.21 0.02 0  0.22 0.02 0  0.23 0.02 0  0.24 0.02 0  0.25 0.02 0  0.26 0.02 0  0.27 0.02 0  0.28 0.02 0  0.29 0.02 0  0.3 0.02 0  0.31 0.02 0  0.32 0.02 0  0.33 0.02 0  0.34 0.02 0  0.35 0.02 0  0.36 0.02 0  0.37 0.02 0  0.38 0.02 0  0.39 0.02 0  0.4 0.02 0  0.41 0.02 0  0.42 0.02 0  0.43 0.02 0  0.44 0.02 0  0.45 0.02 0  0.46 0.02 0  0.47 0.02 0  0.48 0.02 0  0.49 0.02 0  0.5 0.02 0  0.51 0.02 0  0.52 0.02 0  0.53 0.02 0  0.54 0.02 0  0.55 0.02 0  0.5600000000000001 0.02 0  0.57 0.02 0  0.58 0.02 0  0.59 0.02 0  0.6 0.02 0  0.61 0.02 0  0.62 0.02 0  0.63 0.02 0  0.64 0.02 0  0.65 0.02 0  0.66 0.02 0  0.67 0.02 0  0.68 0.02 0  0.6899999999999999 0.02 0  0.7 0.02 0  0.71 0.02 0  0.72 0.02 0  0.73 0.02 0  0.74 0.02 0  0.75 0.02 0  0.76 0.02 0  0.77 0.02 0  0.78 0.02 0  0.79 0.02 0  0.8 0.02 0  0.8100000000000001 0.02 0  0.82 0.02 0  0.83 0.02 0  0.84 0.02 0  0.85 0.02 0  0.86 0.02 0  0.87 0.02 0  0.88 0.02 0  0.89 0.02 0  0.9 0.02 0  0.91 0.02 0  0.92 0.02 0  0.93 0.02 0  0.9399999999999999 0.02 0  0.95 0.02 0  0.96 0.02 0  0.97 0.02 0  0.98 0.02 0  0.99 0.02 0  1 0.02 0  0 0.03 0  0.01 0.03 0  0.02 0.03 0  0.03 0.03 0  0.04 0.03 0  0.05 0.03 0  0.06 0.03 0  0.07000000000000001 0.03 0  0.08 0.03 0  0.09 0.03 0  0.1 0.03 0  0.11 0.03 0  0.12 0.03 0  0.13 0.03 0  0.14 0.03 0  0.15 0.03 0  0.16 0.03 0  0.17 0.03 0  0.18 0.03 0  0.19 0.03 0  0.2 0.03 0  0.21 0.03 0  0.22 0.03 0  0.23 0.03 0  0.24 0.03 0  0.25 0.03 0  0.26 0.03 0  0.27 0.03 0  0.28 0.03 0  0.29 0.03 0  0.3 0.03 0  0.31 0.03 0  0.32 0.03 0  0.33 0.03 0  0.34 0.03 0  0.35 0.03 0  0.36 0.03 0  0.37 0.03 0  0.38 0.03 0  0.39 0.03 0  0.4 0.03 0  0.41 0.03 0  0.42 0.03 0  0.43 0.03 0  0.44 0.03 0  0.45 0.03 0  0.46 0.03 0  0.47 0.03 0  0.48 0.03 0  0.49 0.03 0  0.5 0.03 0  0.51 0.03 0  0.52 0.03 0  0.53 0.03 0  0.54 0.03 0  0.55 0.03 0  0.5600000000000001 0.03 0  0.57 0.03 0  0.58 0.03 0  0.59 0.03 0  0.6 0.03 0  0.61 0.03 0  0.62 0.03 0  0.63 0.03 0  0.64 0.03 0  0.65 0.03 0  0.66 0.03 0  0.67 0.03 0  0.68 0.03 0  0.6899999999999999 0.03 0  0.7 0.03 0  0.71 0.03 0  0.72 0.03 0  0.73 0.03 0  0.74 0.03 0  0.75 0.03 0  0.76 0.03 0  0.77 0.03 0  0.78 0.03 0  0.79 0.03 0  0.8 0.03 0  0.8100000000000001 0.03 0  0.82 0.03 0  0.83 0.03 0  0.84 0.03 0  0.85 0.03 0  0.86 0.03 0  0.87 0.03 0  0.88 0.03 0  0.89 0.03 0  0.9 0.03 0  0.91 0.03 0  0.92 0.03 0  0.93 0.03 0  0.9399999999999999 0.03 0  0.95 0.03 0  0.96 0.03 0  0.97 0.03 0  0.98 0.03 0  0.99 0.03 0  1 0.03 0  0 0.04 0  0.01 0.04 0  0.02 0.04 0  0.03 0.04 0  0.04 0.04 0  0.05 0.04 0  0.06 0.04 0  0.07000000000000001 0.04 0  0.08 0.04 0  0.09 0.04 0  0.1 0.04 0  0.11 0.04 0  0.12 0.04 0  0.13 0.04 0  0.14 0.04 0  0.15 0.04 0  0.16 0.04 0  0.17 0.04 0  0.18 0.04 0  0.19 0.04 0  0.2 0.04 0  0.21 0.04 0  0.22 0.04 0  0.23 0.04 0  0.24 0.04 0  0.25 0.04 0  0.26 0.04 0  0.27 0.04 0  0.28 0.04 0  0.29 0.04 0  0.3 0.04 0  0.31 0.04 0  0.32 0.04 0  0.33 0.04 0  0.34 0.04 0  0.35 0.04 0  0.36 0.04 0  0.37 0.04 0  0.38 0.04 0  0.39 0.04 0  0.4 0.04 0  0.41 0.04 0  0.42 0.04 0  0.43 0.04 0  0.44 0.04 0  0.45 0.04 0  0.46 0.04 0  0.47 0.04 0  0.48 0.04 0  0.49 0.04 0  0.5 0.04 0  0.51 0.04 0  0.52 0.04 0  0.53 0.04 0  0.54 0.04 0  0.55 0.04 0  0.5600000000000001 0.04 0  0.57 0.04 0  0.58 0.04 0  0.59 0.04 0  0.6 0.04 0  0.61 0.04 0  0.62 0.04 0  0.63 0.04 0  0.64 0.04 0  0.65 0.04 0  0.66 0.04 0  0.67 0.04 0  0.68 0.04 0  0.6899999999999999 0.04 0  0.7 0.04 0  0.71 0.04 0  0.72 0.04 0  0.73 0.04 0  0.74 0.04 0  0.75 0.04 0  0.76 0.04 0  0.77 0.04 0  0.78 0.04 0  0.79 0.04 0  0.8 0.04 0  0.8100000000000001 0.04 0  0.82 0.04 0  0.83 0.04 0  0.84 0.04 0  0.85 0.04 0  0.86 0.04 0  0.87 0.04 0  0.88 0.04 0  0.89 0.04 0  0.9 0.04 0  0.91 0.04 0  0.92 0.04 0  0.93 0.04 0  0.9399999999999999 0.04 0  0.95 0.04 0  0.96 0.04 0  0.97 0.04 0  0.98 0.04 0  0.99 0.04 0  1 0.04 0  0 0.05 0  0.01 0.05 0  0.02 0.05 0  0.03 0.05 0  0.04 0.05 0  0.05 0.05 0  0.06 0.05 0  0.07000000000000001 0.05 0  0.08 0.05 0  0.09 0.05 0  0.1 0.05 0  0.11 0.05 0  0.12 0.05 0  0.13 0.05 0  0.14 0.05 0  0.15 0.05 0  0.16 0.05 0  0.17 0.05 0  0.18 0.05 0  0.19 0.05 0  0.2 0.05 0  0.21 0.05 0  0.22 0.05 0  0.23 0.05 0  0.24 0.05 0  0.25 0.05 0  0.26 0.05 0  0.27 0.05 0  0.28 0.05 0  0.29 0.05 0  0.3 0.05 0  0.31 0.05 0  0.32 0.05 0  0.33 0.05 0  0.34 0.05 0  0.35 0.05 0  0.36 0.05 0  0.37 0.05 0  0.38 0.05 0  0.39 0.05 0  0.4 0.05 0  0.41 0.05 0  0.42 0.05 0  0.43 0.05 0  0.44 0.05 0  0.45 0.05 0  0.46 0.05 0  0.47 0.05 0  0.48 0.05 0  0.49 0.05 0  0.5 0.05 0  0.51 0.05 0  0.52 0.05 0  0.53 0.05 0  0.54 0.05 0  0.55 0.05 0  0.5600000000000001 0.05 0  0.57 0.05 0  0.58 0.05 0  0.59 0.05 0  0.6 0.05 0  0.61 0.05 0  0.62 0.05 0  0.63 0.05 0  0.64 0.05 0  0.65 0.05 0  0.66 0.05 0  0.67 0.05 0  0.68 0.05 0  0.6899999999999999 0.05 0  0.7 0.05 0  0.71 0.05 0  0.72 0.05 0  0.73 0.05 0  0.74 0.05 0  0.75 0.05 0  0.76 0.05 0  0.77 0.05 0  0.78 0.05 0  0.79 0.05 0  0.8 0.05 0  0.8100000000000001 0.05 0  0.82 0.05 0  0.83 0.05 0  0.84 0.05 0  0.85 0.05 0  0.86 0.05 0  0.87 0.05 0  0.88 0.05 0  0.89 0.05 0  0.9 0.05 0  0.91 0.05 0  0.92 0.05 0  0.93 0.05 0  0.9399999999999999 0.05 0  0.95 0.05 0  0.96 0.05 0  0.97 0.05 0  0.98 0.05 0  0.99 0.05 0  1 0.05 0  0 0.06 0  0.01 0.06 0  0.02 0.06 0  0.03 0.06 0  0.04 0.06 0  0.05 0.06 0  0.06 0.06 0  0.07000000000000001 0.06 0  0.08 0.06 0  0.09 0.06 0  0.1 0.06 0  0.11 0.06 0  0.12 0.06 0  0.13 0.06 0  0.14 0.06 0  0.15 0.06 0  0.16 0.06 0  0.17 0.06 0  0.18 0.06 0  0.19 0.06 0  0.2 0.06 0  0.21 0.06 0  0.22 0.06 0  0.23 0.06 0  0.24 0.06 0  0.25 0.06 0  0.26 0.06 0  0.27 0.06 0  0.28 0.06 0  0.29 0.06 0  0.3 0.06 0  0.31 0.06 0  0.32 0.06 0  0.33 0.06 0  0.34 0.06 0  0.35 0.06 0  0.36 0.06 0  0.37 0.06 0  0.38 0.06 0  0.39 0.06 0  0.4 0.06 0  0.41 0.06 0  0.42 0.06 0  0.43 0.06 0  0.44 0.06 0  0.45 0.06 0  0.46 0.06 0  0.47 0.06 0  0.48 0.06 0  0.49 0.06 0  0.5 0.06 0  0.51 0.06 0  0.52 0.06 0  0.53 0.06 0  0.54 0.06 0  0.55 0.06 0  0.5600000000000001 0.06 0  0.57 0.06 0  0.58 0.06 0  0.59 0.06 0  0.6 0.06 0  0.61 0.06 0  0.62 0.06 0  0.63 0.06 0  0.64 0.06 0  0.65 0.06 0  0.66 0.06 0  0.67 0.06 0  0.68 0.06 0  0.6899999999999999 0.06 0  0.7 0.06 0  0.71 0.06 0  0.72 0.06 0  0.73 0.06 0  0.74 0.06 0  0.75 0.06 0  0.76 0.06 0  0.77 0.06 0  0.78 0.06 0  0.79 0.06 0  0.8 0.06 0  0.8100000000000001 0.06 0  0.82 0.06 0  0.83 0.06 0  0.84 0.06 0  0.85 0.06 0  0.86 0.06 0  0.87 0.06 0  0.88 0.06 0  0.89 0.06 0  0.9 0.06 0  0.91 0.06 0  0.92 0.06 0  0.93 0.06 0  0.9399999999999999 0.06 0  0.95 0.06 0  0.96 0.06 0  0.97 0.06 0  0.98 0.06 0  0.99 0.06 0  1 0.06 0  0 0.07000000000000001 0  0.01 0.07000000000000001 0  0.02 0.07000000000000001 0  0.03 0.07000000000000001 0  0.04 0.07000000000000001 0  0.05 0.07000000000000001 0  0.06 0.07000000000000001 0  0.07000000000000001 0.07000000000000001 0  0.08 0.07000000000000001 0  0.09 0.07000000000000001 0  0.1 0.07000000000000001 0  0.11 0.07000000000000001 0  0.12 0.07000000000000001 0  0.13 0.07000000000000001 0  0.14 0.07000000000000001 0  0.15 0.07000000000000001 0  0.16 0.07000000000000001 0  0.17 0.0700
[...]
<PointData  Scalars="u"> 
<DataArray  type="Float64"  Name="u"  format="ascii">0.0000000000000000e+00  0.0000000000000000e+00  0.0000000000000000e+00  0.0000000000000000e+00  0.0000000000000000e+00  0.0000000000000000e+00  0.0000000000000000e+00  0.0000000000000000e+00  0.0000000000000000e+00  0.0000000000000000e+00  0.0000000000000000e+00  0.0000000000000000e+00  0.0000000000000000e+00  0.0000000000000000e+00  0.0000000000000000e+00  0.0000000000000000e+00  0.0000000000000000e+00  0.0000000000000000e+00  0.0000000000000000e+00  0.0000000000000000e+00  0.0000000000000000e+00  0.0000000000000000e+00  0.0000000000000000e+00  0.0000000000000000e+00  0.0000000000000000e+00  0.0000000000000000e+00  0.0000000000000000e+00  0.0000000000000000e+00  0.0000000000000000e+00  0.0000000000000000e+00  0.0000000000000000e+00  0.0000000000000000e+00  0.0000000000000000e+00  0.0000000000000000e+00  0.0000000000000000e+00  0.0000000000000000e+00  0.0000000000000000e+00  0.0000000000000000e+00  0.0000000000000000e+00  0.0000000000000000e+00  0.0000000000000000e+00  0.0000000000000000e+00  0.0000000000000000e+00  0.0000000000000000e+00  0.0000000000000000e+00  0.0000000000000000e+00  0.0000000000000000e+00  0.0000000000000000e+00  0.0000000000000000e+00  0.0000000000000000e+00  0.0000000000000000e+00  0.0000000000000000e+00  0.0000000000000000e+00  0.0000000000000000e+00  0.0000000000000000e+00  0.0000000000000000e+00  0.0000000000000000e+00  0.0000000000000000e+00  0.0000000000000000e+00  0.0000000000000000e+00  0.0000000000000000e+00  0.0000000000000000e+00  0.0000000000000000e+00  0.0000000000000000e+00  0.0000000000000000e+00  0.0000000000000000e+00  0.0000000000000000e+00  0.0000000000000000e+00  0.0000000000000000e+00  0.0000000000000000e+00  0.0000000000000000e+00  0.0000000000000000e+00  0.0000000000000000e+00  0.0000000000000000e+00  0.0000000000000000e+00  0.0000000000000000e+00  0.0000000000000000e+00  0.0000000000000000e+00  0.0000000000000000e+00  0.0000000000000000e+00  0.0000000000000000e+00  0.0000000000000000e+00  0.0000000000000000e+00  0.0000000000000000e+00  0.0000000000000000e+00  0.0000000000000000e+00  0.0000000000000000e+00  0.0000000000000000e+00  0.0000000000000000e+00  0.0000000000000000e+00  0.0000000000000000e+00  0.0000000000000000e+00  0.0000000000000000e+00  0.0000000000000000e+00  0.0000000000000000e+00  0.0000000000000000e+00  0.0000000000000000e+00  0.0000000000000000e+00  0.0000000000000000e+00  0.0000000000000000e+00  0.0000000000000000e+00  0.0000000000000000e+00  -1.4739221296526930e-02  -8.3377822874079160e-02  -2.1857454993983619e-02  -3.9508563916866621e-02  4.6003976224966499e-02  -3.2540140889548159e-02  -1.0048178724035722e-02  5.0957854780549018e-02  -9.1500832697932397e-02  1.1351640327800738e-02  9.3253603656718545e-02  -2.9499099031543085e-02  -1.3179701541635316e-01  6.3152138986737175e-02  -1.6579419052222554e-02  -6.5325005840636934e-04  1.1012484528138593e-02  -5.9448990439729670e-02  1.6975790242529767e-01  -1.0361053008093617e-01  7.8596685273444891e-02  -1.0503719909792256e-01  3.6288438707474266e-02  -1.1331512117749855e-02  8.7105066351362392e-02  -9.3240973107771338e-02  3.8241756107818915e-02  -2.0082796465860055e-02  -1.1816568212363928e-02  1.9065290339562412e-02  6.6582718612927264e-02  -1.0526478675717374e-01  2.3276929158020921e-02  -1.2172327001555927e-03  -1.2334557535743074e-02  3.6909144001685844e-02  2.2823663358056304e-02  5.9603265448073109e-02  7.9370904629853488e-03  -5.3187961595821245e-02  -3.4064467483540237e-02  -1.0449178350524894e-02  -2.0525015840775047e-02  -2.6043553611039779e-03  7.3729289319951319e-02  -7.0562499214933128e-02  3.2031898645951955e-02  -2.0009024884463111e-02  5.3091107114057786e-03  2.6719784530352579e-03  1.1090894132038349e-02  6.0792905034738496e-03  -3.8183095205577854e-02  2.7541274001740917e-02  -1.1621063312160720e-02  3.0527248888110408e-02  -3.0832017796341014e-02  2.3270613199443461e-02  -2.7476469407234545e-02  1.4324970441383316e-02  -1.9280447084227608e-03  -4.9410256847480481e-03  6.7497785737620454e-03  -6.9570545524758900e-04  1.1709374416666197e-03  1.7397239495155607e-03  -4.3315502173976311e-03  2.6973517956503305e-03  2.4682150607726718e-03  -1.5584080417380794e-03  -9.0603321110190266e-04  5.3337024434808346e-04  -3.5801321115801533e-03  -5.2636059381758037e-03  5.5795032144504591e-04  5.6193021166513965e-03  2.7397725186300201e-03  7.4446810389094530e-04  -1.3527584038973397e-03  1.8187824181746932e-04  -3.0042431987717839e-03  1.9394631620212464e-04  4.2083169680069603e-03  9.7991657264307115e-04  -1.6840365090269593e-03  -1.1308196352080087e-03  -8.9816076858742966e-04  1.9868812233803036e-03  -9.2695616163728271e-04  -1.5029437574393925e-03  5.6380106440548426e-04  -1.5444317895314962e-04  -3.8369692696338397e-04  2.0377720308998226e-04  2.2798427143837964e-04  2.5329348663038668e-04  2.9852685301280012e-04  1.8857354787355516e-04  -4.7588102561225984e-05  0.0000000000000000e+00  0.0000000000000000e+00  -1.7624300029648918e-02  -2.6976162183039384e-02  8.2081571985913829e-02  -2.8073976302228968e-02  -8.0319863862495011e-02  -3.7597442864281357e-02  9.7063463968841621e-02  -3.6659272525519197e-02  -1.4989370602226776e-01  2.1217388835376649e-01  -1.0447514704400328e-01  -1.1037185878755856e-01  2.0837581229653857e-01  -1.5444676763040702e-01  -1.6526557285549934e-01  1.2597983728674092e-01  -5.1578417654018931e-02  1.2062774225826570e-01  -3.9804540141799447e-02  -1.5984843996129750e-02  1.6533411896081601e-01  -1.6463204693684377e-01  -4.2993490358665218e-02  1.3865994235405230e-01  -4.4976635582399324e-02  -5.3521823389103766e-02  6.1934493444236190e-02  -1.6498229186954046e-02  3.0424176045681737e-02  -1.3805011573803486e-01  1.2557841802306766e-01  5.7039837423814223e-02  -8.9747244629591036e-02  -8.9926693157720936e-02  5.7133101527286331e-02  6.4906668982992757e-06  1.0569778849224781e-01  5.6152991222573848e-02  -1.0220811263477932e-02  5.5631091472326505e-02  -7.4998359826220967e-02  -1.2096159990334297e-01  2.4812328228035240e-03  1.8709317422921375e-02  3.7249481009405720e-02  -1.0528311944287855e-02  6.4129760274286634e-03  -3.6074042271549832e-02  2.3514355528541260e-02  -3.2875219109228832e-02  5.9588257077027897e-02  -2.5923160466280203e-02  6.8767158149722601e-03  -4.6512231782046755e-02  3.4296719432773036e-02  2.0169054604204036e-02  -6.5245702961698061e-03  -5.6150545097702030e-03  2.9121486529444301e-03  -2.8565198173239069e-02  3.1126990685198828e-02  -1.9993590013585718e-02  5.7819533550545468e-03  7.8369839481391198e-03  -4.1637613343354961e-03  7.3156260758802018e-03  -4.8537283580981977e-03  -2.5986675171121459e-03  7.1076324504646526e-03  1.2604550116766863e-03  -4.1974815029277978e-03  1.0146763127129982e-03  -1.7187220909612546e-03  -9.0963397842319105e-03  -6.7970409278773729e-03  8.0723022433509505e-03  7.9009629680595207e-03  3.4623735133683755e-03  -1.5662435607784258e-03  -1.4750494869690876e-03  -4.5200746811383495e-04  -6.3272800415625323e-03  6.0924206987260608e-03  6.2617099496323613e-03  -2.4871219628519220e-03  -1.2140230947483182e-03  -4.1916278477537516e-03  2.8223965519270466e-03  7.6679520074192538e-04  -2.7374539432368167e-03  -1.2566769434384632e-03  1.4457931738368595e-03  -2.2930768371685435e-03  1.1738645049976378e-03  -6.3115365660627312e-04  5.1945950021490238e-04  3.4790166544184628e-04  4.5649400654115943e-04  4.3280698331674865e-04  0.0000000000000000e+00  0.0000000000000000e+00  7.3603149672065937e-02  7.1586150313672367e-02  -1.8940961009000032e-01  8.5482134854605346e-02  -2.2838140175613130e-03  1.0837181153912542e-01  -1.4110496674030837e-01  5.9396699027684838e-02  1.1584397899913089e-01  -3.5519525193594442e-01  2.3076604064601147e-01  1.8349921852320081e-01  -2.7030401971659690e-01  -1.4898482120188353e-01  2.0521085244735165e-01  -1.9288112710160377e-01  2.8223453009620210e-02  -1.9064380896866229e-02  -2.6666051292169823e-02  4.0547046995817126e-01  -3.6933487799649756e-01  3.1308118189134931e-01  -3.5061522300443365e-01  8.2419481482461601e-02  7.3232185457253185e-02  1.8470965234468484e-01  -3.2253482899752073e-01  1.5493908227058897e-01  -4.7527381397438340e-02  2.9878116157836594e-02  -4.6077047406960489e-02  1.6628417621302255e-01  -2.1502172082767820e-01  8.9269148036470292e-02  -7.6493131104361761e-02  -1.7703307552260666e-02  8.1948528944198448e-02  1.0494943720113903e-01  1.6580613420476611e-01  -4.0793554080034801e-02  -9.3560901232734098e-02  -5.9360992707918871e-02  -7.7364239609075056e-02  -5.5217314773093565e-02  2.6247843409211484e-02  1.9334803171265219e-01  -2.0545543083885978e-01  1.1114290827235511e-01  -7.8238163847735187e-02  3.4257434129302107e-02  -1.9591759463309360e-02  5.8622575048496689e-02  -6.5857042437080394e-03  -8.1452653155069069e-02  5.0502168523586265e-02  -2.2282509655481897e-02  8.6023432711896941e-02  -8.4825370514552828e-02  6.1145487461835256e-02  -6.6478694789619860e-02  2.5481681205719392e-02  7.4287825499040182e-03  -2.0264035539917784e-02  1.8954612307171669e-02  4.8076028835163846e-04  8.3390204711150808e-05  7.3709619094716079e-03  -1.2338082444677755e-02  5.8524300226115338e-03  8.2885813020393412e-03  -3.1887509251924367e-03  -3.6540373968001463e-03  2.2296477773198430e-03  -8.2490286826034896e-03  -1.4451500247741774e-02  -5.9189802267442060e-04  1.6439486667770651e-02  7.9545977058548562e-03  2.2807109518134206e-03  -4.3576407752478844e-03  -1.0021266049830176e-04  -6.3891527084738676e-03  -1.9889203269265036e-03  1.2003548213766296e-02  4.0435244811962761e-03  -5.5719826143768476e-03  -2.2897814552010039e-03  -3.9513329705208391e-03  6.0413788958735897e-03  -2.3418020673276478e-03  -4.5188701575338353e-03  9.2798748105510972e-04  1.9938951485904091e-04  -2.3909155548039367e-03  9.2357546182084062e-04  -1.9132109892165171e-04  2.7193959361659968e-04  3.3916478301536444e-04  2.2962866980942801e-04  0.0000000000000000e+00  0.0000000000000000e+00  -9.7453949151351443e-02  -8.0755622754968226e-02  9.7183904938425394e-02  7.5263345905485973e-02  -4.9744007598378846e-02  -1.1107190670679364e-01  9.0937135952927517e-02  1.1825355524533478e-01  -5.5590503103798941e-02  -9.4253751687254458e-02  1.4130011996662495e-01  -1.4083078053026324e-01  5.4237923799184296e-02  2.2545965079212377e-01  -4.5573620171777102e-01  -9.4693402060953835e-02  1.9876320297775052e-01  -7.5774728621694432e-02  1.3303919616840595e-01  -1.5489224519278671e-01  2.4740109172473509e-01  8.0448686166539829e-02  -1.3766738025322584e-01  -1.9501872025035077e-01  2.1122283297276612e-01  -7.7088802045619409e-02  8.3202150230335351e-02  -4.4712292135788319e-02  1.5311791001315495e-03  -3.1948935200961843e-03  -1.8173799908728644e-01  2.2787312549288979e-01  1.4626250664735169e-01  -2.9815367993502356e-01  -7.2134489045236047e-02  1.0216282520599161e-01  -1.8197300178568673e-02  1.7501630528601425e-01  9.2054858533095488e-02  7.8241527836349190e-02  8.2216683994086867e-02  -1.9728734983301610e-01  -1.9763495399106074e-01  1.4491579448575440e-02  -3.2192573822324004e-03  4.6100857849125321e-02  9.4773500359915594e-02  -8.9264861048039268e-02  -6.4652465143625673e-03  8.0290024251479970e-03  -3.3962627170694509e-02  8.1228736428953591e-02  -2.1753819655194379e-02  1.7003170692287867e-02  -1.1326854051575505e-01  8.5477416342940774e-02  9.4948888802730540e-03  3.0360632197778993e-02  -4.8529441477707325e-02  3.4573197557446117e-02  -7.2741956481839870e-02  6.1419713743273874e-02  -3.0208504129206011e-02  2.5160139285262157e-03  1.9163887855982251e-02  -6.7450651040323771e-03  1.1260697603177683e-02  -4.8195400101880819e-03  -8.5707286013054409e-03  1.3243058983523581e-02  4.7491039404957821e-03  -7.5507772925843646e-03  5.1835935537428504e-04  -1.3222510205028286e-03  -1.6474182030995363e-02  -1.4956052536346897e-02  1.2709840224205472e-02  1.8311745727498621e-02  7.7738855862164802e-03  -1.7149414322507762e-03  -4.0233173755788894e-03  -6.4884164029993540e-04  -1.2091319535510870e-02  8.9454493154840359e-03  1.3605877882662149e-02  -2.5680030217323456e-03  -4.2766679450204105e-03  -7.0201607681254713e-03  2.8351310762569949e-03  3.3696845511669376e-03  -5.0472492306332514e-03  -3.6259960307880312e-03  2.4168579367918100e-03  -3.4239404348123019e-03  8.0198391555806050e-04  -1.0755660003436715e-03  4.9617600395423719e-04  1.6120945859564865e-04  2.5082044900039834e-04  0.0000000000000000e+00  0.0000000000000000e+00  2.2293311879271044e-01  1.5770348046291968e-01  -2.8440790904679471e-02  -2.3799226623120520e-01  2.2612132854226125e-01  2.8093398028263359e-02  4.6352245748322612e-02  -1.6248931565507754e-01  1.8425696448115275e-01  1.0017590149548848e-01  -4.4822163195179787e-01  4.5579766367075497e-01  7.1084299184075883e-02  -3.7185688896892449e-01  7.2429611221877271e-02  8.6878298880013430e-02  -3.8280921892089770e-01  1.2616337302361494e-01  -9.0354646188207464e-03  1.0274630481862715e-01  3.5764790345711650e-01  -4.1874941323076348e-01  4.6765281041035595e-01  -4.9715186006243384e-01  7.3759846257378026e-02  1.8906827051182681e-01  1.1837825231672790e-01  -3.9219212809375814e-01  2.4133881234797339e-01  -4.0454452739500761e-02  3.0710976707000456e-02  -1.8215476554884491e-01  2.8042430017916614e-01  -1.5125417672727612e-01  1.6761344794801826e-02  -1.7923975310908905e-01  2.2932940083468131e-02  1.1273007341556222e-01  2.1302873278988421e-01  2.0695309271422824e-01  -6.1342288281324875e-02  -4.5661498252457425e-02  -1.2700465781629283e-01  -1.9800664465741011e-01  -5.6727856792857384e-02  5.9459799705529483e-02  2.3049711146658947e-01  -2.2478589341192379e-01  1.2720390072529245e-01  -1.1135193271772062e-01  5.4499592466796372e-02  -4.1405162092597120e-02  1.0882245782202273e-01  -2.7650494035743042e-02  -8.1763243900974406e-02  1.7032477963996873e-02  5.3507294431480853e-03  1.0722280343509215e-01  -9.4931204244820822e-02  6.0299461740227538e-02  -6.9441970396699235e-02  6.5841161722039430e-03  3.0831569253260225e-02  -3.6288593751853435e-02  2.5380631691153118e-02  6.8099281650282981e-03  -2.4415841222884009e-03  1.3404415568337784e-02  -1.6823010819887744e-02  4.7503930723545506e-03  1.4660483110913966e-02  -2.3719893720924269e-03  -6.9879797342979645e-03  3.2086573229498697e-03  -1.0282474337128412e-02  -2.2875192735954411e-02  -5.2932633447799532e-03  2.4974835218815848e-02  1.5702556245684736e-02  5.4274286928372977e-03  -5.8386763496520175e-03  -1.2611014251559909e-03  -7.5816222613666754e-03  -6.6146205271340932e-03  1.8099572023184914e-02  9.1781651555612569e-03  -7.8088183862872881e-03  -3.9865900583369454e-03  -7.3722548863433893e-03  8.3948290413263654e-03  -2.1438651643541280e-03  -7.1373738963394955e-03  8.4490590761191430e-05  8.8284533289372576e-04  -4.3735136952128412e-03  1.5365673785624760e-03  -9.6011887915467217e-04  2.0720857055755998e-04  1.2682146810127833e-04  0.0000000000000000e+00  0.0000000000000000e+00  -2.1015437378249011e-01  -1.0544100490603259e-01  6.0085998098847807e-02  2.1181686319690488e-01  -6.5836373996923117e-02  -3.5216662383484094e-02  -6.6128795363111378e-02  1.8001843550539326e-01  4.1579335766616397e-02  7.6160712932964517e-03  -4.7308855956335334e-02  -7.3180408340043315e-02  7.8032222377176885e-02  1.7720651670886495e-01  -3.4271893391103862e-03  -4.9513238302833174e-01  5.9926788897445703e-02  9.4476813301705903e-02  -7.6498270814259597e-02  6.8079608024781357e-02  -7.7368948422171555e-02  4.7483703895195778e-01  -1.1561455772998357e-01  4.9760040605634518e-03  -4.0435607529108542e-01  2.4811526143359730e-01  3.1942128618873356e-02  1.6905756751379886e-01  -2.4790480375175514e-01  6.2260013222215818e-02  -2.0898268715666038e-02  -1.2265091509252950e-01  1.9990897703520510e-01  1.9043079180029329e-01  -4.1060718340986513e-01  -3.7889811183923518e-03  5.8593260042566153e-02  -2.9135872627492881e-02  2.0518312199793881e-01  1.8107098947817116e-01  1.8746425478691181e-01  3.4300908784349521e-02  -2.5700475712394022e-01  -2.2358268297532899e-01  -3.9221900641673718e-02  -4.3252572670552582e-02  7.9722017545435231e-02  1.9007505108427863e-01  -1.9648440750352492e-01  5.2396197907848795e-02  -3.6167961131161205e-02  -7.3412708877418241e-03  6.5581525100347191e-02  1.9604533152236436e-02  2.1065798177193891e-03  -1.4497799923033791e-01  1.0222949150533138e-01  8.3078142738649500e-03  7.0648000945207762e-02  -8.7631691126186531e-02  6.0591232009650449e-02  -1.0146671220530452e-01  7.0148792516299713e-02  -2.3770528304212796e-02  -8.4258145133654198e-03  2.9568774505267868e-02  -5.1408748826919188e-03  1.1375006697480835e-02  -9.3118190666113354e-04  -1.4193624754354692e-02  1.6488893767255326e-02  9.8473512364666144e-03  -8.7829007179541195e-03  -1.4952713683666255e-03  -2.9714149834749164e-04  -2.1329933502851204e-02  -2.2897307088397899e-02  1.3079185352134096e-02  2.8677487703486840e-02  1.3192716196875542e-02  -2.4211052501560149e-04  -6.1970908568410778e-03  -1.1953704233982913e-03  -1.4911903459394363e-02  8.0959625933255796e-03  2.0843984167025528e-02  -1.1524342825225907e-04  -7.4822149686738547e-03  -8.2413284358745405e-03  9.1980018432057890e-04  6.3367426565011748e-03  -6.5312971514975568e-03  -6.2181115202787542e-03  2.5525440577690742e-03  -3.3245116644291749e-03  -7.6529577257928607e-04  -6.9282475822472235e-04  6.5923557681723784e-05  3.5337029969538479e-05  0.0000000000000000e+00  0.0000000000000000e+00  1.0168259539731446e-01  7.0466899173231817e-02  -6.0464140386134409e-02  -1.9677736025018064e-01  -1.2344528422912357e-01  2.7075951804599735e-01  3.2694891637959135e-03  -5.4984345421478259e-02  -8.5071562440041826e-02  2.0911617909442035e-01  7.5739056451448086e-02  -3.7171475073218863e-01  3.8344330550784106e-01  1.0494701787707046e-02  -2.1530894460591812e-01  1.1601911577106473e-01  -1.7790744420716598e-01  -3.4787414776001030e-01  1.8922976462718610e-01  3.7086531959923452e-02  1.2044998526192767e-01  2.1760804343655149e-01  -1.8362100059945927e-01  4.0477408570051776e-01  -4.4089183337851690e-01  -5.3019482873696538e-02  2.3440233561389046e-01  6.5320995559168205e-02  -2.5789238849704987e-01  1.7448466369054427e-01  -7.3900688773963783e-03  -4.3981234659158465e-02  -2.2256543345156782e-01  3.7958005644300369e-01  -4.7560832796059736e-02  -1.7962803515299333e-01  -1.8654819524509950e-01  5.7754653181317214e-02  1.3228295565539447e-01  2.8267994059460344e-01  2.2378017776368886e-01  1.4156745792284714e-02  -1.8174257488778458e-02  -2.3628189180883602e-01  -2.7752615075459708e-01  -5.0793885988976523e-02  5.4710363434788224e-02  2.3196139181187672e-01  -1.3570989793412838e-01  3.9758026541009468e-02  -8.0963390055046686e-02  3.3295711711013087e-02  -3.1563032551539444e-02  1.2166855919477157e-01  -2.1200124375932758e-02  -7.7369453885102371e-02  -3.4755686559171675e-02  4.9459630900230263e-02  9.8191601257835187e-02  -6.1968530202904056e-02  2.3058450977550837e-02  -4.3555115583459994e-02  -2.6646262925990555e-02  5.3180616821114551e-02  -4.3037053366476806e-02  2.3025568156366874e-02  1.6455464313110131e-02  -3.3844378097944525e-03  1.6385428883334295e-02  -1.6413025819791961e-02  7.7569573421480979e-04  2.0039718541272292e-02  7.3004804837884006e-04  -9.2758268920422361e-03  2.6812915263882912e-03  -1.0319914305345417e-02  -2.9563720341997252e-02  -1.1408840350509731e-02  2.9835227653834763e-02  2.5681110097603002e-02  9.5002809219017961e-03  -5.6190728957101060e-03  -3.2135921932014183e-03  -8.0465138305551940e-03  -1.0345646999079666e-02  2.1028796490910939e-02  1.5557139354899835e-02  -7.5331678049312262e-03  -7.0137668611294840e-03  -8.9778255003522562e-03  8.5995802736687308e-03  1.0238370959484283e-04  -8.9756345437339881e-03  -1.6003090971116359e-03  1.2403529604307576e-03  -5.1574124448913470e-03  9.9242442888912061e-04  -1.1626864122138397e-03  6.7563117117247612e-05  0.0000000000000000e+00  0.0000000000000000e+00  -4.1090376470933124e-02  2.6838549002307355e-02  5.3362368621705493e-02  1.2668792490301095e-01  5.0555009991341215e-02  -2.2111919566682822e-01  4.357457599273