<?xml version="1.0"?>
<VTKFile type="UnstructuredGrid"  version="0.1"  >
<UnstructuredGrid>
<Piece  NumberOfPoints="10201" NumberOfCells="20000">
<Points>
<DataArray  type="Float64"  NumberOfComponents="3"  format="ascii">0 0 0  0.01 0 0  0.02 0 0  0.03 0 0  0.04 0 0  0.05 0 0  0.06 0 0  0.07000000000000001 0 0  0.08 0 0  0.09 0 0  0.1 0 0  0.11 0 0  0.12 0 0  0.13 0 0  0.14 0 0  0.15 0 0  0.16 0 0  0.17 0 0  0.18 0 0  0.19 0 0  0.2 0 0  0.21 0 0  0.22 0 0  0.23 0 0  0.24 0 0  0.25 0 0  0.26 0 0  0.27 0 0  0.28 0 0  0.29 0 0  0.3 0 0  0.31 0 0  0.32 0 0  0.33 0 0  0.34 0 0  0.35 0 0  0.36 0 0  0.37 0 0  0.38 0 0  0.39 0 0  0.4 0 0  0.41 0 0  0.42 0 0  0.43 0 0  0.44 0 0  0.45 0 0  0.46 0 0  0.47 0 0  0.48 0 0  0.49 0 0  0.5 0 0  0.51 0 0  0.52 0 0  0.53 0 0  0.54 0 0  0.55 0 0  0.5600000000000001 0 0  0.57 0 0  0.58 0 0  0.59 0 0  0.6 0 0  0.61 0 0  0.62 0 0  0.63 0 0  0.64 0 0  0.65 0 0  0.66 0 0  0.67 0 0  0.68 0 0  0.6899999999999999 0 0  0.7 0 0  0.71 0 0  0.72 0 0  0.73 0 0  0.74 0 0  0.75 0 0  0.76 0 0  0.77 0 0  0.78 0 0  0.79 0 0  0.8 0 0  0.8100000000000001 0 0  0.82 0 0  0.83 0 0  0.84 0 0  0.85 0 0  0.86 0 0  0.87 0 0  0.88 0 0  0.89 0 0  0.9 0 0  0.91 0 0  0.92 0 0  0.93 0 0  0.9399999999999999 0 0  0.95 0 0  0.96 0 0  0.97 0 0  0.98 0 0  0.99 0 0  1 0 0  0 0.01 0  0.01 0.01 0  0.02 0.01 0  0.03 0.01 0  0.04 0.01 0  0.05 0.01 0  0.06 0.01 0  0.07000000000000001 0.01 0  0.08 0.01 0  0.09 0.01 0  0.1 0.01 0  0.11 0.01 0  0.12 0.01 0  0.13 0.01 0  0.14 0.01 0  0.15 0.01 0  0.16 0.01 0  0.17 0.01 0  0.18 0.01 0  0.19 0.01 0  0.2 0.01 0  0.21 0.01 0  0.22 0.01 0  0.23 0.01 0  0.24 0.01 0  0.25 0.01 0  0.26 0.01 0  0.27 0.01 0  0.28 0.01 0  0.29 0.01 0  0.3 0.01 0  0.31 0.01 0  0.32 0.01 0  0.33 0.01 0  0.34 0.01 0  0.35 0.01 0  0.36 0.01 0  0.37 0.01 0  0.38 0.01 0  0.39 0.01 0  0.4 0.01 0  0.41 0.01 0  0.42 0.01 0  0.43 0.01 0  0.44 0.01 0  0.45 0.01 0  0.46 0.01 0  0.47 0.01 0  0.48 0.01 0  0.49 0.01 0  0.5 0.01 0  0.51 0.01 0  0.52 0.01 0  0.53 0.01 0  0.54 0.01 0  0.55 0.01 0  0.5600000000000001 0.01 0  0.57 0.01 0  0.58 0.01 0  0.59 0.01 0  0.6 0.01 0  0.61 0.01 0  0.62 0.01 0  0.63 0.01 0  0.64 0.01 0  0.65 0.01 0  0.66 0.01 0  0.67 0.01 0  0.68 0.01 0  0.6899999999999999 0.01 0  0.7 0.01 0  0.71 0.01 0  0.72 0.01 0  0.73 0.01 0  0.74 0.01 0  0.75 0.01 0  0.76 0.01 0  0.77 0.01 0  0.78 0.01 0  0.79 0.01 0  0.8 0.01 0  0.8100000000000001 0.01 0  0.82 0.01 0  0.83 0.01 0  0.84 0.01 0  0.85 0.01 0  0.86 0.01 0  0.87 0.01 0  0.88 0.01 0  0.89 0.01 0  0.9 0.01 0  0.91 0.01 0  0.92 0.01 0  0.93 0.01 0  0.9399999999999999 0.01 0  0.95 0.01 0  0.96 0.01 0  0.97 0.01 0  0.98 0.01 0  0.99 0.01 0  1 0.01 0  0 0.02 0  0.01 0.02 0  0.02 0.02 0  0.03 0.02 0  0.04 0.02 0  0.05 0.02 0  0.06 0.02 0  0.07000000000000001 0.02 0  0.08 0.02 0  0.09 0.02 0  0.1 0.02 0  0.11 0.02 0  0.12 0.02 0  0.13 0.02 0  0.14 0.02 0  0.15 0.02 0  0.16 0.02 0  0.17 0.02 0  0.18 0.02 0  0.19 0.02 0  0.2 0.02 0  0.21 0.02 0  0.22 0.02 0  0.23 0.02 0  0.24 0.02 0  0.25 0.02 0  0.26 0.02 0  0.27 0.02 0  0.28 0.02 0  0.29 0.02 0  0.3 0.02 0  0.31 0.02 0  0.32 0.02 0  0.33 0.02 0  0.34 0.02 0  0.35 0.02 0  0.36 0.02 0  0.37 0.02 0  0.38 0.02 0  0.39 0.02 0  0.4 0.02 0  0.41 0.02 0  0.42 0.02 0  0.43 0.02 0  0.44 0.02 0  0.45 0.02 0  0.46 0.02 0  0.47 0.02 0  0.48 0.02 0  0.49 0.02 0  0.5 0.02 0  0.51 0.02 0  0.52 0.02 0  0.53 0.02 0  0.54 0.02 0  0.55 0.02 0  0.5600000000000001 0.02 0  0.57 0.02 0  0.58 0.02 0  0.59 0.02 0  0.6 0.02 0  0.61 0.02 0  0.62 0.02 0  0.63 0.02 0  0.64 0.02 0  0.65 0.02 0  0.66 0.02 0  0.67 0.02 0  0.68 0.02 0  0.6899999999999999 0.02 0  0.7 0.02 0  0.71 0.02 0  0.72 0.02 0  0.73 0.02 0  0.74 0.02 0  0.75 0.02 0  0.76 0.02 0  0.77 0.02 0  0.78 0.02 0  0.79 0.02 0  0.8 0.02 0  0.8100000000000001 0.02 0  0.82 0.02 0  0.83 0.02 0  0.84 0.02 0  0.85 0.02 0  0.86 0.02 0  0.87 0.02 0  0.88 0.02 0  0.89 0.02 0  0.9 0.02 0  0.91 0.02 0  0.92 0.02 0  0.93 0.02 0  0.9399999999999999 0.02 0  0.95 0.02 0  0.96 0.02 0  0.97 0.02 0  0.98 0.02 0  0.99 0.02 0  1 0.02 0  0 0.03 0  0.01 0.03 0  0.02 0.03 0  0.03 0.03 0  0.04 0.03 0  0.05 0.03 0  0.06 0.03 0  0.07000000000000001 0.03 0  0.08 0.03 0  0.09 0.03 0  0.1 0.03 0  0.11 0.03 0  0.12 0.03 0  0.13 0.03 0  0.14 0.03 0  0.15 0.03 0  0.16 0.03 0  0.17 0.03 0  0.18 0.03 0  0.19 0.03 0  0.2 0.03 0  0.21 0.03 0  0.22 0.03 0  0.23 0.03 0  0.24 0.03 0  0.25 0.03 0  0.26 0.03 0  0.27 0.03 0  0.28 0.03 0  0.29 0.03 0  0.3 0.03 0  0.31 0.03 0  0.32 0.03 0  0.33 0.03 0  0.34 0.03 0  0.35 0.03 0  0.36 0.03 0  0.37 0.03 0  0.38 0.03 0  0.39 0.03 0  0.4 0.03 0  0.41 0.03 0  0.42 0.03 0  0.43 0.03 0  0.44 0.03 0  0.45 0.03 0  0.46 0.03 0  0.47 0.03 0  0.48 0.03 0  0.49 0.03 0  0.5 0.03 0  0.51 0.03 0  0.52 0.03 0  0.53 0.03 0  0.54 0.03 0  0.55 0.03 0  0.5600000000000001 0.03 0  0.57 0.03 0  0.58 0.03 0  0.59 0.03 0  0.6 0.03 0  0.61 0.03 0  0.62 0.03 0  0.63 0.03 0  0.64 0.03 0  0.65 0.03 0  0.66 0.03 0  0.67 0.03 0  0.68 0.03 0  0.6899999999999999 0.03 0  0.7 0.03 0  0.71 0.03 0  0.72 0.03 0  0.73 0.03 0  0.74 0.03 0  0.75 0.03 0  0.76 0.03 0  0.77 0.03 0  0.78 0.03 0  0.79 0.03 0  0.8 0.03 0  0.8100000000000001 0.03 0  0.82 0.03 0  0.83 0.03 0  0.84 0.03 0  0.85 0.03 0  0.86 0.03 0  0.87 0.03 0  0.88 0.03 0  0.89 0.03 0  0.9 0.03 0  0.91 0.03 0  0.92 0.03 0  0.93 0.03 0  0.9399999999999999 0.03 0  0.95 0.03 0  0.96 0.03 0  0.97 0.03 0  0.98 0.03 0  0.99 0.03 0  1 0.03 0  0 0.04 0  0.01 0.04 0  0.02 0.04 0  0.03 0.04 0  0.04 0.04 0  0.05 0.04 0  0.06 0.04 0  0.07000000000000001 0.04 0  0.08 0.04 0  0.09 0.04 0  0.1 0.04 0  0.11 0.04 0  0.12 0.04 0  0.13 0.04 0  0.14 0.04 0  0.15 0.04 0  0.16 0.04 0  0.17 0.04 0  0.18 0.04 0  0.19 0.04 0  0.2 0.04 0  0.21 0.04 0  0.22 0.04 0  0.23 0.04 0  0.24 0.04 0  0.25 0.04 0  0.26 0.04 0  0.27 0.04 0  0.28 0.04 0  0.29 0.04 0  0.3 0.04 0  0.31 0.04 0  0.32 0.04 0  0.33 0.04 0  0.34 0.04 0  0.35 0.04 0  0.36 0.04 0  0.37 0.04 0  0.38 0.04 0  0.39 0.04 0  0.4 0.04 0  0.41 0.04 0  0.42 0.04 0  0.43 0.04 0  0.44 0.04 0  0.45 0.04 0  0.46 0.04 0  0.47 0.04 0  0.48 0.04 0  0.49 0.04 0  0.5 0.04 0  0.51 0.04 0  0.52 0.04 0  0.53 0.04 0  0.54 0.04 0  0.55 0.04 0  0.5600000000000001 0.04 0  0.57 0.04 0  0.58 0.04 0  0.59 0.04 0  0.6 0.04 0  0.61 0.04 0  0.62 0.04 0  0.63 0.04 0  0.64 0.04 0  0.65 0.04 0  0.66 0.04 0  0.67 0.04 0  0.68 0.04 0  0.6899999999999999 0.04 0  0.7 0.04 0  0.71 0.04 0  0.72 0.04 0  0.73 0.04 0  0.74 0.04 0  0.75 0.04 0  0.76 0.04 0  0.77 0.04 0  0.78 0.04 0  0.79 0.04 0  0.8 0.04 0  0.8100000000000001 0.04 0  0.82 0.04 0  0.83 0.04 0  0.84 0.04 0  0.85 0.04 0  0.86 0.04 0  0.87 0.04 0  0.88 0.04 0  0.89 0.04 0  0.9 0.04 0  0.91 0.04 0  0.92 0.04 0  0.93 0.04 0  0.9399999999999999 0.04 0  0.95 0.04 0  0.96 0.04 0  0.97 0.04 0  0.98 0.04 0  0.99 0.04 0  1 0.04 0  0 0.05 0  0.01 0.05 0  0.02 0.05 0  0.03 0.05 0  0.04 0.05 0  0.05 0.05 0  0.06 0.05 0  0.07000000000000001 0.05 0  0.08 0.05 0  0.09 0.05 0  0.1 0.05 0  0.11 0.05 0  0.12 0.05 0  0.13 0.05 0  0.14 0.05 0  0.15 0.05 0  0.16 0.05 0  0.17 0.05 0  0.18 0.05 0  0.19 0.05 0  0.2 0.05 0  0.21 0.05 0  0.22 0.05 0  0.23 0.05 0  0.24 0.05 0  0.25 0.05 0  0.26 0.05 0  0.27 0.05 0  0.28 0.05 0  0.29 0.05 0  0.3 0.05 0  0.31 0.05 0  0.32 0.05 0  0.33 0.05 0  0.34 0.05 0  0.35 0.05 0  0.36 0.05 0  0.37 0.05 0  0.38 0.05 0  0.39 0.05 0  0.4 0.05 0  0.41 0.05 0  0.42 0.05 0  0.43 0.05 0  0.44 0.05 0  0.45 0.05 0  0.46 0.05 0  0.47 0.05 0  0.48 0.05 0  0.49 0.05 0  0.5 0.05 0  0.51 0.05 0  0.52 0.05 0  0.53 0.05 0  0.54 0.05 0  0.55 0.05 0  0.5600000000000001 0.05 0  0.57 0.05 0  0.58 0.05 0  0.59 0.05 0  0.6 0.05 0  0.61 0.05 0  0.62 0.05 0  0.63 0.05 0  0.64 0.05 0  0.65 0.05 0  0.66 0.05 0  0.67 0.05 0  0.68 0.05 0  0.6899999999999999 0.05 0  0.7 0.05 0  0.71 0.05 0  0.72 0.05 0  0.73 0.05 0  0.74 0.05 0  0.75 0.05 0  0.76 0.05 0  0.77 0.05 0  0.78 0.05 0  0.79 0.05 0  0.8 0.05 0  0.8100000000000001 0.05 0  0.82 0.05 0  0.83 0.05 0  0.84 0.05 0  0.85 0.05 0  0.86 0.05 0  0.87 0.05 0  0.88 0.05 0  0.89 0.05 0  0.9 0.05 0  0.91 0.05 0  0.92 0.05 0  0.93 0.05 0  0.9399999999999999 0.05 0  0.95 0.05 0  0.96 0.05 0  0.97 0.05 0  0.98 0.05 0  0.99 0.05 0  1 0.05 0  0 0.06 0  0.01 0.06 0  0.02 0.06 0  0.03 0.06 0  0.04 0.06 0  0.05 0.06 0  0.06 0.06 0  0.07000000000000001 0.06 0  0.08 0.06 0  0.09 0.06 0  0.1 0.06 0  0.11 0.06 0  0.12 0.06 0  0.13 0.06 0  0.14 0.06 0  0.15 0.06 0  0.16 0.06 0  0.17 0.06 0  0.18 0.06 0  0.19 0.06 0  0.2 0.06 0  0.21 0.06 0  0.22 0.06 0  0.23 0.06 0  0.24 0.06 0  0.25 0.06 0  0.26 0.06 0  0.27 0.06 0  0.28 0.06 0  0.29 0.06 0  0.3 0.06 0  0.31 0.06 0  0.32 0.06 0  0.33 0.06 0  0.34 0.06 0  0.35 0.06 0  0.36 0.06 0  0.37 0.06 0  0.38 0.06 0  0.39 0.06 0  0.4 0.06 0  0.41 0.06 0  0.42 0.06 0  0.43 0.06 0  0.44 0.06 0  0.45 0.06 0  0.46 0.06 0  0.47 0.06 0  0.48 0.06 0  0.49 0.06 0  0.5 0.06 0  0.51 0.06 0  0.52 0.06 0  0.53 0.06 0  0.54 0.06 0  0.55 0.06 0  0.5600000000000001 0.06 0  0.57 0.06 0  0.58 0.06 0  0.59 0.06 0  0.6 0.06 0  0.61 0.06 0  0.62 0.06 0  0.63 0.06 0  0.64 0.06 0  0.65 0.06 0  0.66 0.06 0  0.67 0.06 0  0.68 0.06 0  0.6899999999999999 0.06 0  0.7 0.06 0  0.71 0.06 0  0.72 0.06 0  0.73 0.06 0  0.74 0.06 0  0.75 0.06 0  0.76 0.06 0  0.77 0.06 0  0.78 0.06 0  0.79 0.06 0  0.8 0.06 0  0.8100000000000001 0.06 0  0.82 0.06 0  0.83 0.06 0  0.84 0.06 0  0.85 0.06 0  0.86 0.06 0  0.87 0.06 0  0.88 0.06 0  0.89 0.06 0  0.9 0.06 0  0.91 0.06 0  0.92 0.06 0  0.93 0.06 0  0.9399999999999999 0.06 0  0.95 0.06 0  0.96 0.06 0  0.97 0.06 0  0.98 0.06 0  0.99 0.06 0  1 0.06 0  0 0.07000000000000001 0  0.01 0.07000000000000001 0  0.02 0.07000000000000001 0  0.03 0.07000000000000001 0  0.04 0.07000000000000001 0  0.05 0.07000000000000001 0  0.06 0.07000000000000001 0  0.07000000000000001 0.07000000000000001 0  0.08 0.07000000000000001 0  0.09 0.07000000000000001 0  0.1 0.07000000000000001 0  0.11 0.07000000000000001 0  0.12 0.07000000000000001 0  0.13 0.07000000000000001 0  0.14 0.07000000000000001 0  0.15 0.07000000000000001 0  0.16 0.07000000000000001 0  0.17 0.0700
[...]
<PointData  Scalars="Indicator Function"> 
<DataArray  type="Float64"  Name="Indicator Function"  format="ascii">-2.5578757073892976e-35  -3.0039533360155850e-20  7.4064053413819699e-19  -1.8395758515280934e-20  1.8230196915975186e-18  -3.4756820764823115e-20  -4.2791393436019894e-20  5.6959690812017386e-18  5.3629629868840098e-18  -1.4995911518356427e-20  1.3435014035230395e-19  5.4538607473619846e-19  -4.1162405091944323e-20  -7.7037197775489434e-34  3.8352212592731517e-17  -4.7592697051239876e-20  8.4259435066941569e-34  3.2485802923587962e-17  -2.1253223870043579e-20  -8.0432496514514780e-20  7.8635098594150940e-17  -2.0460907049707402e-19  -2.3023446226485294e-19  1.2633853240377555e-17  -6.8615539347616173e-20  -6.2072356306722672e-20  -4.1806001058409148e-20  -2.2192496238553299e-19  1.8240314682241317e-16  -2.8718439996510112e-19  -4.8290226496901740e-19  -2.4640000107136194e-19  -1.9663483772227062e-19  -2.1686701072118468e-19  1.3126184106008120e-17  -1.3937038654406879e-19  -5.3713623985109302e-19  -9.2923295532254361e-19  -8.6268827908556639e-19  -8.5687669269515785e-19  6.9375436568920404e-17  -7.2384215750546807e-20  -2.1138458014798505e-19  -2.9451834649960059e-19  -2.5351648026753036e-19  -1.2675824013376195e-19  1.8069255489578284e-17  -4.2770894765305269e-20  -4.5133403326399736e-20  -5.3990445994295299e-20  -2.8414271250008420e-20  -4.7354695215866425e-20  -1.3299365552935679e-20  -5.4365906211042900e-20  -3.9708118230270662e-20  2.9340338996524296e-35  1.1940765655200862e-32  -9.8570730287293933e-23  -2.3019701559619360e-22  -2.2370803081710336e-22  -1.8058760460173420e-22  -1.4138604779064739e-22  -1.1089946002424633e-22  -8.7821975824753589e-23  -7.0565621318581784e-23  -5.7418426596311624e-23  -4.7315523652689385e-23  -3.9506867615846182e-23  -1.5681836131732794e-21  -2.5317076026070375e-23  -1.8680521570747640e-23  -2.3346862382907148e-23  -2.4719549752296367e-23  -3.2311106824906422e-23  -4.4946970361928588e-23  -5.6046681660929968e-23  -3.4725320568966570e-23  -9.8231247383607313e-24  -1.6618262513499450e-23  -2.8210671997200369e-24  -6.1696630091726117e-24  7.4868809485007712e-21  -2.9397402730010679e-23  -3.8951819703408760e-23  -2.6542862586183231e-23  -1.2649997072954560e-23  -4.7156968094653498e-24  -1.1676543265207367e-25  -1.8943087649076038e-24  -4.4508276530776403e-24  -5.3947696821436571e-24  -5.7551519015548715e-24  -5.7085798719765572e-24  -7.5938672442753157e-23  -4.5697920607910181e-24  -3.5314409193699725e-24  -2.3195185313000426e-24  -1.1858366493926060e-24  -3.9402539579112434e-25  -2.2958874039497803e-40  7.3468396926392969e-40  -1.2037062152420224e-35  3.2289394665471858e-04  5.6893749666075901e-04  1.3038934087946443e-04  3.8045544949371157e-05  2.0007702000693123e-04  9.8510207208352954e-04  2.7831017809072807e-04  1.9616547127101246e-03  1.1350972684387841e-03  2.7014232610460455e-04  1.3056964962852055e-03  9.0921746262638678e-04  2.8690723762182183e-04  1.7502950030237267e-03  2.4042156994195361e-03  8.5735381082208335e-04  8.3573922966330395e-04  7.6572808881240028e-04  2.8978860906499399e-03  2.4742647347782876e-03  4.0241479972756367e-03  3.6859093345889852e-03  4.1475353538553703e-03  2.4721353395019971e-03  2.2363923258637182e-03  8.7695045466055555e-04  3.1463473582372926e-04  3.9978447116147580e-03  2.8902593765735918e-03  3.7283245383909992e-03  8.8774956240726018e-03  2.0261762985318457e-03  2.5291701783103806e-03  4.7540132606236256e-03  2.4683767207092097e-03  3.5076691026435722e-03  1.0543371639010911e-02  1.4052427026442308e-02  1.4677985452497296e-02  1.1335189217276068e-02  6.0743606738543196e-03  1.3039581083266725e-03  4.0760394534905030e-03  3.2675511354522510e-03  4.5669469042605168e-03  3.2636836872002571e-03  1.5409838858186514e-03  1.6261022272218888e-03  6.1093648278972028e-04  1.0237320113083365e-03  7.4781241785191338e-04  4.7916014198772096e-04  1.4661070526092120e-04  9.0606374718438796e-04  2.6228599226952806e-04  6.6831054218930802e-05  2.4628717342222083e-05  6.6138888193282343e-06  3.6185900188789961e-06  2.8181823988276370e-06  2.4786740090337002e-06  2.1694434500172382e-06  1.8557802982759563e-06  1.5605300981156755e-06  1.3000191903804343e-06  1.0816628080486266e-06  8.9525432649730421e-07  7.6347384060522023e-07  6.2318798644997054e-07  4.4722421781246188e-07  4.1020640064018050e-07  4.4273058248008317e-07  4.9659117059914186e-07  6.6158609266682795e-07  8.5876740272135672e-07  8.1849748629133504e-07  2.8937752898164204e-07  1.7695768364518166e-07  2.1088916163077390e-07  1.1129239548253510e-09  1.1058630613903205e-07  2.9864468147983328e-07  5.4167612800820621e-07  5.2929720427356356e-07  3.5810446143924836e-07  2.0294430106248610e-07  9.2272874418982519e-08  1.5514762599647734e-08  3.4124832991050454e-08  6.3116566544037744e-08  7.7863589161102457e-08  8.3180164922050136e-08  8.1865840884704303e-08  7.5221344521742702e-08  6.3949439402875131e-08  4.9221680476674421e-08  3.3475903208460381e-08  1.9623678074372680e-08  4.2836761518000987e-09  -7.9596346091695160e-26  -3.8049679227245931e-20  1.7085476425206174e-04  4.8369397325151713e-05  3.8799095612212543e-04  4.0684342464128009e-04  9.0635802527251434e-04  5.9955621297362865e-04  1.7880455815144566e-03  3.3932399973085202e-04  5.1564835637406920e-04  1.0612485925988752e-03  1.3448452246821768e-03  1.5826571224984338e-03  3.9356695978249893e-03  2.1470624899719852e-03  1.9466829191138623e-04  1.1398236284279641e-03  2.7493636879789784e-03  3.9433242836572728e-03  1.7460489881432910e-03  2.5294958437764511e-03  2.3170383955237758e-04  1.5129685733486231e-03  3.3513949011630298e-03  5.8496274519109629e-04  1.9414336591782615e-03  5.4872418355054282e-03  6.8401010944259396e-03  7.6174013716168157e-03  7.9300679361732438e-04  7.0327933394943266e-03  5.0078929071801555e-03  7.1650116434641689e-03  5.9439051211197273e-03  4.3786075609890543e-03  5.7717082032198823e-03  8.2847030135992344e-04  9.4837720843302820e-03  1.7199099061123477e-02  1.8256026742898293e-02  1.8248463367584792e-02  1.1343627190183074e-02  8.8903140846563922e-04  2.6350987647238721e-03  6.9946676805814813e-03  1.9582840739499922e-03  2.6135083703408804e-03  2.9971170373977287e-03  5.5022271120717557e-04  4.1690496415608381e-04  5.9807243377517165e-04  2.0061830008549206e-04  1.1344303641987791e-03  3.2317421314375213e-04  1.0041366488580949e-03  8.2517064501413885e-04  5.7524006213824580e-05  6.0398382367783296e-05  1.4763469801993338e-05  6.0865091699937575e-06  4.1263954843937739e-06  3.5143711238234360e-06  3.0886780839238457e-06  2.6649930681281757e-06  2.2529992584923035e-06  1.8830684992859674e-06  1.5642705829106888e-06  1.2988250983654195e-06  1.0810119726129720e-06  9.2980644493493374e-07  6.9370593066913638e-07  5.2986564579928517e-07  5.7110916910884282e-07  6.0623789740006875e-07  7.5150295655189570e-07  1.0102984277552269e-06  1.2037079745837710e-06  7.9073146621886930e-07  1.1214518027055412e-08  3.3462677660316690e-07  1.1688712134378935e-07  1.2184874173900460e-07  2.4469981656624246e-07  5.9987166882439260e-07  7.7000875712725192e-07  5.8234859299068454e-07  3.4671079657882265e-07  1.8153478349436053e-07  6.5534681687706002e-08  1.4724146046513294e-08  6.5502157539510780e-08  9.4446938723125684e-08  1.0855842785450141e-07  1.1245735868324291e-07  1.0848933358233265e-07  9.7703247378597516e-08  8.1106830103187292e-08  6.1010733999414479e-08  4.1156458608685223e-08  2.3231915092149388e-08  5.8033365843242083e-24  -1.8921641266173880e-20  6.8544208475756747e-04  4.4530839137208994e-05  6.7952376200062765e-04  4.7780891092955545e-04  1.6379041113309131e-04  6.2497025459195025e-04  1.5183368396763522e-03  4.4000818769621250e-04  3.2173741241875546e-03  2.9110665427611797e-03  1.4684886816297025e-03  1.6971970388817560e-03  4.2432133438861442e-04  1.3450595104977756e-03  2.6300652737879524e-03  5.2265159743941957e-03  3.1062555864141196e-03  8.3756632429728313e-05  9.1242391317598827e-04  4.6339751502582497e-03  4.9476165449744711e-03  8.1652156676278627e-03  8.8736635148658014e-03  9.3276219185661393e-03  5.6353220360683279e-03  3.5270781091500066e-03  5.2194030146970709e-04  2.5360665882417669e-03  8.5360923932080984e-03  5.7854423200266875e-03  7.3750728610072246e-03  1.6588329762948571e-02  5.0787907167385302e-03  3.9042516708704717e-03  7.0042001731233415e-03  3.6368054136417150e-03  5.5859960679651927e-03  1.5668794982834591e-02  2.0046856354582306e-02  2.0016184308756936e-02  1.5412575987250278e-02  8.3150321276320421e-03  3.6856954791348951e-03  5.5631811961640151e-03  5.1530042061242167e-03  9.1132541662113636e-03  6.6652668897101931e-03  3.4495796712259988e-03  3.2019853643203040e-03  1.6752018044094161e-03  2.0205873822602828e-03  1.4630153791413084e-03  7.0188639730275296e-04  2.3671762460186649e-04  1.5235994211243956e-03  2.3198831209080985e-04  2.3127591058881557e-05  3.7012085729754307e-05  9.0035930235526986e-06  5.6866602311341840e-06  4.4388015104849538e-06  3.8191086650960535e-06  3.2796925189702185e-06  2.7717103050305229e-06  2.3132396141379771e-06  1.9180075373099694e-06  1.5903640963135674e-06  1.3096236827975699e-06  1.1159443048379157e-06  9.1308752256881051e-07  6.3149695266385071e-07  5.8815977926126852e-07  6.5065043021332127e-07  7.1326413427317917e-07  9.6210399688238975e-07  1.2638697616907947e-06  1.2278147896942946e-06  3.8016611648732224e-07  3.2974889976956752e-07  3.1756957705981678e-07  5.4029981887637191e-08  1.8468553604315900e-07  4.4304702827379801e-07  8.2987456754119471e-07  7.7116127149546095e-07  4.8046953690555130e-07  2.6425725015541767e-07  1.2448022314056485e-07  2.4957581685036139e-08  4.2436091713216938e-08  8.3617033777818260e-08  1.0605974800031955e-07  1.1573601778310866e-07  1.1608244119865312e-07  1.0863836365835681e-07  9.4281762071750672e-08  7.4647036810642326e-08  5.2979797256665475e-08  3.2021386239211140e-08  -2.8991926310055000e-24  -1.7166149030144970e-20  3.4086198622231603e-04  8.5079302402094986e-05  4.1780993395984495e-04  3.8016722450674045e-04  7.0546066954133404e-04  1.0654866491807632e-03  9.2529769553182078e-04  2.2933001330709087e-03  1.8826428791438211e-05  1.3206376869196663e-03  6.5010125532227964e-04  2.0459345978059624e-03  2.8134926728604730e-03  4.6227151501665731e-03  3.6960784601400049e-03  1.4491193552875644e-03  4.9420962212369469e-04  3.4065443404663874e-03  5.5480677214016965e-03  3.2022239601935320e-03  4.2346229389911092e-03  1.3218540329425340e-03  2.4712884358968741e-04  2.7381640043447689e-03  7.0994219203558494e-05  3.3066551785849276e-03  7.9277545005504556e-03  9.6760781071576485e-03  9.8303176978320420e-03  5.1261108694951904e-04  9.5824422993766954e-03  5.6106636249428892e-03  1.1195715552813372e-02  9.5122672402888544e-03  4.7519438848469776e-03  7.1428370537530029e-03  9.1422842575930108e-04  1.1139088585627796e-02  2.0284714675993912e-02  2.0795662737577492e-02  2.0870298211798918e-02  1.2003136976557359e-02  2.1239612624298330e-04  3.6410551086490830e-03  8.8777820065958721e-03  2.7508365600797681e-03  5.0065427214482676e-03  5.5505278345096883e-03  1.8530741526566173e-03  9.9601387534949798e-04  3.7977441020817449e-04  5.0466143472003156e-04  1.6839776505211362e-03  3.5937730535808254e-04  1.3169598711262143e-03  1.0569769792700403e-03  7.5585722394758394e-05  4.3088849948040685e-05  1.4020032998977489e-05  6.0784130908931903e-06  4.7539431961471033e-06  4.1707461225501961e-06  3.6724522170278057e-06  3.1622503287198476e-06  2.6714672357013196e-06  2.2345040865728261e-06  1.8581760270645892e-06  1.5439772830803733e-06  1.2837607920224025e-06  1.1113528636086835e-06  8.1507412392187782e-07  6.0649901256860745e-07  6.7584214593073012e-07  7.0989482005683837e-07  8.8003191798017085e-07  1.2107818064423574e-06  1.4661710313570039e-06  9.3878385916905773e-07  1.0733764416975341e-07  4.8039346822967808e-07  1.4791911813054355e-07  1.6563103142102042e-07  2.7670557681960950e-07  7.1966331178773510e-07  9.2857615431747419e-07  6.5870201149956461e-07  3.6226231594540359e-07  1.8410279113540256e-07  6.5917197140106112e-08  1.7438945979830092e-08  7.1307801677211178e-08  1.0253848264990033e-07  1.1813174056185542e-07  1.2275937291365960e-07  1.1869880249463559e-07  1.0688398260677448e-07  8.8221790062075233e-08  6.4726249302339632e-08  3.8078967139362581e-08  9.5121328662146350e-24  1.8807909613156600e-35  6.3754579086983316e-04  9.7135361242520440e-04  3.0884138255960558e-05  7.2763104160352603e-04  8.2818507532100047e-04  3.0905064469041748e-04  9.1907958997132630e-04  1.8925183570976585e-03  7.8895979944476440e-04  3.5345788822018303e-03  3.5463828113782171e-03  2.1987131291713513e-03  1.4077535511730942e-03  3.7668617814681261e-04  2.3250312186302844e-03  2.3867033304964028e-03  6.3019798001952504e-03  4.0861234373526407e-03  4.3135298215746628e-04  6.4653327620095439e-04  4.9581958949421277e-03  5.3305837589176152e-03  9.1766349978325851e-03  1.0722754862730343e-02  1.1582280857156499e-02  6.9338155853199239e-03  3.7164083143007747e-03  3.7767037778334490e-05  3.7718274575875566e-03  1.1072291012582822e-02  7.5022381183062698e-03  9.1978772506860849e-03  2.0087233793242003e-02  5.4171466024550792e-03  5.2806809438848907e-03  8.1068378510765846e-03  4.4764179078793740e-03  6.4021275882289045e-03  1.7785934767265529e-02  2.2412495084905126e-02  2.1850288694026398e-02  1.7150894802469830e-02  8.7447545177782270e-03  5.3695782279221038e-03  6.6062715704928842e-03  5.9840029103412715e-03  1.1090594423393333e-02  7.5936374866212028e-03  3.6860585003614921e-03  3.5432663281789235e-03  1.9654408757241908e-03  2.3683427928635503e-03  1.7172382265933459e-03  9.4126811929684095e-04  3.1528365573262193e-04  1.8673145375628873e-03  2.2701722250199492e-04  4.0899810711290454e-05  3.0980158997030031e-05  6.3332880522667597e-06  4.6290140443627340e-06  4.0698779053039480e-06  3.7447880895086060e-06  3.3479688179542091e-06  2.9102409064343348e-06  2.4826705260545959e-06  2.0957021467525401e-06  1.7632284608673891e-06  1.4682318074331932e-06  1.2674631371598075e-06  1.0418995377155034e-06  7.0856821827409636e-07  6.7143948151196228e-07  7.5370003175419368e-07  8.1874512976129448e-07  1.1266453768628915e-06  1.5031619863118581e-06  1.4484643693306963e-06  3.9469258772835522e-07  4.6473317987067289e-07  4.0884915760953451e-07  6.8092598134423133e-08  2.1620872923038144e-07  5.0762087166600329e-07  9.6547308899972663e-07  8.7621113321895517e-07  5.1462697077542925e-07  2.6753034769414223e-07  1.2116875848511963e-07  1.8457681377914780e-08  5.1883709231100618e-08  9.5195583513382127e-08  1.1896496026406302e-07  1.2935325042329115e-07  1.2981281445563478e-07  1.2172904104431677e-07  1.0563475120414896e-07  8.2142187650160837e-08  5.0611479171810641e-08  -2.8095014743440277e-24  0.0000000000000000e+00  1.3830095936323866e-06  4.7522684779645384e-04  1.9241702518152710e-04  5.9613193564086065e-04  5.2113714179295961e-04  7.1378562362826121e-04  1.1210235137134076e-03  1.2457732451248104e-03  2.4641238040941597e-03  4.8685327891270483e-05  1.5595734505827472e-03  4.4012683810508430e-04  2.2397665324780636e-03  3.6556410209852334e-03  4.8134549930505394e-03  4.3150602788922842e-03  1.7957651419126491e-03  3.7928743916576925e-04  3.7923575676355229e-03  6.1130388633109821e-03  3.2982836644400949e-03  4.3515256883739769e-03  1.2522939841323121e-03  2.6349668160201078e-04  2.9533973734646754e-03  1.2445352186048881e-04  3.3891533105271016e-03  8.7326782092977950e-03  1.0796037370865846e-02  1.0730656766089804e-02  2.1804674962554242e-04  1.1169889897738001e-02  6.5814901074410237e-03  1.2633758397812410e-02  1.0841400090969964e-02  5.5825001965132820e-03  7.8600996456546710e-03  9.2539262129361099e-04  1.2427367062843645e-02  2.2572767908452824e-02  2.3059822538061017e-02  2.2654004809526146e-02  1.2610114262747238e-02  2.0181022619690037e-04  4.5418361999946021e-03  1.0139955553801308e-02  3.4375058418463331e-03  5.7781817741648228e-03  6.3593238985421383e-03  1.9204159816872649e-03  9.3952583716817482e-04  5.2512703366370400e-04  5.2296197703842365e-04  1.9437124195090083e-03  4.2546351257654556e-04  1.5868310934514696e-03  1.1954529547760007e-03  1.2750038134450028e-04  2.3986777720832464e-05  1.3901411816992460e-05  5.6444360457584891e-06  4.5278744867369046e-06  4.0202952542952471e-06  3.6053653980987749e-06  3.1720251790671907e-06  2.7400254747345829e-06  2.3415442392471744e-06  1.9860500642643620e-06  1.6779309147475205e-06  1.4188180164224371e-06  1.2454264125525038e-06  9.0905240478564417e-07  6.8488531667524068e-07  7.8422730198183038e-07  8.2391946678667322e-07  1.0295815385988275e-06  1.4420917495256207e-06  1.7330646912767122e-06  1.0593559218589167e-06  1.8743400081586948e-07  5.9373253155787547e-07  1.6699660586996435e-07  2.0277799024141366e-07  3.3297654862775224e-07  8.4178575576304977e-07  1.0589758330696329e-06  7.2704237708405677e-07  3.8579571286108801e-07  1.9325141035426477e-07  6.8971130008209203e-08  2.0029465045283506e-08  7.8760001800950162e-08  1.1362797350611766e-07  1.3181867438111263e-07  1.3820479337136561e-07  1.3504222276049711e-07  1.2286543037810667e-07  1.0106641422397107e-07  6.6024982795998271e-08  -3.6651228050298394e-24  -2.1581275074686144e-20  3.0925445113964633e-04  5.7862466129793635e-04  9.1795464746537766e-04  1.9222597235701877e-04  8.5345522597830663e-04  1.1987782420905095e-03  1.7258668317652091e-04  1.1663974906775279e-03  2.2298816432367750e-03  1.0520419249210207e-03  3.8519067461368728e-03  4.0113284092815416e-03  2.4918887294280022e-03  1.4897542271583258e-03  4.7259471408403388e-04  2.7339998717822232e-03  2.5686342958319060e-03  7.3223115202749401e-03  4.4266087219225324e-03  4.2168138033104458e-05  1.2588290233280658e-03  5.8241644405977186e-03  5.8046678064823439e-03  9.6369049201425316e-03  1.1351942964935925e-02  1.2501173658371698e-02  7.4715118544521767e-03  4.0392969556812368e-03  6.8338536915506199e-04  2.9436351480477819e-03  1.1537625943337727e-02  8.7582738128655462e-03  9.6289280554750882e-03  2.2287060939204847e-02  6.0611749261266085e-03  6.1436237838649087e-03  9.2909849483605866e-03  4.6911939293682722e-03  7.5622670458408738e-03  1.9917541478051939e-02  2.4423443320802509e-02  2.3764900105106714e-02  1.8582109960017523e-02  8.8328732192577766e-03  6.4810964325892140e-03  7.8240191865714664e-03  5.7126184178747227e-03  1.2058488912527178e-02  8.4243734055846932e-03  4.0306749231080567e-03  3.8633814124048814e-03  2.0362347129235041e-03  2.5012886986127353e-03  1.9060732153697297e-03  1.0845544225557575e-03  4.5135084923614624e-04  2.1221415069800809e-03  2.1762780801878447e-04  6.9000739897575347e-05  2.4014608561133582e-05  7.5624971445155828e-06  5.4789097848946744e-06  4.7078894327289583e-06  4.1616383486492786e-06  3.6400581637090941e-06  3.1405039368511005e-06  2.6833285526015518e-06  2.2794017287232349e-06  1.9344110941661056e-06  1.6249673627024540e-06  1.4218233167764816e-06  1.1659803822323796e-06  7.9227471031181556e-07  7.7749966289799078e-07  8.7869747429672961e-07  9.5909029005825193e-07  1.3393016193091373e-06  1.7961319611337766e-06  1.6681360167100001e-06  3.8496018384524799e-07  5.8909948639620743e-07  4.7202878523471914e-07  9.6009614448474220e-08  2.6718678256100879e-07  6.1834314708052011e-07  1.1156859534963293e-06  9.7745064324990517e-07  5.5864416312270219e-07  2.8705586307140044e-07  1.3215356604512872e-07  2.3354220732957947e-08  5.2780014288452271e-08  1.0108378879040859e-07  1.2892368392208955e-07  1.4256048225894104e-07  1.4538676054954792e-07  1.3824868213667974e-07  1.1959559673653048e-07  8.2417153519750641e-08  -1.1437677682711706e-23  -2.7835706227471768e-35  5.0703671043553428e-04  2.3571768633869481e-04  5.3754942473581337e-04  2.5761773344835188e-04  6.5604475328816453e-04  7.2223408306813493e-04  6.6123399221913672e-04  1.1101871381355342e-03  1.6994349465618967e-03  2.4262307063036247e-03  1.9330259344621837e-04  1.4566174513148910e-03  7.6024464723468250e-04  2.6293512664842876e-03  4.4587635214823106e-03  5.0860815208864747