<?xml version="1.0"?>
<VTKFile type="UnstructuredGrid"  version="0.1"  >
<UnstructuredGrid>
<Piece  NumberOfPoints="10201" NumberOfCells="20000">
<Points>
<DataArray  type="Float64"  NumberOfComponents="3"  format="ascii">0 0 0  0.01 0 0  0.02 0 0  0.03 0 0  0.04 0 0  0.05 0 0  0.06 0 0  0.07000000000000001 0 0  0.08 0 0  0.09 0 0  0.1 0 0  0.11 0 0  0.12 0 0  0.13 0 0  0.14 0 0  0.15 0 0  0.16 0 0  0.17 0 0  0.18 0 0  0.19 0 0  0.2 0 0  0.21 0 0  0.22 0 0  0.23 0 0  0.24 0 0  0.25 0 0  0.26 0 0  0.27 0 0  0.28 0 0  0.29 0 0  0.3 0 0  0.31 0 0  0.32 0 0  0.33 0 0  0.34 0 0  0.35 0 0  0.36 0 0  0.37 0 0  0.38 0 0  0.39 0 0  0.4 0 0  0.41 0 0  0.42 0 0  0.43 0 0  0.44 0 0  0.45 0 0  0.46 0 0  0.47 0 0  0.48 0 0  0.49 0 0  0.5 0 0  0.51 0 0  0.52 0 0  0.53 0 0  0.54 0 0  0.55 0 0  0.5600000000000001 0 0  0.57 0 0  0.58 0 0  0.59 0 0  0.6 0 0  0.61 0 0  0.62 0 0  0.63 0 0  0.64 0 0  0.65 0 0  0.66 0 0  0.67 0 0  0.68 0 0  0.6899999999999999 0 0  0.7 0 0  0.71 0 0  0.72 0 0  0.73 0 0  0.74 0 0  0.75 0 0  0.76 0 0  0.77 0 0  0.78 0 0  0.79 0 0  0.8 0 0  0.8100000000000001 0 0  0.82 0 0  0.83 0 0  0.84 0 0  0.85 0 0  0.86 0 0  0.87 0 0  0.88 0 0  0.89 0 0  0.9 0 0  0.91 0 0  0.92 0 0  0.93 0 0  0.9399999999999999 0 0  0.95 0 0  0.96 0 0  0.97 0 0  0.98 0 0  0.99 0 0  1 0 0  0 0.01 0  0.01 0.01 0  0.02 0.01 0  0.03 0.01 0  0.04 0.01 0  0.05 0.01 0  0.06 0.01 0  0.07000000000000001 0.01 0  0.08 0.01 0  0.09 0.01 0  0.1 0.01 0  0.11 0.01 0  0.12 0.01 0  0.13 0.01 0  0.14 0.01 0  0.15 0.01 0  0.16 0.01 0  0.17 0.01 0  0.18 0.01 0  0.19 0.01 0  0.2 0.01 0  0.21 0.01 0  0.22 0.01 0  0.23 0.01 0  0.24 0.01 0  0.25 0.01 0  0.26 0.01 0  0.27 0.01 0  0.28 0.01 0  0.29 0.01 0  0.3 0.01 0  0.31 0.01 0  0.32 0.01 0  0.33 0.01 0  0.34 0.01 0  0.35 0.01 0  0.36 0.01 0  0.37 0.01 0  0.38 0.01 0  0.39 0.01 0  0.4 0.01 0  0.41 0.01 0  0.42 0.01 0  0.43 0.01 0  0.44 0.01 0  0.45 0.01 0  0.46 0.01 0  0.47 0.01 0  0.48 0.01 0  0.49 0.01 0  0.5 0.01 0  0.51 0.01 0  0.52 0.01 0  0.53 0.01 0  0.54 0.01 0  0.55 0.01 0  0.5600000000000001 0.01 0  0.57 0.01 0  0.58 0.01 0  0.59 0.01 0  0.6 0.01 0  0.61 0.01 0  0.62 0.01 0  0.63 0.01 0  0.64 0.01 0  0.65 0.01 0  0.66 0.01 0  0.67 0.01 0  0.68 0.01 0  0.6899999999999999 0.01 0  0.7 0.01 0  0.71 0.01 0  0.72 0.01 0  0.73 0.01 0  0.74 0.01 0  0.75 0.01 0  0.76 0.01 0  0.77 0.01 0  0.78 0.01 0  0.79 0.01 0  0.8 0.01 0  0.8100000000000001 0.01 0  0.82 0.01 0  0.83 0.01 0  0.84 0.01 0  0.85 0.01 0  0.86 0.01 0  0.87 0.01 0  0.88 0.01 0  0.89 0.01 0  0.9 0.01 0  0.91 0.01 0  0.92 0.01 0  0.93 0.01 0  0.9399999999999999 0.01 0  0.95 0.01 0  0.96 0.01 0  0.97 0.01 0  0.98 0.01 0  0.99 0.01 0  1 0.01 0  0 0.02 0  0.01 0.02 0  0.02 0.02 0  0.03 0.02 0  0.04 0.02 0  0.05 0.02 0  0.06 0.02 0  0.07000000000000001 0.02 0  0.08 0.02 0  0.09 0.02 0  0.1 0.02 0  0.11 0.02 0  0.12 0.02 0  0.13 0.02 0  0.14 0.02 0  0.15 0.02 0  0.16 0.02 0  0.17 0.02 0  0.18 0.02 0  0.19 0.02 0  0.2 0.02 0  0.21 0.02 0  0.22 0.02 0  0.23 0.02 0  0.24 0.02 0  0.25 0.02 0  0.26 0.02 0  0.27 0.02 0  0.28 0.02 0  0.29 0.02 0  0.3 0.02 0  0.31 0.02 0  0.32 0.02 0  0.33 0.02 0  0.34 0.02 0  0.35 0.02 0  0.36 0.02 0  0.37 0.02 0  0.38 0.02 0  0.39 0.02 0  0.4 0.02 0  0.41 0.02 0  0.42 0.02 0  0.43 0.02 0  0.44 0.02 0  0.45 0.02 0  0.46 0.02 0  0.47 0.02 0  0.48 0.02 0  0.49 0.02 0  0.5 0.02 0  0.51 0.02 0  0.52 0.02 0  0.53 0.02 0  0.54 0.02 0  0.55 0.02 0  0.5600000000000001 0.02 0  0.57 0.02 0  0.58 0.02 0  0.59 0.02 0  0.6 0.02 0  0.61 0.02 0  0.62 0.02 0  0.63 0.02 0  0.64 0.02 0  0.65 0.02 0  0.66 0.02 0  0.67 0.02 0  0.68 0.02 0  0.6899999999999999 0.02 0  0.7 0.02 0  0.71 0.02 0  0.72 0.02 0  0.73 0.02 0  0.74 0.02 0  0.75 0.02 0  0.76 0.02 0  0.77 0.02 0  0.78 0.02 0  0.79 0.02 0  0.8 0.02 0  0.8100000000000001 0.02 0  0.82 0.02 0  0.83 0.02 0  0.84 0.02 0  0.85 0.02 0  0.86 0.02 0  0.87 0.02 0  0.88 0.02 0  0.89 0.02 0  0.9 0.02 0  0.91 0.02 0  0.92 0.02 0  0.93 0.02 0  0.9399999999999999 0.02 0  0.95 0.02 0  0.96 0.02 0  0.97 0.02 0  0.98 0.02 0  0.99 0.02 0  1 0.02 0  0 0.03 0  0.01 0.03 0  0.02 0.03 0  0.03 0.03 0  0.04 0.03 0  0.05 0.03 0  0.06 0.03 0  0.07000000000000001 0.03 0  0.08 0.03 0  0.09 0.03 0  0.1 0.03 0  0.11 0.03 0  0.12 0.03 0  0.13 0.03 0  0.14 0.03 0  0.15 0.03 0  0.16 0.03 0  0.17 0.03 0  0.18 0.03 0  0.19 0.03 0  0.2 0.03 0  0.21 0.03 0  0.22 0.03 0  0.23 0.03 0  0.24 0.03 0  0.25 0.03 0  0.26 0.03 0  0.27 0.03 0  0.28 0.03 0  0.29 0.03 0  0.3 0.03 0  0.31 0.03 0  0.32 0.03 0  0.33 0.03 0  0.34 0.03 0  0.35 0.03 0  0.36 0.03 0  0.37 0.03 0  0.38 0.03 0  0.39 0.03 0  0.4 0.03 0  0.41 0.03 0  0.42 0.03 0  0.43 0.03 0  0.44 0.03 0  0.45 0.03 0  0.46 0.03 0  0.47 0.03 0  0.48 0.03 0  0.49 0.03 0  0.5 0.03 0  0.51 0.03 0  0.52 0.03 0  0.53 0.03 0  0.54 0.03 0  0.55 0.03 0  0.5600000000000001 0.03 0  0.57 0.03 0  0.58 0.03 0  0.59 0.03 0  0.6 0.03 0  0.61 0.03 0  0.62 0.03 0  0.63 0.03 0  0.64 0.03 0  0.65 0.03 0  0.66 0.03 0  0.67 0.03 0  0.68 0.03 0  0.6899999999999999 0.03 0  0.7 0.03 0  0.71 0.03 0  0.72 0.03 0  0.73 0.03 0  0.74 0.03 0  0.75 0.03 0  0.76 0.03 0  0.77 0.03 0  0.78 0.03 0  0.79 0.03 0  0.8 0.03 0  0.8100000000000001 0.03 0  0.82 0.03 0  0.83 0.03 0  0.84 0.03 0  0.85 0.03 0  0.86 0.03 0  0.87 0.03 0  0.88 0.03 0  0.89 0.03 0  0.9 0.03 0  0.91 0.03 0  0.92 0.03 0  0.93 0.03 0  0.9399999999999999 0.03 0  0.95 0.03 0  0.96 0.03 0  0.97 0.03 0  0.98 0.03 0  0.99 0.03 0  1 0.03 0  0 0.04 0  0.01 0.04 0  0.02 0.04 0  0.03 0.04 0  0.04 0.04 0  0.05 0.04 0  0.06 0.04 0  0.07000000000000001 0.04 0  0.08 0.04 0  0.09 0.04 0  0.1 0.04 0  0.11 0.04 0  0.12 0.04 0  0.13 0.04 0  0.14 0.04 0  0.15 0.04 0  0.16 0.04 0  0.17 0.04 0  0.18 0.04 0  0.19 0.04 0  0.2 0.04 0  0.21 0.04 0  0.22 0.04 0  0.23 0.04 0  0.24 0.04 0  0.25 0.04 0  0.26 0.04 0  0.27 0.04 0  0.28 0.04 0  0.29 0.04 0  0.3 0.04 0  0.31 0.04 0  0.32 0.04 0  0.33 0.04 0  0.34 0.04 0  0.35 0.04 0  0.36 0.04 0  0.37 0.04 0  0.38 0.04 0  0.39 0.04 0  0.4 0.04 0  0.41 0.04 0  0.42 0.04 0  0.43 0.04 0  0.44 0.04 0  0.45 0.04 0  0.46 0.04 0  0.47 0.04 0  0.48 0.04 0  0.49 0.04 0  0.5 0.04 0  0.51 0.04 0  0.52 0.04 0  0.53 0.04 0  0.54 0.04 0  0.55 0.04 0  0.5600000000000001 0.04 0  0.57 0.04 0  0.58 0.04 0  0.59 0.04 0  0.6 0.04 0  0.61 0.04 0  0.62 0.04 0  0.63 0.04 0  0.64 0.04 0  0.65 0.04 0  0.66 0.04 0  0.67 0.04 0  0.68 0.04 0  0.6899999999999999 0.04 0  0.7 0.04 0  0.71 0.04 0  0.72 0.04 0  0.73 0.04 0  0.74 0.04 0  0.75 0.04 0  0.76 0.04 0  0.77 0.04 0  0.78 0.04 0  0.79 0.04 0  0.8 0.04 0  0.8100000000000001 0.04 0  0.82 0.04 0  0.83 0.04 0  0.84 0.04 0  0.85 0.04 0  0.86 0.04 0  0.87 0.04 0  0.88 0.04 0  0.89 0.04 0  0.9 0.04 0  0.91 0.04 0  0.92 0.04 0  0.93 0.04 0  0.9399999999999999 0.04 0  0.95 0.04 0  0.96 0.04 0  0.97 0.04 0  0.98 0.04 0  0.99 0.04 0  1 0.04 0  0 0.05 0  0.01 0.05 0  0.02 0.05 0  0.03 0.05 0  0.04 0.05 0  0.05 0.05 0  0.06 0.05 0  0.07000000000000001 0.05 0  0.08 0.05 0  0.09 0.05 0  0.1 0.05 0  0.11 0.05 0  0.12 0.05 0  0.13 0.05 0  0.14 0.05 0  0.15 0.05 0  0.16 0.05 0  0.17 0.05 0  0.18 0.05 0  0.19 0.05 0  0.2 0.05 0  0.21 0.05 0  0.22 0.05 0  0.23 0.05 0  0.24 0.05 0  0.25 0.05 0  0.26 0.05 0  0.27 0.05 0  0.28 0.05 0  0.29 0.05 0  0.3 0.05 0  0.31 0.05 0  0.32 0.05 0  0.33 0.05 0  0.34 0.05 0  0.35 0.05 0  0.36 0.05 0  0.37 0.05 0  0.38 0.05 0  0.39 0.05 0  0.4 0.05 0  0.41 0.05 0  0.42 0.05 0  0.43 0.05 0  0.44 0.05 0  0.45 0.05 0  0.46 0.05 0  0.47 0.05 0  0.48 0.05 0  0.49 0.05 0  0.5 0.05 0  0.51 0.05 0  0.52 0.05 0  0.53 0.05 0  0.54 0.05 0  0.55 0.05 0  0.5600000000000001 0.05 0  0.57 0.05 0  0.58 0.05 0  0.59 0.05 0  0.6 0.05 0  0.61 0.05 0  0.62 0.05 0  0.63 0.05 0  0.64 0.05 0  0.65 0.05 0  0.66 0.05 0  0.67 0.05 0  0.68 0.05 0  0.6899999999999999 0.05 0  0.7 0.05 0  0.71 0.05 0  0.72 0.05 0  0.73 0.05 0  0.74 0.05 0  0.75 0.05 0  0.76 0.05 0  0.77 0.05 0  0.78 0.05 0  0.79 0.05 0  0.8 0.05 0  0.8100000000000001 0.05 0  0.82 0.05 0  0.83 0.05 0  0.84 0.05 0  0.85 0.05 0  0.86 0.05 0  0.87 0.05 0  0.88 0.05 0  0.89 0.05 0  0.9 0.05 0  0.91 0.05 0  0.92 0.05 0  0.93 0.05 0  0.9399999999999999 0.05 0  0.95 0.05 0  0.96 0.05 0  0.97 0.05 0  0.98 0.05 0  0.99 0.05 0  1 0.05 0  0 0.06 0  0.01 0.06 0  0.02 0.06 0  0.03 0.06 0  0.04 0.06 0  0.05 0.06 0  0.06 0.06 0  0.07000000000000001 0.06 0  0.08 0.06 0  0.09 0.06 0  0.1 0.06 0  0.11 0.06 0  0.12 0.06 0  0.13 0.06 0  0.14 0.06 0  0.15 0.06 0  0.16 0.06 0  0.17 0.06 0  0.18 0.06 0  0.19 0.06 0  0.2 0.06 0  0.21 0.06 0  0.22 0.06 0  0.23 0.06 0  0.24 0.06 0  0.25 0.06 0  0.26 0.06 0  0.27 0.06 0  0.28 0.06 0  0.29 0.06 0  0.3 0.06 0  0.31 0.06 0  0.32 0.06 0  0.33 0.06 0  0.34 0.06 0  0.35 0.06 0  0.36 0.06 0  0.37 0.06 0  0.38 0.06 0  0.39 0.06 0  0.4 0.06 0  0.41 0.06 0  0.42 0.06 0  0.43 0.06 0  0.44 0.06 0  0.45 0.06 0  0.46 0.06 0  0.47 0.06 0  0.48 0.06 0  0.49 0.06 0  0.5 0.06 0  0.51 0.06 0  0.52 0.06 0  0.53 0.06 0  0.54 0.06 0  0.55 0.06 0  0.5600000000000001 0.06 0  0.57 0.06 0  0.58 0.06 0  0.59 0.06 0  0.6 0.06 0  0.61 0.06 0  0.62 0.06 0  0.63 0.06 0  0.64 0.06 0  0.65 0.06 0  0.66 0.06 0  0.67 0.06 0  0.68 0.06 0  0.6899999999999999 0.06 0  0.7 0.06 0  0.71 0.06 0  0.72 0.06 0  0.73 0.06 0  0.74 0.06 0  0.75 0.06 0  0.76 0.06 0  0.77 0.06 0  0.78 0.06 0  0.79 0.06 0  0.8 0.06 0  0.8100000000000001 0.06 0  0.82 0.06 0  0.83 0.06 0  0.84 0.06 0  0.85 0.06 0  0.86 0.06 0  0.87 0.06 0  0.88 0.06 0  0.89 0.06 0  0.9 0.06 0  0.91 0.06 0  0.92 0.06 0  0.93 0.06 0  0.9399999999999999 0.06 0  0.95 0.06 0  0.96 0.06 0  0.97 0.06 0  0.98 0.06 0  0.99 0.06 0  1 0.06 0  0 0.07000000000000001 0  0.01 0.07000000000000001 0  0.02 0.07000000000000001 0  0.03 0.07000000000000001 0  0.04 0.07000000000000001 0  0.05 0.07000000000000001 0  0.06 0.07000000000000001 0  0.07000000000000001 0.07000000000000001 0  0.08 0.07000000000000001 0  0.09 0.07000000000000001 0  0.1 0.07000000000000001 0  0.11 0.07000000000000001 0  0.12 0.07000000000000001 0  0.13 0.07000000000000001 0  0.14 0.07000000000000001 0  0.15 0.07000000000000001 0  0.16 0.07000000000000001 0  0.17 0.0700
[...]
<PointData  Scalars="Indicator Function"> 
<DataArray  type="Float64"  Name="Indicator Function"  format="ascii">-1.4780749826462719e-19  -1.9489066379930604e-19  1.1268981085607912e-17  5.3167842810901235e-19  2.9342527043424805e-17  -1.0712996845590817e-19  -1.9905399154756278e-19  5.6620276722020186e-18  5.8875667535942880e-17  -2.4148844878316091e-20  1.4622108676593658e-17  1.2747283283210621e-17  -1.1933274041025209e-19  -1.5296055722279313e-19  1.6367702255345267e-16  2.6481536735324493e-34  -4.8246625083084073e-19  1.3756346383727257e-16  -2.6052795683975846e-19  -4.0216824920664606e-19  3.1375576991153632e-16  -7.5505424859444316e-19  -3.3076925605744102e-19  2.1341227714111511e-17  -1.2983746716837118e-19  -2.9804635915243587e-19  -2.7600725780847769e-19  -5.3544476667679954e-19  4.1206760623963057e-16  -9.5855900907078167e-19  -1.3287110847622227e-18  -6.6435554238111154e-19  -6.8183297814612450e-19  -6.9181884908603528e-19  3.3116970016344865e-17  -4.6401516646743859e-19  -1.3910408326053281e-18  -1.9720232073778967e-18  -1.6970635319578587e-18  -2.1425511984486127e-18  1.5937231196054136e-16  -3.3357063352388253e-19  -5.7938512561137588e-19  -1.1019424853222332e-18  -7.7882279030418142e-19  -3.8941139515207925e-19  6.2035696154716848e-17  -3.9572659748758754e-19  -1.2815619785318487e-19  -2.4240954091017424e-19  -1.2120477045508715e-19  -2.7707899125341044e-19  -1.0063115022689200e-19  -3.2704216886535324e-19  -2.3444504164951489e-19  4.4537129963954829e-34  -5.1256566327882359e-19  -9.5920339027098661e-36  -4.3728389850589095e-36  -1.0321398441531710e-22  -2.9686768436146875e-22  -3.3251002767391800e-22  -2.1881508593173001e-22  -1.7876855582024364e-22  -3.3183493035135405e-22  -2.8281812406015381e-22  -1.6245946032783920e-21  -9.7734159943328350e-22  5.1217352640944127e-19  -6.1333936893100509e-21  -4.5775637874116092e-21  -3.4454506665159870e-21  -1.7223694041005478e-21  -3.3277516547240960e-21  -2.1132555056793511e-20  -2.5665275147330076e-20  -5.8346797023279015e-21  -1.8891936358154162e-20  -1.4899674651697020e-20  -5.2811631497437076e-21  -2.3904961107771219e-21  1.8603782066733859e-18  -1.5116195492629638e-21  -6.9199032586586157e-21  -8.7915403898925439e-21  -4.9511039056334658e-21  -1.7433778434564366e-21  -3.3182091019862572e-22  4.6432026857480357e-37  -1.1207621346095726e-22  -9.2574883661479998e-23  -7.7130139989769201e-23  -6.3841061945239250e-23  3.6151069391256608e-21  -4.2903831036983579e-23  -3.4271096552851707e-23  -2.5905963584640991e-23  -2.0783491610720055e-23  -1.4141415998469765e-23  -1.2503896092138098e-24  6.9794977080073321e-39  0.0000000000000000e+00  6.3815546466980564e-03  1.2818166041959921e-02  2.7401144212867222e-03  2.6597413037063055e-03  7.6199560988912934e-04  1.9298819440729639e-03  2.6208969566043783e-03  1.1492744585885445e-02  1.0239830474497809e-02  4.3502691518164410e-04  1.3498035691693049e-02  4.2994150819576898e-03  5.5109848680874440e-03  1.9302596399415571e-03  2.0741087236123404e-02  1.1176971692381814e-02  3.1028534636515430e-03  9.3865088747450559e-03  1.4489638218138192e-02  6.3873731782166229e-03  1.8555482278604738e-02  1.3601848130457775e-02  5.9586091933037030e-03  4.6778877500656419e-03  1.0738251776144341e-02  9.9442094673425040e-03  2.4619747746345935e-03  8.4147280194151134e-03  7.2385599434194731e-03  1.3648584012545475e-02  2.3935930984872771e-02  6.0360097186067151e-03  9.2648061259278484e-03  1.8632491994887618e-02  1.2859370506959287e-02  8.3589541231880570e-03  3.0630467435791859e-02  4.6058415555715264e-02  4.5711419468163463e-02  3.6450298259832294e-02  1.8562879401966083e-02  6.0090743233595966e-03  1.9275299281840273e-02  1.1554362505737811e-02  1.4030024112806244e-02  1.1264042941156457e-02  1.5587252286736978e-03  7.4667307641198789e-03  2.3086568195872931e-03  4.3668620724564540e-03  3.0971535354885329e-03  3.6256192853095612e-03  2.0885158192391820e-04  5.7870421683838156e-03  2.2318776164762721e-03  6.0456065849817946e-04  4.6399809651172212e-05  7.8809174118120933e-05  4.1958315120466349e-05  1.8700273448839839e-05  7.7501104529773616e-06  2.1149129204281465e-06  2.8843656976466786e-06  1.7782251566871057e-06  7.2360212329812087e-06  1.4132667721721752e-05  3.5212442104170351e-05  6.5745624978834856e-07  4.4146713406232303e-05  1.2664661416639583e-04  1.9138751185808447e-05  6.2067721351379319e-05  6.4129903266963513e-05  2.6191100516485062e-04  5.1308476033447000e-04  3.4225672673720962e-04  1.0510824533292049e-04  3.2336703527811346e-04  2.6296705574302144e-04  1.3835504781889828e-04  2.6331441520504438e-05  5.4461833910293126e-05  3.4455887834957802e-05  1.5045442219727647e-04  1.5856180575216141e-04  1.0217244225394773e-04  4.5678064016803779e-05  1.3040935505927539e-05  2.5737627299534351e-07  2.8524469450991498e-06  2.7572686219499240e-06  2.0686592380582059e-06  1.4990939823672260e-06  1.1232088502747377e-06  8.7742466832591432e-07  6.9828304416183100e-07  5.4417199129361344e-07  4.3750837487225694e-07  2.1886551022210209e-07  -1.9187667157114328e-23  -3.5465102917546165e-19  1.0947260047090442e-03  2.2261046477554391e-03  1.7135048685658677e-03  3.7512156736193010e-03  1.1794928478938710e-02  1.8464546638899460e-03  9.7423973741386678e-03  1.3659613919086251e-05  4.5413315403996044e-03  1.1188754387494197e-02  1.1120120870898361e-02  8.1549534758975153e-03  2.1824061706261690e-02  2.0608641851060469e-02  1.5246710769719913e-02  1.4848894875726373e-03  2.6448287651419228e-02  6.6312396170202488e-03  3.6446852982488891e-03  7.2831575924440419e-03  1.1900390218296975e-02  1.0348738433366157e-02  1.2144321291123377e-02  7.7551888270188741e-03  1.1198595415245975e-03  1.0267017342222299e-02  1.5984525624010905e-02  2.0946677638856565e-02  5.2772125052038578e-03  2.3249715351751087e-02  1.6921695923642188e-02  1.6356167206766442e-02  1.4208931102595740e-02  1.8164726270148188e-02  2.0078334784813166e-02  6.1636793864859184e-04  2.4374369621774528e-02  4.3872347842610772e-02  4.9297514763167891e-02  5.4692126736888114e-02  3.1088098431559505e-02  3.7533430556484335e-03  1.0540336087978176e-02  2.2112869360727930e-02  5.4014775172196456e-03  2.6131295926808290e-03  4.8400476985899273e-03  8.8266201382505485e-03  3.5516667938294741e-03  5.5205501792358310e-03  8.4914253142700754e-04  3.7616878691237600e-03  3.7464643584227903e-03  6.0637077002365126e-03  4.1568108541011686e-03  9.3822866005185013e-04  4.1421284770595384e-04  1.2892637949760288e-04  8.1764578868220582e-05  4.3930766118196675e-05  2.1302446352778560e-05  1.3592636607464877e-05  9.0388991105752738e-06  1.0517761871750346e-05  1.1580468564090461e-05  1.6153576482883639e-05  3.9384025335723402e-05  3.1493751615199216e-05  1.3821597452341306e-07  1.3054331523474393e-04  1.1542210074354805e-04  6.2902615946947366e-05  4.9382700600742814e-05  1.4310307518583166e-04  4.8780155764793618e-04  5.7947559748613325e-04  9.4267755445625947e-05  3.1911079466937333e-04  3.6083011358926638e-04  2.1054149864305232e-04  9.7327281727606181e-05  4.1152665674457066e-05  3.4144940128412013e-05  1.3174119255530381e-04  1.9652372263961250e-04  1.4875932403656092e-04  7.8348490112317853e-05  2.8956505784755856e-05  5.7842644444774107e-06  1.6491526016435273e-06  2.7999398012010339e-06  2.2700401389392562e-06  1.6188386517068939e-06  1.1694300038208148e-06  8.9695967380036597e-07  7.1723142290123167e-07  5.7852931692951457e-07  4.9057469423589668e-07  3.4872600118859609e-07  9.0552420249472443e-24  1.9259299443872359e-34  8.6436099002746760e-03  2.2018271473969999e-03  1.6042473999344678e-02  7.4453230836953634e-03  5.4454815562925097e-04  2.4160082851030396e-03  5.5072665858710052e-04  3.3899900175566331e-03  1.8097930393174550e-02  2.8240851416944501e-02  1.3420766253574233e-02  1.8043182783842253e-02  8.7588230252016262e-03  2.9319131681020110e-03  1.0610929325501792e-02  4.0119599608912648e-02  1.5047841592089528e-03  4.7025858286517085e-03  1.5367669632413546e-02  2.7473120398717795e-02  2.1904851581329637e-02  3.9733453839739190e-02  3.8240776867591746e-02  2.4058076522719889e-02  1.2103970613047780e-02  1.8475461736102195e-02  2.1151453667324970e-02  6.9334188498040997e-03  1.5547164477847356e-02  1.3296377986898259e-02  2.1939286908936071e-02  4.4142464339758859e-02  2.1928925459539110e-02  3.5082237177121904e-03  2.3529662820803859e-02  1.5836997673727305e-02  1.3381404160077767e-02  3.8004484085798491e-02  5.4297316026076826e-02  4.7673563959875036e-02  4.1400369852418697e-02  2.2568007852473180e-02  1.2856537924319551e-02  2.2772388060544813e-02  1.1082472218054987e-02  2.6218039422491936e-02  2.8722642102843660e-02  1.4130133862296864e-02  1.6335769836330505e-02  9.0553307868714347e-03  1.0377725370163878e-02  7.5066530138484470e-03  2.8955368818735921e-03  6.6161106058245658e-04  8.2658652277009925e-03  3.1068965520911039e-04  9.3503607505570697e-04  1.4120396227298065e-04  9.9205984463498036e-05  4.8146517180696817e-05  2.3741599648957983e-05  1.3855400079178723e-05  9.9445326577633592e-06  1.3931516579799727e-05  1.2576531063331976e-05  2.1295318837221628e-05  2.6587827832778460e-05  6.1073073176045033e-05  7.8792218422128197e-07  6.1046852396436961e-05  1.8663219729156733e-04  1.4478979781612799e-05  8.1336086369717295e-05  3.9515045937496351e-05  3.1059501408489979e-04  6.5058869046593119e-04  3.8688363698283424e-04  2.0155369446874245e-04  4.0309630857058871e-04  2.8529596503707198e-04  1.4400218677316045e-04  2.8566026569949343e-05  8.0527041583729309e-05  5.5965646831213507e-05  2.0130451671576856e-04  1.8565744888865735e-04  1.1113790283189346e-04  4.9326462727241027e-05  1.5379466266828973e-05  2.1060200021702627e-06  1.4360538456931453e-06  1.7005288871850768e-06  1.2700798712548001e-06  8.8731762421397518e-07  6.5334024577934002e-07  5.2125481046834830e-07  4.3359962621326869e-07  3.4873872640165135e-07  3.2093107311438394e-07  -1.5281426560689738e-37  -1.1562708919514017e-19  2.3499278409698288e-03  3.0300634528917405e-03  6.7206153226941831e-03  2.6254437876498437e-03  1.5554510104576539e-03  1.0277569527320988e-02  1.0909729747118449e-02  1.2090164962090900e-02  4.7545775564453120e-03  3.7792227995108629e-03  6.2532543078196072e-03  1.7642837064246002e-02  2.2720756058635050e-02  2.2274690359715039e-02  3.7553144087274566e-02  1.9818263119264538e-03  4.2038706783523510e-03  3.3410700124688421e-02  1.7420752012539096e-02  1.4110005186208733e-02  1.7933527113754507e-02  2.9017069253356796e-03  2.9723095399613471e-03  7.7032475603607351e-03  8.9431906336700142e-03  2.7038386167439303e-03  2.1690729176706808e-02  2.9772338428938148e-02  3.1468925776220895e-02  1.0561484665746454e-02  2.6961390675902887e-02  2.3168373669895843e-02  2.4756439009276734e-02  3.0306509969554384e-02  1.3397354663287314e-02  2.0262013139597215e-02  1.9747760358663842e-03  2.5591166651519032e-02  4.5817206603140918e-02  5.2964142662106674e-02  5.7821630375865324e-02  2.6754788974817301e-02  6.4072148872659478e-03  7.9590048979726203e-03  2.6471210166577479e-02  9.4271449048279610e-03  9.1580403405701026e-03  1.5842232665556774e-02  2.9450796926907912e-03  3.0078534671153438e-03  5.2354903854911553e-03  5.8045196757837674e-04  6.0693372034963979e-03  3.5963343643695442e-03  8.0350364031729366e-03  4.2398826828402743e-03  5.3826225161602724e-04  8.6448856277831273e-04  7.9516673152602103e-05  7.3964441028692325e-05  3.1462095905509552e-05  1.0579839364872989e-05  7.8471368625794763e-06  7.0066969278617939e-06  1.3697535698241137e-05  1.6532575128696316e-05  2.4138297545454246e-05  5.1953561062429103e-05  4.5112138822689710e-05  4.4121536162660642e-06  1.6361729343474638e-04  1.4546655493776072e-04  8.4276682148780717e-05  3.7196077853295521e-05  1.2549038962982604e-04  5.4422719101379776e-04  6.5103075371281940e-04  5.2669590386218036e-05  3.9769940377622209e-04  3.8616449221006425e-04  1.9846439664290944e-04  9.4712056089069435e-05  5.4584509618109239e-05  4.3776629303073060e-05  1.6247118483769772e-04  2.2296275291678168e-04  1.5288725218964757e-04  7.5946300897570431e-05  2.8109199019496658e-05  6.8021880340556199e-06  2.1036812574635993e-09  1.2731497905669784e-06  1.0423324693944928e-06  6.5929280345328611e-07  4.1738488554482306e-07  3.0246778889965064e-07  2.4177936660300505e-07  1.9414199130483603e-07  1.7149627915800412e-07  -1.7440982698982181e-23  -4.8323089366248727e-19  1.6005431606782559e-02  1.4397520412205827e-02  1.6787367969932040e-03  1.6394075633594917e-02  1.4799606958876950e-02  1.9861339754822837e-03  7.2514376195003645e-03  3.6080499226513693e-03  1.0146835727033789e-02  1.7141179250918594e-02  3.0986876566452048e-02  2.6876484782802759e-02  8.2669084618191939e-03  9.9302539662663378e-03  1.0315794485800493e-02  2.3072789992578586e-03  4.5700723487092580e-02  9.6660589926078622e-03  1.3676049656956825e-02  9.4910394509588828e-03  2.7021596432545376e-02  2.4001816171831804e-02  4.5933836572513577e-02  5.0137396676453318e-02  3.8644369656264506e-02  2.0368962183751980e-02  1.8352351581613024e-02  1.9973367413171322e-02  4.0670825236236640e-03  2.6675533184305041e-02  2.2908381929531704e-02  2.8389386986558064e-02  5.8437874063209286e-02  2.5339086391495489e-02  6.3608118998801089e-03  2.6291921203856237e-02  1.7267190210637672e-02  1.8394661296352657e-02  4.1933584811455378e-02  5.5661132250152470e-02  4.7449100010451259e-02  4.7387452187514528e-02  2.2128623649939980e-02  2.0812543278704455e-02  2.1017214251421876e-02  1.1146538930380324e-02  3.2212481328713190e-02  3.4536418313597265e-02  1.7360507266296631e-02  2.0278413933207576e-02  1.4070429277297887e-02  1.4174790596019385e-02  9.7901400588548248e-03  2.9592924310648280e-03  4.0215719351872003e-04  1.0348015930747011e-02  9.5528567021348004e-04  5.9372249796494465e-04  4.3679289523975692e-04  1.4189044334075214e-04  7.7061884114272040e-05  3.9844927119717003e-05  2.1736752420668976e-05  1.4490016593160590e-05  1.8119247454259439e-05  1.7254995309644725e-05  2.7623124058962362e-05  3.4951622570356472e-05  7.5408401541218346e-05  2.0237743557547583e-06  7.1402771073707697e-05  2.2213250325334023e-04  1.5762422770244491e-05  9.4896710482516956e-05  2.5252289916640884e-05  3.3289308376255983e-04  7.2488478583788887e-04  4.1092107736272421e-04  2.6768656678353926e-04  4.6153258018861960e-04  2.9899885714026531e-04  1.4138066572653814e-04  2.5930500767759264e-05  9.4145949170064717e-05  6.6333077912472511e-05  2.3269717274655111e-04  2.0271234948051744e-04  1.1347882542957872e-04  4.8304841227846541e-05  1.4930062901180573e-05  2.3270995278754782e-06  9.9366554317542810e-07  1.2392896850999239e-06  8.2420903356399639e-07  4.6377831126179946e-07  2.6347897371199203e-07  1.7297465361366781e-07  1.2330150338329527e-07  6.1705176449636083e-08  -3.4253253816469059e-24  1.4444474582904269e-34  8.7051138905291630e-03  1.0131783564478144e-03  3.9802238473273192e-03  1.2647685549839114e-02  8.3930318087855459e-03  2.9572873121475968e-04  6.7488483720175548e-03  1.2878947903901572e-02  1.0823755354719156e-02  3.8924791313821095e-03  9.0580990993486821e-03  4.3141497833215177e-03  6.9784824800683464e-03  2.9895096297202984e-02  1.2368186416360592e-02  3.7586301833608490e-02  6.1349652440949509e-03  1.4261704979291542e-02  2.6817334272757624e-02  1.6911553148482708e-02  1.6433788561486411e-02  2.4985104732450965e-02  4.8625269617219797e-03  8.0160323688424785e-03  6.5732743418268338e-03  5.8391400170375643e-04  4.9379735823788084e-03  2.6722388798475268e-02  3.7879547218813203e-02  3.3566750285391245e-02  6.5541940376188631e-03  3.0705839952556831e-02  2.2548450472137264e-02  3.3136663516280154e-02  4.2597098207932567e-02  8.1897396735334162e-03  2.0683784365079141e-02  1.0407357298664519e-03  2.8525376130936680e-02  5.0733415668049058e-02  5.7569036270984648e-02  5.7319771795680534e-02  2.6007354633705855e-02  4.7927217298799670e-03  1.1353294382939567e-02  2.8727288475679014e-02  1.1770186306338720e-02  1.5129180817077306e-02  2.6776342403188665e-02  5.2653529482700216e-03  1.8340286777737279e-03  1.3108068833682426e-03  3.8490980027202685e-03  9.0301920943661653e-03  2.7272591835170524e-03  8.5058673020359122e-03  5.1549441473383228e-03  2.0940393301097670e-03  1.0904676741450841e-03  5.8863733932245004e-05  1.2564198549239755e-04  7.9032708805300991e-05  5.1209822819806143e-05  4.0049881700780490e-05  3.2350000982564623e-05  3.4298668323548625e-05  3.3821234911165288e-05  3.9840650831852371e-05  7.0027231725917303e-05  5.7963300960809802e-05  3.9277710441404757e-06  1.9187759857755378e-04  1.6350828968895030e-04  9.5984341852037517e-05  3.7464168871973350e-05  1.3408326136597876e-04  6.0132987451848785e-04  7.0044794441853121e-04  2.1624545104836583e-05  4.6319043906089830e-04  4.1840367752352624e-04  2.0252044684586422e-04  9.4746551799968054e-05  6.0557049595027469e-05  4.0805125041558223e-05  1.8829881755645829e-04  2.4803203289792139e-04  1.6181823922059430e-04  7.6776627179069135e-05  2.8144602966208901e-05  7.2279541752931001e-06  3.9207408087794771e-07  1.0946173085896859e-06  9.9382048379751391e-07  6.3223411722877285e-07  3.6627110459128436e-07  2.2437730004133190e-07  1.4378864056497564e-07  7.1905894774352486e-08  -3.9915789992380192e-24  -1.3109449323727641e-19  9.1991555405321194e-04  6.6899493474684808e-03  4.4039832271196835e-03  9.5172298586963938e-03  1.1743342004348328e-02  1.6427899507660704e-02  8.8931226313926164e-04  1.1433048238099906e-02  7.2744255819272730e-03  1.2801947482890999e-02  1.2960189289527945e-02  2.4303825605181167e-02  2.2791054902706349e-02  2.9873286657128768e-03  4.5514894321747982e-04  1.2333317433845119e-02  7.9129327909621267e-03  3.8766678089630476e-02  6.4439325588235745e-03  1.4881643266274728e-02  3.1777951268645108e-03  2.0555307320601086e-02  1.5966219402563354e-02  3.8597250857525106e-02  4.3057031959392499e-02  3.5667120265467596e-02  2.0826151483110705e-02  1.5663217650414379e-02  1.3597404558532894e-02  3.8814631497825921e-04  3.2803356478530048e-02  3.0103427226909289e-02  2.9522048622188636e-02  6.4600369030223953e-02  2.0647954551384521e-02  1.7839594800611803e-02  2.5211606390070116e-02  1.6430880569154330e-02  2.2748919680044805e-02  4.5684295774874810e-02  5.7469384555698513e-02  5.0897431409146481e-02  5.0749407046612911e-02  1.8561185191713268e-02  2.4018077863246948e-02  2.0599144239893927e-02  1.1021627346401067e-02  3.3940022595097603e-02  3.1633616209549617e-02  9.3880644979525887e-03  1.4943919848918952e-02  1.2045180489187573e-02  1.3073643319868423e-02  8.6596374617142671e-03  4.7074128791448674e-03  1.2102482139317848e-03  1.1385456804408410e-02  9.9039793470643840e-04  4.8973110139895225e-04  7.2814209754500027e-04  1.2351839327116664e-04  1.1030210738779838e-04  7.3408858372311976e-05  5.5517378466347004e-05  4.6242087766508757e-05  4.7812470337040354e-05  4.3776178654358955e-05  5.1710231548939376e-05  5.9140165206255265e-05  9.7875867143331377e-05  1.3744396385823867e-05  9.7089695159146072e-05  2.5120749961096559e-04  1.4453453441429604e-05  9.8919061682181436e-05  2.7283511106105921e-05  3.7397180016752129e-04  7.8833357024422576e-04  4.1123562642344944e-04  3.2722831299216993e-04  5.1447171594417825e-04  3.1370194731232781e-04  1.4231196739558305e-04  1.8346689342107251e-05  9.6687610694588206e-05  8.6088824289943234e-05  2.6150817650082392e-04  2.2041717956725173e-04  1.1772115201570755e-04  4.8060374814222828e-05  1.4957714504164141e-05  2.8944171530621807e-06  4.2878403734530551e-07  8.9013069101288211e-07  6.5246687423249679e-07  3.8533393255145915e-07  2.2538774195769676e-07  1.4899471858063113e-07  9.2282743471370527e-08  2.6124582628622639e-23  -7.7541670345584408e-20  5.8746092846079633e-03  3.4877232026070304e-03  3.7544076312237668e-03  5.5488636217956126e-03  6.3583710985979994e-03  1.3781985244829318e-02  2.3609793083542247e-04  2.9011579757912591e-03  1.0940397379430256e-02  9.7533656644750236e-03  2.2799505808779020e-03  4.8671343335050434e-03  4.0349165108032794e-03  1.8625779781724844e-03  2.4119036110824020e-02  9.1306198389281713e-03