<?xml version="1.0"?>
<VTKFile type="UnstructuredGrid"  version="0.1"  >
<UnstructuredGrid>
<Piece  NumberOfPoints="10201" NumberOfCells="20000">
<Points>
<DataArray  type="Float64"  NumberOfComponents="3"  format="ascii">0 0 0  0.01 0 0  0.02 0 0  0.03 0 0  0.04 0 0  0.05 0 0  0.06 0 0  0.07000000000000001 0 0  0.08 0 0  0.09 0 0  0.1 0 0  0.11 0 0  0.12 0 0  0.13 0 0  0.14 0 0  0.15 0 0  0.16 0 0  0.17 0 0  0.18 0 0  0.19 0 0  0.2 0 0  0.21 0 0  0.22 0 0  0.23 0 0  0.24 0 0  0.25 0 0  0.26 0 0  0.27 0 0  0.28 0 0  0.29 0 0  0.3 0 0  0.31 0 0  0.32 0 0  0.33 0 0  0.34 0 0  0.35 0 0  0.36 0 0  0.37 0 0  0.38 0 0  0.39 0 0  0.4 0 0  0.41 0 0  0.42 0 0  0.43 0 0  0.44 0 0  0.45 0 0  0.46 0 0  0.47 0 0  0.48 0 0  0.49 0 0  0.5 0 0  0.51 0 0  0.52 0 0  0.53 0 0  0.54 0 0  0.55 0 0  0.5600000000000001 0 0  0.57 0 0  0.58 0 0  0.59 0 0  0.6 0 0  0.61 0 0  0.62 0 0  0.63 0 0  0.64 0 0  0.65 0 0  0.66 0 0  0.67 0 0  0.68 0 0  0.6899999999999999 0 0  0.7 0 0  0.71 0 0  0.72 0 0  0.73 0 0  0.74 0 0  0.75 0 0  0.76 0 0  0.77 0 0  0.78 0 0  0.79 0 0  0.8 0 0  0.8100000000000001 0 0  0.82 0 0  0.83 0 0  0.84 0 0  0.85 0 0  0.86 0 0  0.87 0 0  0.88 0 0  0.89 0 0  0.9 0 0  0.91 0 0  0.92 0 0  0.93 0 0  0.9399999999999999 0 0  0.95 0 0  0.96 0 0  0.97 0 0  0.98 0 0  0.99 0 0  1 0 0  0 0.01 0  0.01 0.01 0  0.02 0.01 0  0.03 0.01 0  0.04 0.01 0  0.05 0.01 0  0.06 0.01 0  0.07000000000000001 0.01 0  0.08 0.01 0  0.09 0.01 0  0.1 0.01 0  0.11 0.01 0  0.12 0.01 0  0.13 0.01 0  0.14 0.01 0  0.15 0.01 0  0.16 0.01 0  0.17 0.01 0  0.18 0.01 0  0.19 0.01 0  0.2 0.01 0  0.21 0.01 0  0.22 0.01 0  0.23 0.01 0  0.24 0.01 0  0.25 0.01 0  0.26 0.01 0  0.27 0.01 0  0.28 0.01 0  0.29 0.01 0  0.3 0.01 0  0.31 0.01 0  0.32 0.01 0  0.33 0.01 0  0.34 0.01 0  0.35 0.01 0  0.36 0.01 0  0.37 0.01 0  0.38 0.01 0  0.39 0.01 0  0.4 0.01 0  0.41 0.01 0  0.42 0.01 0  0.43 0.01 0  0.44 0.01 0  0.45 0.01 0  0.46 0.01 0  0.47 0.01 0  0.48 0.01 0  0.49 0.01 0  0.5 0.01 0  0.51 0.01 0  0.52 0.01 0  0.53 0.01 0  0.54 0.01 0  0.55 0.01 0  0.5600000000000001 0.01 0  0.57 0.01 0  0.58 0.01 0  0.59 0.01 0  0.6 0.01 0  0.61 0.01 0  0.62 0.01 0  0.63 0.01 0  0.64 0.01 0  0.65 0.01 0  0.66 0.01 0  0.67 0.01 0  0.68 0.01 0  0.6899999999999999 0.01 0  0.7 0.01 0  0.71 0.01 0  0.72 0.01 0  0.73 0.01 0  0.74 0.01 0  0.75 0.01 0  0.76 0.01 0  0.77 0.01 0  0.78 0.01 0  0.79 0.01 0  0.8 0.01 0  0.8100000000000001 0.01 0  0.82 0.01 0  0.83 0.01 0  0.84 0.01 0  0.85 0.01 0  0.86 0.01 0  0.87 0.01 0  0.88 0.01 0  0.89 0.01 0  0.9 0.01 0  0.91 0.01 0  0.92 0.01 0  0.93 0.01 0  0.9399999999999999 0.01 0  0.95 0.01 0  0.96 0.01 0  0.97 0.01 0  0.98 0.01 0  0.99 0.01 0  1 0.01 0  0 0.02 0  0.01 0.02 0  0.02 0.02 0  0.03 0.02 0  0.04 0.02 0  0.05 0.02 0  0.06 0.02 0  0.07000000000000001 0.02 0  0.08 0.02 0  0.09 0.02 0  0.1 0.02 0  0.11 0.02 0  0.12 0.02 0  0.13 0.02 0  0.14 0.02 0  0.15 0.02 0  0.16 0.02 0  0.17 0.02 0  0.18 0.02 0  0.19 0.02 0  0.2 0.02 0  0.21 0.02 0  0.22 0.02 0  0.23 0.02 0  0.24 0.02 0  0.25 0.02 0  0.26 0.02 0  0.27 0.02 0  0.28 0.02 0  0.29 0.02 0  0.3 0.02 0  0.31 0.02 0  0.32 0.02 0  0.33 0.02 0  0.34 0.02 0  0.35 0.02 0  0.36 0.02 0  0.37 0.02 0  0.38 0.02 0  0.39 0.02 0  0.4 0.02 0  0.41 0.02 0  0.42 0.02 0  0.43 0.02 0  0.44 0.02 0  0.45 0.02 0  0.46 0.02 0  0.47 0.02 0  0.48 0.02 0  0.49 0.02 0  0.5 0.02 0  0.51 0.02 0  0.52 0.02 0  0.53 0.02 0  0.54 0.02 0  0.55 0.02 0  0.5600000000000001 0.02 0  0.57 0.02 0  0.58 0.02 0  0.59 0.02 0  0.6 0.02 0  0.61 0.02 0  0.62 0.02 0  0.63 0.02 0  0.64 0.02 0  0.65 0.02 0  0.66 0.02 0  0.67 0.02 0  0.68 0.02 0  0.6899999999999999 0.02 0  0.7 0.02 0  0.71 0.02 0  0.72 0.02 0  0.73 0.02 0  0.74 0.02 0  0.75 0.02 0  0.76 0.02 0  0.77 0.02 0  0.78 0.02 0  0.79 0.02 0  0.8 0.02 0  0.8100000000000001 0.02 0  0.82 0.02 0  0.83 0.02 0  0.84 0.02 0  0.85 0.02 0  0.86 0.02 0  0.87 0.02 0  0.88 0.02 0  0.89 0.02 0  0.9 0.02 0  0.91 0.02 0  0.92 0.02 0  0.93 0.02 0  0.9399999999999999 0.02 0  0.95 0.02 0  0.96 0.02 0  0.97 0.02 0  0.98 0.02 0  0.99 0.02 0  1 0.02 0  0 0.03 0  0.01 0.03 0  0.02 0.03 0  0.03 0.03 0  0.04 0.03 0  0.05 0.03 0  0.06 0.03 0  0.07000000000000001 0.03 0  0.08 0.03 0  0.09 0.03 0  0.1 0.03 0  0.11 0.03 0  0.12 0.03 0  0.13 0.03 0  0.14 0.03 0  0.15 0.03 0  0.16 0.03 0  0.17 0.03 0  0.18 0.03 0  0.19 0.03 0  0.2 0.03 0  0.21 0.03 0  0.22 0.03 0  0.23 0.03 0  0.24 0.03 0  0.25 0.03 0  0.26 0.03 0  0.27 0.03 0  0.28 0.03 0  0.29 0.03 0  0.3 0.03 0  0.31 0.03 0  0.32 0.03 0  0.33 0.03 0  0.34 0.03 0  0.35 0.03 0  0.36 0.03 0  0.37 0.03 0  0.38 0.03 0  0.39 0.03 0  0.4 0.03 0  0.41 0.03 0  0.42 0.03 0  0.43 0.03 0  0.44 0.03 0  0.45 0.03 0  0.46 0.03 0  0.47 0.03 0  0.48 0.03 0  0.49 0.03 0  0.5 0.03 0  0.51 0.03 0  0.52 0.03 0  0.53 0.03 0  0.54 0.03 0  0.55 0.03 0  0.5600000000000001 0.03 0  0.57 0.03 0  0.58 0.03 0  0.59 0.03 0  0.6 0.03 0  0.61 0.03 0  0.62 0.03 0  0.63 0.03 0  0.64 0.03 0  0.65 0.03 0  0.66 0.03 0  0.67 0.03 0  0.68 0.03 0  0.6899999999999999 0.03 0  0.7 0.03 0  0.71 0.03 0  0.72 0.03 0  0.73 0.03 0  0.74 0.03 0  0.75 0.03 0  0.76 0.03 0  0.77 0.03 0  0.78 0.03 0  0.79 0.03 0  0.8 0.03 0  0.8100000000000001 0.03 0  0.82 0.03 0  0.83 0.03 0  0.84 0.03 0  0.85 0.03 0  0.86 0.03 0  0.87 0.03 0  0.88 0.03 0  0.89 0.03 0  0.9 0.03 0  0.91 0.03 0  0.92 0.03 0  0.93 0.03 0  0.9399999999999999 0.03 0  0.95 0.03 0  0.96 0.03 0  0.97 0.03 0  0.98 0.03 0  0.99 0.03 0  1 0.03 0  0 0.04 0  0.01 0.04 0  0.02 0.04 0  0.03 0.04 0  0.04 0.04 0  0.05 0.04 0  0.06 0.04 0  0.07000000000000001 0.04 0  0.08 0.04 0  0.09 0.04 0  0.1 0.04 0  0.11 0.04 0  0.12 0.04 0  0.13 0.04 0  0.14 0.04 0  0.15 0.04 0  0.16 0.04 0  0.17 0.04 0  0.18 0.04 0  0.19 0.04 0  0.2 0.04 0  0.21 0.04 0  0.22 0.04 0  0.23 0.04 0  0.24 0.04 0  0.25 0.04 0  0.26 0.04 0  0.27 0.04 0  0.28 0.04 0  0.29 0.04 0  0.3 0.04 0  0.31 0.04 0  0.32 0.04 0  0.33 0.04 0  0.34 0.04 0  0.35 0.04 0  0.36 0.04 0  0.37 0.04 0  0.38 0.04 0  0.39 0.04 0  0.4 0.04 0  0.41 0.04 0  0.42 0.04 0  0.43 0.04 0  0.44 0.04 0  0.45 0.04 0  0.46 0.04 0  0.47 0.04 0  0.48 0.04 0  0.49 0.04 0  0.5 0.04 0  0.51 0.04 0  0.52 0.04 0  0.53 0.04 0  0.54 0.04 0  0.55 0.04 0  0.5600000000000001 0.04 0  0.57 0.04 0  0.58 0.04 0  0.59 0.04 0  0.6 0.04 0  0.61 0.04 0  0.62 0.04 0  0.63 0.04 0  0.64 0.04 0  0.65 0.04 0  0.66 0.04 0  0.67 0.04 0  0.68 0.04 0  0.6899999999999999 0.04 0  0.7 0.04 0  0.71 0.04 0  0.72 0.04 0  0.73 0.04 0  0.74 0.04 0  0.75 0.04 0  0.76 0.04 0  0.77 0.04 0  0.78 0.04 0  0.79 0.04 0  0.8 0.04 0  0.8100000000000001 0.04 0  0.82 0.04 0  0.83 0.04 0  0.84 0.04 0  0.85 0.04 0  0.86 0.04 0  0.87 0.04 0  0.88 0.04 0  0.89 0.04 0  0.9 0.04 0  0.91 0.04 0  0.92 0.04 0  0.93 0.04 0  0.9399999999999999 0.04 0  0.95 0.04 0  0.96 0.04 0  0.97 0.04 0  0.98 0.04 0  0.99 0.04 0  1 0.04 0  0 0.05 0  0.01 0.05 0  0.02 0.05 0  0.03 0.05 0  0.04 0.05 0  0.05 0.05 0  0.06 0.05 0  0.07000000000000001 0.05 0  0.08 0.05 0  0.09 0.05 0  0.1 0.05 0  0.11 0.05 0  0.12 0.05 0  0.13 0.05 0  0.14 0.05 0  0.15 0.05 0  0.16 0.05 0  0.17 0.05 0  0.18 0.05 0  0.19 0.05 0  0.2 0.05 0  0.21 0.05 0  0.22 0.05 0  0.23 0.05 0  0.24 0.05 0  0.25 0.05 0  0.26 0.05 0  0.27 0.05 0  0.28 0.05 0  0.29 0.05 0  0.3 0.05 0  0.31 0.05 0  0.32 0.05 0  0.33 0.05 0  0.34 0.05 0  0.35 0.05 0  0.36 0.05 0  0.37 0.05 0  0.38 0.05 0  0.39 0.05 0  0.4 0.05 0  0.41 0.05 0  0.42 0.05 0  0.43 0.05 0  0.44 0.05 0  0.45 0.05 0  0.46 0.05 0  0.47 0.05 0  0.48 0.05 0  0.49 0.05 0  0.5 0.05 0  0.51 0.05 0  0.52 0.05 0  0.53 0.05 0  0.54 0.05 0  0.55 0.05 0  0.5600000000000001 0.05 0  0.57 0.05 0  0.58 0.05 0  0.59 0.05 0  0.6 0.05 0  0.61 0.05 0  0.62 0.05 0  0.63 0.05 0  0.64 0.05 0  0.65 0.05 0  0.66 0.05 0  0.67 0.05 0  0.68 0.05 0  0.6899999999999999 0.05 0  0.7 0.05 0  0.71 0.05 0  0.72 0.05 0  0.73 0.05 0  0.74 0.05 0  0.75 0.05 0  0.76 0.05 0  0.77 0.05 0  0.78 0.05 0  0.79 0.05 0  0.8 0.05 0  0.8100000000000001 0.05 0  0.82 0.05 0  0.83 0.05 0  0.84 0.05 0  0.85 0.05 0  0.86 0.05 0  0.87 0.05 0  0.88 0.05 0  0.89 0.05 0  0.9 0.05 0  0.91 0.05 0  0.92 0.05 0  0.93 0.05 0  0.9399999999999999 0.05 0  0.95 0.05 0  0.96 0.05 0  0.97 0.05 0  0.98 0.05 0  0.99 0.05 0  1 0.05 0  0 0.06 0  0.01 0.06 0  0.02 0.06 0  0.03 0.06 0  0.04 0.06 0  0.05 0.06 0  0.06 0.06 0  0.07000000000000001 0.06 0  0.08 0.06 0  0.09 0.06 0  0.1 0.06 0  0.11 0.06 0  0.12 0.06 0  0.13 0.06 0  0.14 0.06 0  0.15 0.06 0  0.16 0.06 0  0.17 0.06 0  0.18 0.06 0  0.19 0.06 0  0.2 0.06 0  0.21 0.06 0  0.22 0.06 0  0.23 0.06 0  0.24 0.06 0  0.25 0.06 0  0.26 0.06 0  0.27 0.06 0  0.28 0.06 0  0.29 0.06 0  0.3 0.06 0  0.31 0.06 0  0.32 0.06 0  0.33 0.06 0  0.34 0.06 0  0.35 0.06 0  0.36 0.06 0  0.37 0.06 0  0.38 0.06 0  0.39 0.06 0  0.4 0.06 0  0.41 0.06 0  0.42 0.06 0  0.43 0.06 0  0.44 0.06 0  0.45 0.06 0  0.46 0.06 0  0.47 0.06 0  0.48 0.06 0  0.49 0.06 0  0.5 0.06 0  0.51 0.06 0  0.52 0.06 0  0.53 0.06 0  0.54 0.06 0  0.55 0.06 0  0.5600000000000001 0.06 0  0.57 0.06 0  0.58 0.06 0  0.59 0.06 0  0.6 0.06 0  0.61 0.06 0  0.62 0.06 0  0.63 0.06 0  0.64 0.06 0  0.65 0.06 0  0.66 0.06 0  0.67 0.06 0  0.68 0.06 0  0.6899999999999999 0.06 0  0.7 0.06 0  0.71 0.06 0  0.72 0.06 0  0.73 0.06 0  0.74 0.06 0  0.75 0.06 0  0.76 0.06 0  0.77 0.06 0  0.78 0.06 0  0.79 0.06 0  0.8 0.06 0  0.8100000000000001 0.06 0  0.82 0.06 0  0.83 0.06 0  0.84 0.06 0  0.85 0.06 0  0.86 0.06 0  0.87 0.06 0  0.88 0.06 0  0.89 0.06 0  0.9 0.06 0  0.91 0.06 0  0.92 0.06 0  0.93 0.06 0  0.9399999999999999 0.06 0  0.95 0.06 0  0.96 0.06 0  0.97 0.06 0  0.98 0.06 0  0.99 0.06 0  1 0.06 0  0 0.07000000000000001 0  0.01 0.07000000000000001 0  0.02 0.07000000000000001 0  0.03 0.07000000000000001 0  0.04 0.07000000000000001 0  0.05 0.07000000000000001 0  0.06 0.07000000000000001 0  0.07000000000000001 0.07000000000000001 0  0.08 0.07000000000000001 0  0.09 0.07000000000000001 0  0.1 0.07000000000000001 0  0.11 0.07000000000000001 0  0.12 0.07000000000000001 0  0.13 0.07000000000000001 0  0.14 0.07000000000000001 0  0.15 0.07000000000000001 0  0.16 0.07000000000000001 0  0.17 0.0700
[...]
<PointData  Scalars="Indicator Function"> 
<DataArray  type="Float64"  Name="Indicator Function"  format="ascii">-3.9158248741274489e-19  6.7538505687362481e-19  2.8106996898119270e-17  1.3597311309772701e-18  7.1950416847895727e-17  -1.8934422965948049e-19  -5.6885430130373441e-19  3.4911105017979725e-17  1.5675859660616911e-16  -1.6570787272613812e-19  4.5969876910233889e-17  3.5582566991894257e-17  -2.8447841611054571e-19  -4.0691958060126542e-19  4.3113006877244887e-16  0.0000000000000000e+00  -1.2776474098818094e-18  3.7064971645444156e-16  -7.4345019530368795e-19  -1.0847176419053088e-18  8.3047729036732552e-16  -2.0330351807854351e-18  -7.7301308108318164e-19  3.7877640973076362e-17  -3.2627370315255342e-19  -8.5801820165815289e-19  -6.2477366467967013e-19  -1.3706751428618317e-18  9.7007316230382531e-16  -2.4764597078587499e-18  -3.5440345180133536e-18  -1.7720172590066764e-18  -1.8003850945140087e-18  -1.9396675441949695e-18  8.8100414147581672e-17  -1.1228642873737510e-18  -3.6398211476837535e-18  -5.4286635013731576e-18  -4.8509648950060840e-18  -5.9270538918496620e-18  4.3876759842892934e-16  -8.8038542874171613e-19  -1.5225830825850165e-18  -2.8763021433956244e-18  -2.0001040846717253e-18  -1.0000520423358334e-18  1.4895972724811524e-16  -9.4155630516965189e-19  -2.9606427579450050e-19  -6.0827626638519212e-19  -3.0413813319259615e-19  -6.2118690700810814e-19  -2.4218783095478297e-19  -8.4806068775696563e-19  -5.9830583680923035e-19  -8.5415822227832983e-20  1.6762433564041085e-17  -4.9603171487843353e-20  -3.6633204354273890e-20  -3.7402539089577361e-20  0.0000000000000000e+00  -1.1211069818675915e-19  -4.8879442919808921e-20  -4.4723949813431805e-20  -3.2868113379298744e-20  -1.3939107907392063e-20  -3.1782712992147461e-20  2.2569491535787920e-35  2.5711888481842610e-17  -8.0437951614638052e-20  -1.2356162565643011e-20  -7.8480674650980814e-21  -1.3541694921472752e-35  -6.2375025171284862e-20  -1.7727535597640508e-19  -1.4588781617556455e-19  -5.1014699181178965e-20  -1.2443585110868855e-19  -8.9135617293081071e-20  -3.9061161047559365e-20  -2.7953903745691484e-20  2.7637738526705742e-17  -1.1129232532885807e-20  -1.1940883054640661e-19  -8.6207874345549172e-20  -4.3294309678996474e-20  -2.2569491535787920e-35  -1.7273466606554628e-20  -3.0374974532928817e-20  -7.3575330315568681e-21  -5.7888494095840911e-21  -1.4199655413478235e-21  -6.5717754037147594e-21  3.5595980536935480e-18  -3.7510324586020859e-21  -1.6596620683707374e-21  -4.1791755148758115e-23  -6.5454310942986335e-22  -8.3342730755550400e-22  -1.6456920911512025e-37  3.7615819226313200e-37  -1.9259299443872359e-34  1.5416018195707364e-02  3.1307092447880949e-02  6.9699202970999871e-03  6.6671853952232499e-03  1.3223081139451930e-03  5.0062721262555503e-03  7.7444320143906500e-03  3.2223639167352026e-02  2.7075434478469457e-02  2.9851276554471473e-03  3.5809130632587366e-02  1.0249415110323196e-02  1.4660822972524452e-02  5.1230540572765300e-03  5.4845781600608108e-02  2.7036139101696853e-02  9.4979800453699522e-03  2.6785616180305689e-02  3.9081071743095150e-02  1.5736541892139033e-02  5.1829690577124617e-02  3.6623905930465578e-02  1.3925365695675132e-02  1.1755249023509046e-02  3.0913363626118070e-02  2.2509843547538086e-02  7.1889524102317671e-03  2.1097412045438167e-02  1.7904477414074142e-02  3.5659693363005777e-02  6.3843650138852459e-02  1.6024106180889820e-02  2.4420801472661829e-02  4.8979806968644728e-02  3.3587307191656458e-02  2.0227724744816246e-02  8.2365314487610433e-02  1.2780681737692229e-01  1.2880261242154586e-01  9.9449644239509763e-02  4.9311751619406347e-02  1.5859613955294463e-02  5.0918379078492643e-02  3.2692684885621805e-02  3.6030672041719156e-02  2.7182136527009997e-02  8.3394534293939303e-03  1.7806806167201466e-02  5.3334198485833120e-03  1.0957731066522669e-02  7.3356639073290245e-03  8.7257362019330324e-03  1.9031264284166856e-03  1.4325739975271005e-02  6.7905080679106266e-03  1.5387146606272851e-03  1.7871425970323691e-03  1.3198502838343603e-03  1.1979911912387154e-03  7.4788648806765925e-05  5.1707853390941497e-04  1.7610675273578306e-03  4.6460640965357673e-05  7.8244473437455409e-04  6.5570884496944344e-04  5.8697988868445042e-04  3.0457006855948236e-04  6.8067659322111322e-05  8.6694762288220086e-04  1.0155675042314190e-03  6.7463132530453233e-05  1.0764664858035025e-04  6.4049454932370319e-04  2.3238931625102761e-03  3.4513792046763896e-03  1.5992732800970799e-03  9.1899912089110191e-04  2.0681197174903694e-03  1.7772216409319612e-03  1.0972181185589154e-03  1.6053094586301311e-04  3.3396581847474244e-04  1.0053958134838023e-03  1.9074076727112687e-03  1.6683692240552633e-03  8.6267932911306513e-04  3.8212152929493375e-04  4.9822856833050134e-04  3.8627294821462266e-04  5.7374074473150625e-05  1.0428264017562740e-04  1.2820010428498549e-04  2.1811628737554843e-04  1.7803284634995638e-04  1.2546474786229677e-04  5.8176378701096340e-05  1.4955543711452172e-05  1.2044930365399098e-05  2.7204536055551377e-05  4.8901417238703340e-22  -9.0464206016728184e-19  2.9430772824816844e-03  6.6867229288000291e-03  2.0593264234975753e-03  8.2378170461720763e-03  2.8852105280773754e-02  3.2522627130357777e-03  2.5900676719152596e-02  2.9587327477103111e-03  1.0256952349405605e-02  3.0000085720970293e-02  2.7275170822567543e-02  2.0623536545458700e-02  5.7685747353806528e-02  5.4385085326549246e-02  4.0704045494314195e-02  3.0495390783195058e-03  6.7161582238640410e-02  1.6310394192366798e-02  1.2900344130210791e-02  2.1132020053126831e-02  3.5302831100824140e-02  2.6557379407977776e-02  2.9075487709685724e-02  1.9437604469517783e-02  2.2273335584205656e-03  3.1104969520441596e-02  3.7361409007634620e-02  5.3187203837614785e-02  1.3647966121104426e-02  6.0148237817570303e-02  4.4857533901608883e-02  4.4118813522734453e-02  3.7737287676483197e-02  4.9063312092870806e-02  5.0992615972911944e-02  4.4220360351707020e-04  6.3632199986716390e-02  1.2014942959013143e-01  1.3846609711926749e-01  1.5159408241952319e-01  8.3450919305832913e-02  1.0035377524441554e-02  2.7825541960005931e-02  5.9056045075553738e-02  1.1632045792747073e-02  8.5001695199741351e-03  8.6354557295245816e-03  1.8768943073353261e-02  8.7882898066279653e-03  1.4529513791286211e-02  3.0127595037776848e-03  7.9474444434754991e-03  8.9355527090476620e-03  1.6132722134077931e-02  1.0764110394289343e-02  8.0834172695919723e-04  3.5378892061712563e-05  1.3865788526031663e-03  1.8200385660121297e-03  2.3546305848918133e-03  1.2626049266724682e-03  2.3563434416830047e-03  7.1739409875129414e-04  8.8276442185748641e-04  7.6850185264084063e-04  6.8714273157373135e-04  6.5053916702371344e-04  1.6173042447590462e-05  5.1259502935139319e-04  1.4395231101659159e-03  3.5092498567812464e-04  2.4542028564723757e-04  6.8619463425781339e-05  1.7060559592062168e-03  3.5968322631024087e-03  3.0994033674866185e-03  1.1374552447134513e-04  1.9135670081241332e-03  2.2012344103862192e-03  1.5057635331791564e-03  7.9762578299421021e-04  4.5920556378258639e-04  2.8541150987413679e-04  2.0105880723156398e-03  1.9415873248637622e-03  1.4039506642997274e-03  4.7816140962169106e-04  5.2200308952229197e-04  5.2169664372015117e-04  2.1097420076140883e-04  1.2223905320784065e-04  9.6144561997917258e-05  2.2680664991419944e-04  2.4530138579041449e-04  1.7485595476116430e-04  1.1054028177524723e-04  4.8916299617613072e-05  1.0374859104086891e-05  1.8832235489323607e-05  -1.5062382243380013e-21  5.7777898331617076e-34  2.2529364847447053e-02  7.2625245634687363e-03  4.1637640428155508e-02  1.8082185948983202e-02  1.8918745284129319e-03  3.5501639043869940e-03  2.1919345782236460e-03  9.8527465536992695e-03  4.9673488953249446e-02  7.4103937079015789e-02  3.8989065480623031e-02  4.7241294627827661e-02  2.4436113987213629e-02  7.3650349042219485e-03  2.8425580958121109e-02  1.0508199862420553e-01  1.5118996030709592e-03  1.5183710723975128e-02  4.1046179442072180e-02  7.4347888726909547e-02  5.7698100868631128e-02  1.0835078562729712e-01  1.0189132222518962e-01  6.1253007402071090e-02  3.0269994536527300e-02  5.1858248550305713e-02  5.2296302078016811e-02  1.9827081697807312e-02  3.9037046908322361e-02  3.3163969712647130e-02  5.7158897807201563e-02  1.1659583849117865e-01  5.8420853735270117e-02  8.7806788058068692e-03  6.1982991976386896e-02  4.1071736371200963e-02  3.2925906498393775e-02  1.0286869180844500e-01  1.5103675796333269e-01  1.3501236725341562e-01  1.1147837266831449e-01  5.9958382784554558e-02  3.2979514621511309e-02  5.9669270325097251e-02  3.2148529716471273e-02  6.8178594130250028e-02  7.2086067999612244e-02  4.2224328472944626e-02  4.1358766749369842e-02  2.2623666787521330e-02  2.6040599827903559e-02  1.9077539363443904e-02  6.7220400551459341e-03  3.9262860690601016e-03  1.9476342018071833e-02  2.9886763172776434e-03  3.4033140542397309e-03  5.3193564547075580e-03  3.6977305592132250e-03  2.3291034757445370e-03  3.7011539529340398e-04  3.4671421877417486e-04  2.6257600056809860e-03  9.9098620276964495e-04  8.8682221213228103e-04  6.3041807277731368e-04  7.7466359963257578e-04  3.7644655671775345e-04  3.2304333567692112e-05  1.2993673810538738e-03  1.2392576029992117e-03  4.4711581875069706e-04  1.9573698745410295e-04  6.3000776768470370e-04  2.9042994318543942e-03  3.9997434833889435e-03  1.1707274459636580e-03  1.4098876266807729e-03  2.1896582975599013e-03  1.7820425418972894e-03  1.1401444382657105e-03  9.1539361973766857e-05  5.3673364026778135e-04  1.4889445995244480e-03  2.2133112072594933e-03  1.6199036189699339e-03  8.1455494611964183e-04  3.6762224506532124e-04  6.8160660576216305e-04  3.6117058040144307e-04  2.3197775060800118e-05  1.2825854220607566e-04  1.1412853658085256e-04  2.9207991952822217e-04  1.9599823326023471e-04  1.5427304742346012e-04  8.0000972408293095e-05  4.0845308514207595e-05  1.4973068551155756e-05  -2.0779306818480077e-21  -3.0659227139050449e-19  6.3178098476661419e-03  8.7002939492418774e-03  1.7705930918809426e-02  3.2374115788653649e-03  5.1441971958525456e-03  2.7264401452380283e-02  2.6595377601667764e-02  3.2771494297139492e-02  9.0376052377851047e-03  9.3560158476765059e-03  1.6610674760239807e-02  4.2974654827130948e-02  5.7204884971214343e-02  5.8961758125201012e-02  9.9104850350431178e-02  6.8658747546825639e-03  8.3213415411852922e-03  8.4479730610144646e-02  4.1163457862255261e-02  4.0903104449958039e-02  5.1092298900785808e-02  1.2118446566062268e-02  8.6634003258555144e-03  1.6001991742647170e-02  2.0348851656809094e-02  7.8705812259693090e-03  6.1800459014642692e-02  7.3094416604455204e-02  7.9201386970615240e-02  2.7385620094648365e-02  7.0146550601820498e-02  6.2652122294696244e-02  6.6294534782137718e-02  8.2501287877313242e-02  3.6461786190293145e-02  5.0200239633105090e-02  3.5573189414549989e-03  6.6469203349475189e-02  1.2588783763687059e-01  1.4935584430880805e-01  1.6033960764676475e-01  7.0426964412048973e-02  1.7742263881735661e-02  2.0388976607706614e-02  6.9731509560144039e-02  2.1998586827343694e-02  2.5867150024295432e-02  3.7481704327463290e-02  2.3360717711300829e-03  6.3799708503769594e-03  1.3641346263595529e-02  1.7258738885785944e-04  1.3588704804988737e-02  9.1916534252870392e-03  2.2061457424803827e-02  9.9688629042564807e-03  2.5229470931761289e-03  2.9595544068772750e-04  3.9851982066957895e-03  4.3707502376491413e-03  4.2288754609639892e-03  2.7102794195490477e-03  3.2001602231224728e-03  6.3899452485732106e-04  1.5570117070396378e-03  6.4057298135584257e-04  6.6626315688584259e-04  7.9567445228438140e-04  7.3435060877484468e-05  5.3638565007766835e-04  1.8323761308561308e-03  2.3842854701966001e-04  4.1541644842527954e-04  3.7941107255881114e-04  1.7851727107182694e-03  3.9326795070261846e-03  3.1409148426041621e-03  8.0432799182391203e-04  2.0787806235512381e-03  2.0583907404434442e-03  1.3682081213646326e-03  7.9932652211493131e-04  6.8615841981540366e-04  2.9225096439369693e-04  2.4225517759241685e-03  1.8633752470795619e-03  1.2807584568627530e-03  3.2759240221256813e-04  5.9132863032634376e-04  6.1769593408940796e-04  1.4912627347490857e-04  1.7714296576264510e-04  4.7588557999414794e-05  2.1948786065778488e-04  2.6646269604876444e-04  1.6160041383111979e-04  1.1609886302181787e-04  5.5791835550829611e-05  2.6692145133568403e-05  5.3248303167130820e-22  -1.3483842993978419e-18  4.1882106307010294e-02  3.7536637213973968e-02  4.2886704958564970e-03  4.5467131920229421e-02  4.0560179420749458e-02  5.7154513240158687e-03  1.7260177853612647e-02  5.4016465398307309e-03  2.7734314188287274e-02  4.7900831775391929e-02  8.3115919721953896e-02  7.4730960513146052e-02  2.1599094854342752e-02  2.9574190388228293e-02  2.7007493383209964e-02  7.3429531300187693e-03  1.2189224368332224e-01  2.6772802592356738e-02  3.6650989720579133e-02  2.6319212583735176e-02  7.2357659798563220e-02  6.4786396023883114e-02  1.2690904755476959e-01  1.3459391899039602e-01  9.8405461697702909e-02  4.9411318150604622e-02  5.0365495373633218e-02  5.1144459017408037e-02  1.4976985611348026e-02  6.5969230529834458e-02  5.7879351249574877e-02  7.5418926439092968e-02  1.5501187468638830e-01  6.6258275268754177e-02  1.7906925927947660e-02  7.0124528252555732e-02  4.4261715133581958e-02  4.6101667694935060e-02  1.1365747378995716e-01  1.5515874414460060e-01  1.3461135513640243e-01  1.2729321701310836e-01  5.8203959547940852e-02  5.4103778840803841e-02  5.5441031938306060e-02  3.2392699402521721e-02  8.4613380069466684e-02  8.7415341432864155e-02  5.0578659761269761e-02  5.1291988167243736e-02  3.5413887090438523e-02  3.6229542030496657e-02  2.5879060069532018e-02  6.1186313010465395e-03  3.1749865200356273e-03  2.4861272832890337e-02  4.5162689671550350e-04  5.2454304851491792e-03  7.0258148743588380e-03  3.7403800992849077e-03  1.5146364057908022e-03  4.2777111686681621e-04  6.4004335199861827e-04  3.5515188534439427e-03  1.5998778439853423e-03  1.1281142158068211e-03  5.3564414344325450e-04  8.3894039055062433e-04  4.8646287073354132e-04  1.4518985833324649e-04  1.4960671986260915e-03  1.4980284626152313e-03  7.2058983056229320e-04  2.9690570990582231e-04  3.5555035753381971e-04  3.1318835156710079e-03  4.2549503264850347e-03  9.3032124599270571e-04  1.9182311937624202e-03  2.2188678262370851e-03  1.6775183281070181e-03  1.1278163858208846e-03  1.0488271262033536e-04  7.2301117859810697e-04  1.6823972352271650e-03  2.4809648992531338e-03  1.4731287653849527e-03  7.6426004130186428e-04  2.8097482175085570e-04  8.1079796366144907e-04  3.7124903980195593e-04  8.4824076554173089e-05  1.4586014540113036e-04  6.8510484522665770e-05  3.0797443044481421e-04  1.9391170004893192e-04  1.4527942175980628e-04  7.7812502067399380e-05  3.9703475611690388e-05  -2.2039856390871121e-21  -5.4439335217709126e-20  2.4290332113281406e-02  3.1541528775289891e-03  9.8953700721084864e-03  3.5885653101320518e-02  2.2667859145507865e-02  5.6308475865465119e-04  1.8060305179472966e-02  3.4503413859229032e-02  2.7615881216254318e-02  6.9232105925786623e-03  2.1699877394809924e-02  1.1254512463655646e-02  1.3823122807347696e-02  7.5713418020718820e-02  3.2057423504587963e-02  1.0123378012946309e-01  1.5575459129092053e-02  3.2640386023476076e-02  6.9958324065102245e-02  3.8241337710961512e-02  4.5672352850656260e-02  7.1528825745759916e-02  1.0119298030770394e-02  1.9161833873709469e-02  2.2397510966489665e-02  4.9371961093187386e-03  1.2778014066762456e-02  7.6446896804343370e-02  9.7751071508929741e-02  8.7188466853423380e-02  1.8057798824974325e-02  7.9370993227863881e-02  6.1425893323276783e-02  8.7642595612419480e-02  1.1605556182701686e-01  2.2118343010393098e-02  5.0951414908020909e-02  5.8408010039444791e-04  7.4261630099022258e-02  1.3963494337161725e-01  1.6314532055090716e-01  1.5867898347280826e-01  6.7577692916411455e-02  1.4283655947692746e-02  2.8296328869383301e-02  7.5822633690984936e-02  2.7769947244389186e-02  4.1858336497994926e-02  6.6049115778365128e-02  1.9146588699291714e-02  6.6337413690356929e-03  3.2615304491927172e-03  9.3722451709191811e-03  2.2139463970251013e-02  6.6786697550662386e-03  2.4224673238447320e-02  1.1724960184092531e-02  6.3015236271046901e-03  9.8726968601362333e-04  6.4606147858716741e-03  6.0362064903585746e-03  4.8929991637962954e-03  3.1273826329873571e-03  3.1049562058248032e-03  1.0010756029609951e-03  2.2658099962428791e-03  6.3831725672031884e-04  6.5241319841547254e-04  8.9968947409526778e-04  1.4386874049592529e-05  5.1356459534660935e-04  2.1227516520507723e-03  3.0218384927873065e-04  6.6596049793163370e-04  6.4167544751837986e-04  1.7743280182547967e-03  4.2312924352512892e-03  3.1883420994973902e-03  1.3120597935422733e-03  2.3675846368282727e-03  1.9670991231606565e-03  1.2881086324241155e-03  8.3068939671815368e-04  7.0786337840396006e-04  3.0994749138404498e-04  2.7261486713151192e-03  1.9534832868558873e-03  1.1238669732987771e-03  2.8614609688550296e-04  5.9980890921021771e-04  7.4190763305757596e-04  9.7907352472484559e-05  2.3019623924273064e-04  3.9570708389569527e-05  2.0422098938930838e-04  2.9272766719450001e-04  1.5909833973419988e-04  1.1864950878896721e-04  5.5645255056050289e-05  -3.0889321687183203e-21  -4.9421524554409809e-19  9.8069187920310453e-04  1.7304504330202461e-02  1.0434436853480021e-02  2.7491942516214261e-02  3.0069907382323322e-02  4.6695273250376611e-02  1.2070538787989982e-03  3.0845049820724824e-02  1.6856818035306653e-02  3.5773341048171911e-02  3.8304297158686912e-02  6.8320453749232915e-02  6.4953783815260902e-02  8.5156391007789548e-03  5.1932147699095517e-03  3.3146646427608992e-02  2.0542569785399770e-02  1.0549720941109834e-01  2.1209627913554876e-02  3.8451925554820750e-02  1.2622170548905486e-02  5.5301483181904219e-02  4.3067091114432042e-02  1.0989530514091692e-01  1.1844445893070581e-01  8.9428336678960441e-02  4.7793291140258751e-02  4.1943959527798051e-02  3.3998876243090649e-02  3.4947940894093700e-03  8.1497037410698095e-02  7.7575853051150612e-02  7.9651562168435261e-02  1.7395223237586091e-01  5.3245909731247425e-02  5.1441935136344721e-02  6.7162327979363987e-02  4.1087869628883861e-02  5.7907402297416061e-02  1.2383052493693088e-01  1.6021356707702269e-01  1.4490453582498211e-01  1.3653984746345332e-01  4.7886964370161579e-02  6.3823658783328241e-02  5.3731620646859476e-02  3.1619719589535938e-02  9.0078236060366815e-02  8.0685603305813217e-02  2.9566295215510324e-02  3.6980266332648955e-02  3.0199248471319922e-02  3.3853002584595900e-02  2.2892449242532417e-02  1.0668151624853236e-02  4.7193753690347494e-03  2.8811637646252029e-02  1.6423752722231439e-03  7.7538064553035477e-03  6.9848253162957665e-03  1.8204113494143101e-03  3.1239628762021247e-04  1.5374583399112552e-03  1.5460666773859314e-03  3.9761258548278253e-03  1.7729907406717129e-03  1.6309121849079459e-03  5.1098727414988874e-04  8.8673451874601557e-04  6.0796528911895363e-04  1.1341385235901083e-04  1.5849301738077740e-03  1.7563251119166693e-03  7.9303075162707006e-04  1.8442467097304227e-04  7.7592041427991136e-05  3.2891654972037878e-03  4.4771338939144706e-03  7.9331767225630215e-04  2.4989386644871841e-03  2.3618292887856319e-03  1.5584978040057197e-03  1.0962959686127950e-03  1.1368121863059363e-04  7.5047513138124726e-04  1.8421981886723906e-03  2.7809233967004358e-03  1.4483720183261133e-03  6.6730258770786581e-04  2.2940679956716560e-04  8.8078424188903963e-04  4.4502030620493095e-04  1.5203999236847507e-04  1.7385114000732806e-04  5.6049728140477734e-05  3.1187996958369311e-04  2.1861052495360578e-04  1.5171873702156540e-04  8.8669960411627696e-05  -1.2305428955198816e-20  -2.8184919043155213e-19  1.0698227083239894e-02  8.5328214896579994e-03  1.1536724915411146e-02  1.5853780217452408e-02  1.7292858244413543e-02  4.0889419030181902e-02  2.7989635740000834e-03  7.9418263735529012e-03  2.8619968380259021e-02  2.3610905070136103e-02  1.5390885395354715e-03  1.1500713456187453e-02  1.1748878350446594e-02  1.1900932090816527e-02  6.0520044730050286e-02  2.1715306708377877e-02