<?xml version="1.0"?>
<VTKFile type="UnstructuredGrid"  version="0.1"  >
<UnstructuredGrid>
<Piece  NumberOfPoints="10201" NumberOfCells="20000">
<Points>
<DataArray  type="Float64"  NumberOfComponents="3"  format="ascii">0 0 0  0.01 0 0  0.02 0 0  0.03 0 0  0.04 0 0  0.05 0 0  0.06 0 0  0.07000000000000001 0 0  0.08 0 0  0.09 0 0  0.1 0 0  0.11 0 0  0.12 0 0  0.13 0 0  0.14 0 0  0.15 0 0  0.16 0 0  0.17 0 0  0.18 0 0  0.19 0 0  0.2 0 0  0.21 0 0  0.22 0 0  0.23 0 0  0.24 0 0  0.25 0 0  0.26 0 0  0.27 0 0  0.28 0 0  0.29 0 0  0.3 0 0  0.31 0 0  0.32 0 0  0.33 0 0  0.34 0 0  0.35 0 0  0.36 0 0  0.37 0 0  0.38 0 0  0.39 0 0  0.4 0 0  0.41 0 0  0.42 0 0  0.43 0 0  0.44 0 0  0.45 0 0  0.46 0 0  0.47 0 0  0.48 0 0  0.49 0 0  0.5 0 0  0.51 0 0  0.52 0 0  0.53 0 0  0.54 0 0  0.55 0 0  0.5600000000000001 0 0  0.57 0 0  0.58 0 0  0.59 0 0  0.6 0 0  0.61 0 0  0.62 0 0  0.63 0 0  0.64 0 0  0.65 0 0  0.66 0 0  0.67 0 0  0.68 0 0  0.6899999999999999 0 0  0.7 0 0  0.71 0 0  0.72 0 0  0.73 0 0  0.74 0 0  0.75 0 0  0.76 0 0  0.77 0 0  0.78 0 0  0.79 0 0  0.8 0 0  0.8100000000000001 0 0  0.82 0 0  0.83 0 0  0.84 0 0  0.85 0 0  0.86 0 0  0.87 0 0  0.88 0 0  0.89 0 0  0.9 0 0  0.91 0 0  0.92 0 0  0.93 0 0  0.9399999999999999 0 0  0.95 0 0  0.96 0 0  0.97 0 0  0.98 0 0  0.99 0 0  1 0 0  0 0.01 0  0.01 0.01 0  0.02 0.01 0  0.03 0.01 0  0.04 0.01 0  0.05 0.01 0  0.06 0.01 0  0.07000000000000001 0.01 0  0.08 0.01 0  0.09 0.01 0  0.1 0.01 0  0.11 0.01 0  0.12 0.01 0  0.13 0.01 0  0.14 0.01 0  0.15 0.01 0  0.16 0.01 0  0.17 0.01 0  0.18 0.01 0  0.19 0.01 0  0.2 0.01 0  0.21 0.01 0  0.22 0.01 0  0.23 0.01 0  0.24 0.01 0  0.25 0.01 0  0.26 0.01 0  0.27 0.01 0  0.28 0.01 0  0.29 0.01 0  0.3 0.01 0  0.31 0.01 0  0.32 0.01 0  0.33 0.01 0  0.34 0.01 0  0.35 0.01 0  0.36 0.01 0  0.37 0.01 0  0.38 0.01 0  0.39 0.01 0  0.4 0.01 0  0.41 0.01 0  0.42 0.01 0  0.43 0.01 0  0.44 0.01 0  0.45 0.01 0  0.46 0.01 0  0.47 0.01 0  0.48 0.01 0  0.49 0.01 0  0.5 0.01 0  0.51 0.01 0  0.52 0.01 0  0.53 0.01 0  0.54 0.01 0  0.55 0.01 0  0.5600000000000001 0.01 0  0.57 0.01 0  0.58 0.01 0  0.59 0.01 0  0.6 0.01 0  0.61 0.01 0  0.62 0.01 0  0.63 0.01 0  0.64 0.01 0  0.65 0.01 0  0.66 0.01 0  0.67 0.01 0  0.68 0.01 0  0.6899999999999999 0.01 0  0.7 0.01 0  0.71 0.01 0  0.72 0.01 0  0.73 0.01 0  0.74 0.01 0  0.75 0.01 0  0.76 0.01 0  0.77 0.01 0  0.78 0.01 0  0.79 0.01 0  0.8 0.01 0  0.8100000000000001 0.01 0  0.82 0.01 0  0.83 0.01 0  0.84 0.01 0  0.85 0.01 0  0.86 0.01 0  0.87 0.01 0  0.88 0.01 0  0.89 0.01 0  0.9 0.01 0  0.91 0.01 0  0.92 0.01 0  0.93 0.01 0  0.9399999999999999 0.01 0  0.95 0.01 0  0.96 0.01 0  0.97 0.01 0  0.98 0.01 0  0.99 0.01 0  1 0.01 0  0 0.02 0  0.01 0.02 0  0.02 0.02 0  0.03 0.02 0  0.04 0.02 0  0.05 0.02 0  0.06 0.02 0  0.07000000000000001 0.02 0  0.08 0.02 0  0.09 0.02 0  0.1 0.02 0  0.11 0.02 0  0.12 0.02 0  0.13 0.02 0  0.14 0.02 0  0.15 0.02 0  0.16 0.02 0  0.17 0.02 0  0.18 0.02 0  0.19 0.02 0  0.2 0.02 0  0.21 0.02 0  0.22 0.02 0  0.23 0.02 0  0.24 0.02 0  0.25 0.02 0  0.26 0.02 0  0.27 0.02 0  0.28 0.02 0  0.29 0.02 0  0.3 0.02 0  0.31 0.02 0  0.32 0.02 0  0.33 0.02 0  0.34 0.02 0  0.35 0.02 0  0.36 0.02 0  0.37 0.02 0  0.38 0.02 0  0.39 0.02 0  0.4 0.02 0  0.41 0.02 0  0.42 0.02 0  0.43 0.02 0  0.44 0.02 0  0.45 0.02 0  0.46 0.02 0  0.47 0.02 0  0.48 0.02 0  0.49 0.02 0  0.5 0.02 0  0.51 0.02 0  0.52 0.02 0  0.53 0.02 0  0.54 0.02 0  0.55 0.02 0  0.5600000000000001 0.02 0  0.57 0.02 0  0.58 0.02 0  0.59 0.02 0  0.6 0.02 0  0.61 0.02 0  0.62 0.02 0  0.63 0.02 0  0.64 0.02 0  0.65 0.02 0  0.66 0.02 0  0.67 0.02 0  0.68 0.02 0  0.6899999999999999 0.02 0  0.7 0.02 0  0.71 0.02 0  0.72 0.02 0  0.73 0.02 0  0.74 0.02 0  0.75 0.02 0  0.76 0.02 0  0.77 0.02 0  0.78 0.02 0  0.79 0.02 0  0.8 0.02 0  0.8100000000000001 0.02 0  0.82 0.02 0  0.83 0.02 0  0.84 0.02 0  0.85 0.02 0  0.86 0.02 0  0.87 0.02 0  0.88 0.02 0  0.89 0.02 0  0.9 0.02 0  0.91 0.02 0  0.92 0.02 0  0.93 0.02 0  0.9399999999999999 0.02 0  0.95 0.02 0  0.96 0.02 0  0.97 0.02 0  0.98 0.02 0  0.99 0.02 0  1 0.02 0  0 0.03 0  0.01 0.03 0  0.02 0.03 0  0.03 0.03 0  0.04 0.03 0  0.05 0.03 0  0.06 0.03 0  0.07000000000000001 0.03 0  0.08 0.03 0  0.09 0.03 0  0.1 0.03 0  0.11 0.03 0  0.12 0.03 0  0.13 0.03 0  0.14 0.03 0  0.15 0.03 0  0.16 0.03 0  0.17 0.03 0  0.18 0.03 0  0.19 0.03 0  0.2 0.03 0  0.21 0.03 0  0.22 0.03 0  0.23 0.03 0  0.24 0.03 0  0.25 0.03 0  0.26 0.03 0  0.27 0.03 0  0.28 0.03 0  0.29 0.03 0  0.3 0.03 0  0.31 0.03 0  0.32 0.03 0  0.33 0.03 0  0.34 0.03 0  0.35 0.03 0  0.36 0.03 0  0.37 0.03 0  0.38 0.03 0  0.39 0.03 0  0.4 0.03 0  0.41 0.03 0  0.42 0.03 0  0.43 0.03 0  0.44 0.03 0  0.45 0.03 0  0.46 0.03 0  0.47 0.03 0  0.48 0.03 0  0.49 0.03 0  0.5 0.03 0  0.51 0.03 0  0.52 0.03 0  0.53 0.03 0  0.54 0.03 0  0.55 0.03 0  0.5600000000000001 0.03 0  0.57 0.03 0  0.58 0.03 0  0.59 0.03 0  0.6 0.03 0  0.61 0.03 0  0.62 0.03 0  0.63 0.03 0  0.64 0.03 0  0.65 0.03 0  0.66 0.03 0  0.67 0.03 0  0.68 0.03 0  0.6899999999999999 0.03 0  0.7 0.03 0  0.71 0.03 0  0.72 0.03 0  0.73 0.03 0  0.74 0.03 0  0.75 0.03 0  0.76 0.03 0  0.77 0.03 0  0.78 0.03 0  0.79 0.03 0  0.8 0.03 0  0.8100000000000001 0.03 0  0.82 0.03 0  0.83 0.03 0  0.84 0.03 0  0.85 0.03 0  0.86 0.03 0  0.87 0.03 0  0.88 0.03 0  0.89 0.03 0  0.9 0.03 0  0.91 0.03 0  0.92 0.03 0  0.93 0.03 0  0.9399999999999999 0.03 0  0.95 0.03 0  0.96 0.03 0  0.97 0.03 0  0.98 0.03 0  0.99 0.03 0  1 0.03 0  0 0.04 0  0.01 0.04 0  0.02 0.04 0  0.03 0.04 0  0.04 0.04 0  0.05 0.04 0  0.06 0.04 0  0.07000000000000001 0.04 0  0.08 0.04 0  0.09 0.04 0  0.1 0.04 0  0.11 0.04 0  0.12 0.04 0  0.13 0.04 0  0.14 0.04 0  0.15 0.04 0  0.16 0.04 0  0.17 0.04 0  0.18 0.04 0  0.19 0.04 0  0.2 0.04 0  0.21 0.04 0  0.22 0.04 0  0.23 0.04 0  0.24 0.04 0  0.25 0.04 0  0.26 0.04 0  0.27 0.04 0  0.28 0.04 0  0.29 0.04 0  0.3 0.04 0  0.31 0.04 0  0.32 0.04 0  0.33 0.04 0  0.34 0.04 0  0.35 0.04 0  0.36 0.04 0  0.37 0.04 0  0.38 0.04 0  0.39 0.04 0  0.4 0.04 0  0.41 0.04 0  0.42 0.04 0  0.43 0.04 0  0.44 0.04 0  0.45 0.04 0  0.46 0.04 0  0.47 0.04 0  0.48 0.04 0  0.49 0.04 0  0.5 0.04 0  0.51 0.04 0  0.52 0.04 0  0.53 0.04 0  0.54 0.04 0  0.55 0.04 0  0.5600000000000001 0.04 0  0.57 0.04 0  0.58 0.04 0  0.59 0.04 0  0.6 0.04 0  0.61 0.04 0  0.62 0.04 0  0.63 0.04 0  0.64 0.04 0  0.65 0.04 0  0.66 0.04 0  0.67 0.04 0  0.68 0.04 0  0.6899999999999999 0.04 0  0.7 0.04 0  0.71 0.04 0  0.72 0.04 0  0.73 0.04 0  0.74 0.04 0  0.75 0.04 0  0.76 0.04 0  0.77 0.04 0  0.78 0.04 0  0.79 0.04 0  0.8 0.04 0  0.8100000000000001 0.04 0  0.82 0.04 0  0.83 0.04 0  0.84 0.04 0  0.85 0.04 0  0.86 0.04 0  0.87 0.04 0  0.88 0.04 0  0.89 0.04 0  0.9 0.04 0  0.91 0.04 0  0.92 0.04 0  0.93 0.04 0  0.9399999999999999 0.04 0  0.95 0.04 0  0.96 0.04 0  0.97 0.04 0  0.98 0.04 0  0.99 0.04 0  1 0.04 0  0 0.05 0  0.01 0.05 0  0.02 0.05 0  0.03 0.05 0  0.04 0.05 0  0.05 0.05 0  0.06 0.05 0  0.07000000000000001 0.05 0  0.08 0.05 0  0.09 0.05 0  0.1 0.05 0  0.11 0.05 0  0.12 0.05 0  0.13 0.05 0  0.14 0.05 0  0.15 0.05 0  0.16 0.05 0  0.17 0.05 0  0.18 0.05 0  0.19 0.05 0  0.2 0.05 0  0.21 0.05 0  0.22 0.05 0  0.23 0.05 0  0.24 0.05 0  0.25 0.05 0  0.26 0.05 0  0.27 0.05 0  0.28 0.05 0  0.29 0.05 0  0.3 0.05 0  0.31 0.05 0  0.32 0.05 0  0.33 0.05 0  0.34 0.05 0  0.35 0.05 0  0.36 0.05 0  0.37 0.05 0  0.38 0.05 0  0.39 0.05 0  0.4 0.05 0  0.41 0.05 0  0.42 0.05 0  0.43 0.05 0  0.44 0.05 0  0.45 0.05 0  0.46 0.05 0  0.47 0.05 0  0.48 0.05 0  0.49 0.05 0  0.5 0.05 0  0.51 0.05 0  0.52 0.05 0  0.53 0.05 0  0.54 0.05 0  0.55 0.05 0  0.5600000000000001 0.05 0  0.57 0.05 0  0.58 0.05 0  0.59 0.05 0  0.6 0.05 0  0.61 0.05 0  0.62 0.05 0  0.63 0.05 0  0.64 0.05 0  0.65 0.05 0  0.66 0.05 0  0.67 0.05 0  0.68 0.05 0  0.6899999999999999 0.05 0  0.7 0.05 0  0.71 0.05 0  0.72 0.05 0  0.73 0.05 0  0.74 0.05 0  0.75 0.05 0  0.76 0.05 0  0.77 0.05 0  0.78 0.05 0  0.79 0.05 0  0.8 0.05 0  0.8100000000000001 0.05 0  0.82 0.05 0  0.83 0.05 0  0.84 0.05 0  0.85 0.05 0  0.86 0.05 0  0.87 0.05 0  0.88 0.05 0  0.89 0.05 0  0.9 0.05 0  0.91 0.05 0  0.92 0.05 0  0.93 0.05 0  0.9399999999999999 0.05 0  0.95 0.05 0  0.96 0.05 0  0.97 0.05 0  0.98 0.05 0  0.99 0.05 0  1 0.05 0  0 0.06 0  0.01 0.06 0  0.02 0.06 0  0.03 0.06 0  0.04 0.06 0  0.05 0.06 0  0.06 0.06 0  0.07000000000000001 0.06 0  0.08 0.06 0  0.09 0.06 0  0.1 0.06 0  0.11 0.06 0  0.12 0.06 0  0.13 0.06 0  0.14 0.06 0  0.15 0.06 0  0.16 0.06 0  0.17 0.06 0  0.18 0.06 0  0.19 0.06 0  0.2 0.06 0  0.21 0.06 0  0.22 0.06 0  0.23 0.06 0  0.24 0.06 0  0.25 0.06 0  0.26 0.06 0  0.27 0.06 0  0.28 0.06 0  0.29 0.06 0  0.3 0.06 0  0.31 0.06 0  0.32 0.06 0  0.33 0.06 0  0.34 0.06 0  0.35 0.06 0  0.36 0.06 0  0.37 0.06 0  0.38 0.06 0  0.39 0.06 0  0.4 0.06 0  0.41 0.06 0  0.42 0.06 0  0.43 0.06 0  0.44 0.06 0  0.45 0.06 0  0.46 0.06 0  0.47 0.06 0  0.48 0.06 0  0.49 0.06 0  0.5 0.06 0  0.51 0.06 0  0.52 0.06 0  0.53 0.06 0  0.54 0.06 0  0.55 0.06 0  0.5600000000000001 0.06 0  0.57 0.06 0  0.58 0.06 0  0.59 0.06 0  0.6 0.06 0  0.61 0.06 0  0.62 0.06 0  0.63 0.06 0  0.64 0.06 0  0.65 0.06 0  0.66 0.06 0  0.67 0.06 0  0.68 0.06 0  0.6899999999999999 0.06 0  0.7 0.06 0  0.71 0.06 0  0.72 0.06 0  0.73 0.06 0  0.74 0.06 0  0.75 0.06 0  0.76 0.06 0  0.77 0.06 0  0.78 0.06 0  0.79 0.06 0  0.8 0.06 0  0.8100000000000001 0.06 0  0.82 0.06 0  0.83 0.06 0  0.84 0.06 0  0.85 0.06 0  0.86 0.06 0  0.87 0.06 0  0.88 0.06 0  0.89 0.06 0  0.9 0.06 0  0.91 0.06 0  0.92 0.06 0  0.93 0.06 0  0.9399999999999999 0.06 0  0.95 0.06 0  0.96 0.06 0  0.97 0.06 0  0.98 0.06 0  0.99 0.06 0  1 0.06 0  0 0.07000000000000001 0  0.01 0.07000000000000001 0  0.02 0.07000000000000001 0  0.03 0.07000000000000001 0  0.04 0.07000000000000001 0  0.05 0.07000000000000001 0  0.06 0.07000000000000001 0  0.07000000000000001 0.07000000000000001 0  0.08 0.07000000000000001 0  0.09 0.07000000000000001 0  0.1 0.07000000000000001 0  0.11 0.07000000000000001 0  0.12 0.07000000000000001 0  0.13 0.07000000000000001 0  0.14 0.07000000000000001 0  0.15 0.07000000000000001 0  0.16 0.07000000000000001 0  0.17 0.0700
[...]
<PointData  Scalars="Indicator Function"> 
<DataArray  type="Float64"  Name="Indicator Function"  format="ascii">-5.3165103394646216e-19  -6.9308920394913768e-19  2.2846752329271552e-17  7.2272300775834026e-19  5.4296889981130516e-17  -2.4513842033328292e-20  -1.4544682353362779e-19  2.0868019922041862e-17  1.1118221561752141e-16  -4.5277852717203819e-20  4.4057440680007567e-17  3.4545084239109797e-17  -6.6988668397411497e-20  -4.6386256061243032e-19  2.7071315930123425e-16  2.8888949165808538e-34  -1.4407983724167204e-18  1.9853546295521738e-16  -5.5092012735633310e-19  -6.9637477248238578e-19  5.3348456490846325e-16  -1.1823988352078564e-18  -8.8381959377012836e-20  4.3307160094738030e-18  -9.8355820232852832e-20  -5.4074865663806672e-19  -6.1117399042172374e-19  -4.9545052399296386e-19  3.1685449020093697e-16  -1.1255955203402938e-18  -1.7123676071746906e-18  -8.5618380358734532e-19  -7.4248805891987038e-19  -1.2921965425494714e-18  3.7583857577239301e-17  -4.8727693091116379e-19  -2.1455869283565094e-18  -3.1254559678386431e-18  -2.6461919382622001e-18  -3.8472132869980293e-18  3.8269152397461324e-16  -3.3985486338482012e-19  -9.6221869617335444e-19  -1.4265156346704782e-18  -9.9076713899344704e-19  -4.9538356949670782e-19  9.4680750767899052e-17  -5.6315392164730814e-19  -1.7254460169021628e-19  -3.1716223147110927e-19  -1.5858111573555466e-19  -3.3216075614129154e-19  -1.1029947877038400e-19  -4.0671093498588939e-19  -3.3911415345687904e-19  7.2222372914521344e-34  8.9363149419567744e-32  -3.0912367807131659e-21  2.8211864419734900e-36  -4.7019774032891500e-37  -2.8211864419734900e-37  -1.5226877688598294e-22  -7.1267608745687239e-23  -3.9966807927957775e-37  -2.0455949666301153e-22  -1.0303843822668205e-22  -1.9533761173025344e-21  -1.0604393469128525e-21  7.0012326247426621e-19  -8.7791185074203155e-21  -5.6367268851028612e-21  -4.1402469972682583e-21  -2.6388195252683819e-21  -5.1482098317490209e-21  -3.2953259268713900e-20  -3.9387392324083167e-20  -7.3516738455211820e-21  -2.5625822155461146e-20  -2.1935098430541699e-20  -8.0482679050787331e-21  -3.3418085495318803e-21  2.6107399532287805e-18  -1.3707192869261076e-21  -8.5364015961811028e-21  -1.1195175069945139e-20  -6.4607461313878157e-21  -2.3315862176811104e-21  -4.5127359370306113e-22  4.7019774032891500e-38  -1.3562660264482634e-22  -1.2881594559093057e-22  -1.0397676561519158e-22  -8.5003435029290995e-23  5.2402234459818531e-21  -5.7502352914207266e-23  -4.6147687613465634e-23  -3.4961275708999433e-23  -2.7489265079905970e-23  -1.8268050656115229e-23  -2.1489764541147213e-24  -5.1427877848475078e-39  -9.6296497219361793e-35  1.0421815079942942e-02  2.4654348474166518e-02  5.5387575215127688e-03  4.4997954128196925e-03  8.8320423877373262e-04  1.1748584449564222e-03  2.6201370410730801e-03  1.8287181014860585e-02  2.0918129602700973e-02  8.1565328250133022e-04  2.7020350155664782e-02  2.4135211362610385e-03  1.6712410041001744e-02  9.4844314697531493e-04  4.2607803429945530e-02  2.9837848711455596e-02  1.1036191696800039e-02  1.9848989442183104e-02  2.5089545326894783e-02  1.1252294860190358e-02  3.2905689835454638e-02  2.1300203814581645e-02  1.5921478372664132e-03  3.5436418828031662e-03  1.9482523588290335e-02  2.2019863644174503e-02  8.1497582641967270e-03  4.8503640488425240e-03  6.0653899795043128e-03  1.7244231274145632e-02  3.0847272470372975e-02  1.1730094387341600e-02  7.5104285882434821e-03  2.3604409282258664e-02  1.7020161577152970e-02  8.7780008179110230e-03  3.7849991290573232e-02  6.5027288943608277e-02  6.1780430981009049e-02  4.8516427855371837e-02  2.3493980711042910e-02  6.1222809443997068e-03  2.6395595664263499e-02  1.2500023290828855e-02  1.7848074071927282e-02  1.7323126500662863e-02  5.3665826287192960e-04  1.0144879166732200e-02  3.1082872155073949e-03  5.7134868298771308e-03  4.0194373968487967e-03  3.9739575319156914e-03  2.0070455421126315e-04  7.2263005838941975e-03  2.4957872086307452e-03  1.0409280751865013e-03  1.1137354250987080e-04  3.9825627982083258e-05  3.5751979887243270e-05  1.8239058352820788e-05  6.0382577202875857e-06  2.2035895458278646e-06  2.2444098318044291e-06  3.9459705161833345e-06  3.6850162917865321e-06  1.1757474935675339e-05  3.8206353980844555e-05  5.4274454252630917e-06  5.8455742155397035e-05  1.5866368873600784e-04  2.2210400029350074e-05  7.4584059336476558e-05  7.9735343648265749e-05  3.5456317870098827e-04  6.8237444354554645e-04  4.3954332118473189e-04  1.3243598236495447e-04  3.9541578125911234e-04  3.2051553489195484e-04  1.7672849785914081e-04  4.5061069203621967e-05  4.9385366958639753e-05  4.4609247736210594e-05  1.6420456188224219e-04  1.6997577330866293e-04  1.1177679566847241e-04  5.3048035488066368e-05  1.7463707913640416e-05  2.1695350394891144e-06  2.4432316685310654e-06  2.9852827861000101e-06  2.4507794241979336e-06  1.8467389071751237e-06  1.3943119692290062e-06  1.0800494591069023e-06  8.4785204025600486e-07  6.5063287002028186e-07  5.0615920763744551e-07  2.4587935317775554e-07  -2.1200033453719226e-23  -3.7719162721509740e-19  2.9178623820480280e-03  1.1212105476630873e-03  1.6763415282023094e-04  9.8399308449368776e-03  2.1193507470983107e-02  2.9886650828278953e-03  1.6479985265063508e-02  5.0005975631008757e-03  1.0630731131185803e-02  2.4858786423184145e-02  2.5102195771421528e-02  1.3256363560516800e-02  4.0687587756228653e-02  4.7152580540836195e-02  3.8393141989714864e-02  9.3485117968167691e-03  5.5061510516098783e-02  3.2535801693405666e-03  6.7655962464098105e-03  1.0336777684973984e-02  2.4735956575725016e-02  1.9835469997691674e-02  1.7419618709945541e-02  1.1620043019299097e-02  2.7072653613345789e-03  1.0270045472966508e-02  1.6353601639327090e-02  2.4165303502158963e-02  7.1022071061734677e-03  3.6482038247060720e-02  2.8670961682758848e-02  1.9389227393559774e-02  2.0273716001186954e-02  2.6330623684421173e-02  2.5056602231046284e-02  9.4983409479986163e-04  3.3185855511823292e-02  5.8553697275533771e-02  6.6577581675890313e-02  8.2748279770841551e-02  3.8672854753929384e-02  8.0478982437428900e-03  1.2363864812467967e-02  2.6039153136748133e-02  7.2388324313434841e-03  3.5271572072246931e-03  3.1311277682726469e-03  1.7799858280700402e-02  7.4769017667440452e-03  8.3056862620306347e-03  1.5649668121050214e-03  4.0327066114599465e-03  5.3582713696048766e-03  9.0294752286758356e-03  4.5033831129272384e-03  1.3290438065584670e-03  8.3691170579388999e-04  2.1966923753412690e-05  6.0860534493649559e-05  4.4460583563840593e-05  2.2175660875600020e-05  1.1742214014749609e-05  4.1066001255316692e-06  5.3482885477280241e-06  7.5692382526177138e-06  1.4074965228263435e-05  4.4181230433157469e-05  3.4478500689975080e-05  1.0182149969146089e-07  1.7552936095890988e-04  1.4889668864750754e-04  8.2661191299590318e-05  6.4440634190015241e-05  2.0262947191860536e-04  6.9365986279113965e-04  7.9579950172877954e-04  1.2121823147400057e-04  4.2184412634811930e-04  4.6061836282025533e-04  2.7266702736831018e-04  1.3416096141002752e-04  3.3131789495589521e-05  2.8398911487543440e-05  1.5624569662837435e-04  2.2294752807396913e-04  1.6795379711871439e-04  9.1482920231109700e-05  3.6809712953481387e-05  9.4715504879598151e-06  5.5020273051975074e-07  2.9122628139561072e-06  2.7512212964585686e-06  2.1011767705348527e-06  1.5514480754771107e-06  1.1810784205162192e-06  9.2736851864601281e-07  7.3220234315087370e-07  5.9888435412234448e-07  4.0453103183974012e-07  1.0362719650107020e-23  3.8518598887744717e-34  1.5177870711828401e-02  3.7519608553131896e-03  3.2633007168114181e-02  1.5442473229282347e-02  3.1128326074707034e-03  1.8197840341127418e-03  8.9371109433778011e-03  7.6637704882105469e-03  2.9161498258942414e-02  5.6391082184463079e-02  2.9821280859713518e-02  3.6200708410959091e-02  2.7422914802285116e-02  9.7619031281543749e-03  1.7302874616571325e-02  8.4039393872388540e-02  1.6702828200462601e-02  1.4236963813059809e-02  3.0410305136606770e-02  4.9388286728904475e-02  4.0051102824477151e-02  7.2615325578567300e-02  6.6342619406519324e-02  2.7294666612046985e-02  7.8089081668994932e-03  3.1139268336846469e-02  4.8857776672695315e-02  2.2895373899986485e-02  1.0921881081625329e-02  9.1681307877498654e-03  3.5162374925411896e-02  6.1855207494577187e-02  3.7038657715779369e-02  3.9519062927871936e-03  3.4622230789142366e-02  2.2484880821188203e-02  1.6474197611788987e-02  5.2055067032852752e-02  8.2501878388843097e-02  6.0873424957884226e-02  5.7601173922755315e-02  2.8803174863352970e-02  1.6949159977403438e-02  3.4755772255155255e-02  8.4243840458436206e-03  3.5824798625712896e-02  4.6273751924145019e-02  1.8675417888140977e-02  2.3160980860566675e-02  1.3168894386407818e-02  1.4737000737255972e-02  1.0369238434700084e-02  2.8396559791467476e-03  4.4466548344949296e-04  1.1778171045669783e-02  3.7243949116039866e-04  1.5241063976930141e-03  4.2441404149323698e-04  2.8855552987673113e-05  3.3066714477985420e-05  2.1532067179578117e-05  1.1796310980690172e-05  5.4262219111737055e-06  9.5215668740769465e-06  7.9134518736057894e-06  2.1065922484390984e-05  2.7743178718252967e-05  7.4037530364431527e-05  5.6054296984781133e-06  8.6209170286011014e-05  2.5025185992508405e-04  1.8509377016227738e-05  1.1003238634341648e-04  5.5654782116952860e-05  4.5280068335823361e-04  9.3045057894788929e-04  5.3086760685340940e-04  2.8303020109300529e-04  5.3794211725933985e-04  3.7046680162177136e-04  1.9232091646598592e-04  4.9387749924489993e-05  8.2892717223870794e-05  7.3677872501787920e-05  2.3694952980868152e-04  2.1355518066940382e-04  1.2852463805631344e-04  5.9717253731238186e-05  2.0782196913766138e-05  4.2530441522551651e-06  1.0329876874835055e-06  1.9860822183286899e-06  1.6956290805527633e-06  1.2544616743170714e-06  9.2909984039430684e-07  7.2377238806333293e-07  5.8285724813045492e-07  4.5310441138841931e-07  3.8360976895573659e-07  -3.5264830524668625e-38  -1.5495373023843234e-19  8.4268243498794512e-03  7.7566648506660557e-03  1.6453882333434089e-02  4.3060504465275203e-03  8.2900870439158985e-03  1.6694392650307609e-02  2.1050544894765377e-02  1.9520782337180236e-02  1.3020516222217169e-02  6.0885843307464053e-03  1.2532918967412451e-02  3.6936731935139418e-02  4.6041895449112094e-02  3.8848220225352552e-02  8.3016723176513721e-02  1.1458434759900715e-02  1.4831778809526144e-02  6.8010150752038256e-02  2.1486978602215767e-02  2.4310374236419262e-02  3.0726207075792055e-02  7.8210470944627686e-03  4.3660742091586480e-03  7.3965174881848155e-03  1.6479763211912107e-02  3.0137707423154021e-03  3.1506991522956489e-02  3.9631961834249808e-02  3.8763413936577326e-02  1.6773889462994854e-02  3.9291618680278036e-02  3.9178354022643601e-02  3.2303255281704614e-02  4.8504153835738334e-02  1.7493631935806296e-02  2.3289924863824710e-02  2.7565449354067465e-03  3.3343645403534086e-02  5.9879085744400186e-02  7.4598984059894666e-02  8.7116676284167291e-02  2.7357834965860611e-02  1.2297915109216592e-02  6.8554036379241436e-03  3.3994512419306962e-02  1.3254786113139936e-02  7.3185941632583369e-03  1.8891962989715131e-02  1.1669970109594566e-02  8.3723313738774986e-03  8.0481171221188797e-03  9.2049048432069004e-04  7.3825957547736564e-03  5.3781271691043927e-03  1.2131952062574326e-02  4.8250544716103884e-03  8.5379141335057546e-04  1.4012593665017939e-03  8.0282809276444945e-05  3.2074748907804096e-05  2.3180365937192845e-05  8.1202166735747275e-06  5.5799720567878120e-06  2.9350180711091604e-06  1.1117364103442540e-05  1.5813621462168892e-05  2.6512860191136327e-05  6.3113470322733928e-05  5.4659935782509383e-05  5.1997508972170630e-06  2.2636037457722489e-04  1.9650521932818078e-04  1.1190774958357538e-04  5.0252250684182687e-05  1.7968646806317860e-04  7.9568275180792410e-04  9.2471779057235685e-04  6.6375978561463727e-05  5.5171872274302123e-04  5.1232732256703149e-04  2.6180234745597046e-04  1.2945274889282626e-04  5.2827141183432371e-05  4.3489830967531929e-05  1.9584119943387689e-04  2.6134537117900345e-04  1.7694430884338224e-04  8.9360952896005928e-05  3.5237674397015901e-05  1.0075510014097438e-05  1.0742570490580116e-06  1.2295771677202104e-06  1.3326417177731869e-06  9.7101573830163057e-07  6.6183699780676015e-07  4.8017836179021613e-07  3.7031513060751745e-07  2.8304748842899326e-07  2.2333992808139266e-07  -1.6376480283301837e-23  -1.0590115743022494e-18  3.1438811417505985e-02  2.6251317524675005e-02  5.8192544407080493e-03  3.1977816922945011e-02  3.0449211394552009e-02  4.6364475545630883e-03  1.2022238941917184e-02  2.6328640975469522e-03  2.1644910696076828e-02  2.5336056791979047e-02  5.8517225406306758e-02  5.5535681887040673e-02  1.3362529679596115e-02  2.8059374106844906e-02  1.9671180297450838e-02  2.6134673107714645e-03  9.4841389875976248e-02  3.4824161327972614e-03  2.9984230416295349e-02  1.8385592235159866e-02  4.7259525574852336e-02  4.2386660144149206e-02  8.1982640816963298e-02  8.6260228802549174e-02  5.2242030588853149e-02  1.9533742245225152e-02  2.6622079434519174e-02  4.7223416332219423e-02  2.2552307079873459e-02  2.7420674176407759e-02  2.3437149908276139e-02  4.9149335325684829e-02  8.5161479890683234e-02  3.9196303528002061e-02  6.3410966917742527e-04  4.1503750066900234e-02  2.3922806564965819e-02  2.4970268344682568e-02  5.7954431844246840e-02  8.1139107585012651e-02  5.6045461196784829e-02  6.8973873405459046e-02  2.5698364287411301e-02  3.0216724882785154e-02  3.0764920211021254e-02  6.5406290631955339e-03  4.3052449380358140e-02  5.4997089643463518e-02  2.5103029019727559e-02  2.9929002898169601e-02  2.1459040035580270e-02  2.0130112786074284e-02  1.3362876665212527e-02  3.0729440976453568e-03  3.9390174368843537e-04  1.5314104210862527e-02  2.3515421099630104e-03  8.9238577877563403e-04  7.7887167133389005e-04  6.6601652883472920e-05  6.8109286670004366e-05  4.7377171218352725e-05  2.9427900924784331e-05  1.8755712350228693e-05  2.1718645470417764e-05  1.9951517068534076e-05  3.4681101199307745e-05  4.3193358217543123e-05  9.7356801501330184e-05  3.1349482387350469e-07  1.0352455144881946e-04  3.0577352520967178e-04  2.6075617549703842e-05  1.2668372865179981e-04  3.0764679488449047e-05  4.8623432431660482e-04  1.0551874914099134e-03  5.8018749650964234e-04  3.7991481113396183e-04  6.3286953739850828e-04  3.9615684803342722e-04  1.8917436042043318e-04  4.4153558628698179e-05  1.0326446352860364e-04  8.3300016466319335e-05  2.7675896790512621e-04  2.3731471883119728e-04  1.3242705749507466e-04  5.8077565023979657e-05  1.9662325278400521e-05  4.2563133221159614e-06  5.1114131478291299e-07  1.3514437209552165e-06  1.0804731181292021e-06  6.9257167074258922e-07  4.3164877514190907e-07  2.9180675774550467e-07  2.0419173947103143e-07  1.0352337121845834e-07  -5.7467015156774170e-24  2.8888949165808538e-34  1.9077456525634619e-02  6.1269721552041946e-03  8.0016038057188175e-03  2.6695789517234000e-02  1.6486141811331269e-02  5.3178720579696746e-03  7.9075418945706369e-03  2.4847440953885438e-02  1.5346568863502594e-02  1.0499709758864429e-02  1.3481927743681937e-02  8.7377108844144524e-03  1.2636020148094401e-02  5.9097788132401366e-02  1.5812999617175683e-02  7.9578983385500443e-02  4.5407806997829073e-03  3.6002573345029050e-02  5.5146726261591207e-02  1.8757383535516699e-02  2.6727329803992558e-02  4.3518802272369005e-02  5.8754744280263621e-03  1.7197563708862700e-02  2.3037344190767087e-02  9.6026170337971365e-04  1.9780107484361894e-03  3.8086666829644261e-02  5.4508236538803746e-02  4.0270737745457238e-02  8.9938500373258293e-03  4.0215026773922982e-02  3.3322232493193500e-02  4.6121790968948945e-02  6.8695978954015580e-02  6.0799062772170925e-03  2.4413795414724489e-02  5.6522554366254666e-04  3.4744486675932482e-02  6.7221606908966391e-02  8.1756388815953235e-02  8.0956443784052312e-02  2.4854998098384217e-02  8.7067255297315037e-03  1.2040810176417427e-02  3.7953309079074508e-02  1.8317425353685367e-02  1.7818070285318149e-02  3.7474242203811049e-02  1.0807292619270104e-03  1.3691061693371857e-03  1.7934852118405824e-03  5.7935206899566360e-03  1.1642476926476065e-02  4.3884610127634350e-03  1.2358932332904374e-02  6.6426919074917372e-03  3.2390591615419867e-03  1.5495391858058932e-03  2.3377331757024674e-04  1.0406715909843757e-04  9.7540391216651662e-05  7.5215587499948854e-05  6.0881056179050055e-05  4.7457643884607697e-05  4.7732211560993350e-05  4.6652818538927387e-05  5.3898066915655693e-05  9.2844302526132245e-05  7.6275904521479172e-05  9.0967619322796279e-06  2.7041610877856780e-04  2.2849271247016005e-04  1.2373811822202351e-04  4.6431117968096327e-05  1.8790736052843920e-04  8.8655472472626686e-04  1.0128500649243088e-03  3.0000812057342296e-05  6.5099779650347955e-04  5.6673325457673050e-04  2.7122969519720406e-04  1.2953691659043536e-04  6.1892913014834563e-05  4.3490635624518201e-05  2.2594819739643745e-04  2.9396544990679306e-04  1.8996452666229110e-04  9.0896098558117551e-05  3.4966119910177874e-05  1.0310660746882650e-05  1.5222122448108595e-06  8.9948484635796926e-07  1.1385677685799990e-06  8.3379813294864955e-07  5.3209031255879840e-07  3.4434770950734763e-07  2.2552530382428685e-07  1.1510299915953387e-07  -6.3894999935161368e-24  -1.6185503909371869e-19  8.8967332409216815e-04  1.2853667441387008e-02  5.0807110959887550e-03  2.0704018055353868e-02  2.1604443973746321e-02  3.3868915129139150e-02  7.8993602793426729e-04  2.0457951257272185e-02  3.8953325057183488e-03  2.6945015851426522e-02  1.8571399651932032e-02  4.4053877935495638e-02  4.3914671719114076e-02  2.2153674803119649e-03  6.3846376701151442e-03  2.2429189795251096e-02  2.4530587698717705e-02  7.9162315563340926e-02  3.9386753133684258e-03  3.1567201160472229e-02  6.2357064812869692e-03  3.3959153992059864e-02  2.6543205946827502e-02  6.6150000288694763e-02  6.8749880232429603e-02  4.4502994422263339e-02  2.2534150467305156e-02  2.2015484534907676e-02  3.3622570966694069e-02  1.4967688905975985e-02  3.6822583036522194e-02  3.7204321891988947e-02  4.9256291799142794e-02  9.2465176152393275e-02  2.6938915524697009e-02  2.1435235852051263e-02  3.9677761537339630e-02  2.2173980793291321e-02  3.1879417884512436e-02  6.0385625976236909e-02  7.9988597804738770e-02  6.0679176671599173e-02  7.3363717902419315e-02  1.7850512266958603e-02  3.4847695763271229e-02  2.8073888811258309e-02  7.6272861225762422e-03  4.4254155301047843e-02  4.7123713079138783e-02  1.1742243157938561e-02  2.2313475639972994e-02  1.8930485803194685e-02  1.8316189196256522e-02  1.1390170274440147e-02  5.7759391491884722e-03  5.8865857262945626e-04  1.6593422571389450e-02  2.1774189832976117e-03  7.5660543032931150e-04  1.0723487615520216e-03  4.9061554091192047e-05  1.2060108254181207e-04  1.0611986275934272e-04  8.8945016554823765e-05  7.3772324969979106e-05  7.1839437435748663e-05  6.3929401171286732e-05  7.3962773121406827e-05  8.1108797665889717e-05  1.3246559889851540e-04  1.9287554619376616e-05  1.4238662535026226e-04  3.5155183888833957e-04  2.9454691576775454e-05  1.2963157423282728e-04  2.9557728034252318e-05  5.4882849583342815e-04  1.1606314339974513e-03  5.9379714192479415e-04  4.6438084470968281e-04  7.1483317514157583e-04  4.2367039055895721e-04  1.9276581151617719e-04  3.4987787057507284e-05  1.0851463307699135e-04  1.0481703135013562e-04  3.1223376745996269e-04  2.6117642469035017e-04  1.3925509114858957e-04  5.8179600439740144e-05  1.9570510740395977e-05  4.8474234671751682e-06  2.0906183139575650e-07  8.3154531860674036e-07  7.7806685560901389e-07  5.2757174527141385e-07  3.3819379320291953e-07  2.2961549390067890e-07  1.3897144053360846e-07  2.9658989226230759e-23  -2.1973675709364728e-19  1.1233418460288407e-02  5.5277824987384145e-03  4.5847254274560337e-03  1.2023360149824660e-02  1.3086243239684318e-02  2.7079958795361746e-02  5.6116269661443258e-03  9.8174658044980858e-04  2.1152174930105468e-02  1.1760933355671800e-02  8.5702323845490199e-03  4.6778234169925640e-03  5.7877374520613895e-03  5.7258305078940223e-03  4.4769772358994223e-02  8.5899216563194662e-03