<?xml version="1.0"?>
<VTKFile type="UnstructuredGrid"  version="0.1"  >
<UnstructuredGrid>
<Piece  NumberOfPoints="10201" NumberOfCells="20000">
<Points>
<DataArray  type="Float64"  NumberOfComponents="3"  format="ascii">0 0 0  0.01 0 0  0.02 0 0  0.03 0 0  0.04 0 0  0.05 0 0  0.06 0 0  0.07000000000000001 0 0  0.08 0 0  0.09 0 0  0.1 0 0  0.11 0 0  0.12 0 0  0.13 0 0  0.14 0 0  0.15 0 0  0.16 0 0  0.17 0 0  0.18 0 0  0.19 0 0  0.2 0 0  0.21 0 0  0.22 0 0  0.23 0 0  0.24 0 0  0.25 0 0  0.26 0 0  0.27 0 0  0.28 0 0  0.29 0 0  0.3 0 0  0.31 0 0  0.32 0 0  0.33 0 0  0.34 0 0  0.35 0 0  0.36 0 0  0.37 0 0  0.38 0 0  0.39 0 0  0.4 0 0  0.41 0 0  0.42 0 0  0.43 0 0  0.44 0 0  0.45 0 0  0.46 0 0  0.47 0 0  0.48 0 0  0.49 0 0  0.5 0 0  0.51 0 0  0.52 0 0  0.53 0 0  0.54 0 0  0.55 0 0  0.5600000000000001 0 0  0.57 0 0  0.58 0 0  0.59 0 0  0.6 0 0  0.61 0 0  0.62 0 0  0.63 0 0  0.64 0 0  0.65 0 0  0.66 0 0  0.67 0 0  0.68 0 0  0.6899999999999999 0 0  0.7 0 0  0.71 0 0  0.72 0 0  0.73 0 0  0.74 0 0  0.75 0 0  0.76 0 0  0.77 0 0  0.78 0 0  0.79 0 0  0.8 0 0  0.8100000000000001 0 0  0.82 0 0  0.83 0 0  0.84 0 0  0.85 0 0  0.86 0 0  0.87 0 0  0.88 0 0  0.89 0 0  0.9 0 0  0.91 0 0  0.92 0 0  0.93 0 0  0.9399999999999999 0 0  0.95 0 0  0.96 0 0  0.97 0 0  0.98 0 0  0.99 0 0  1 0 0  0 0.01 0  0.01 0.01 0  0.02 0.01 0  0.03 0.01 0  0.04 0.01 0  0.05 0.01 0  0.06 0.01 0  0.07000000000000001 0.01 0  0.08 0.01 0  0.09 0.01 0  0.1 0.01 0  0.11 0.01 0  0.12 0.01 0  0.13 0.01 0  0.14 0.01 0  0.15 0.01 0  0.16 0.01 0  0.17 0.01 0  0.18 0.01 0  0.19 0.01 0  0.2 0.01 0  0.21 0.01 0  0.22 0.01 0  0.23 0.01 0  0.24 0.01 0  0.25 0.01 0  0.26 0.01 0  0.27 0.01 0  0.28 0.01 0  0.29 0.01 0  0.3 0.01 0  0.31 0.01 0  0.32 0.01 0  0.33 0.01 0  0.34 0.01 0  0.35 0.01 0  0.36 0.01 0  0.37 0.01 0  0.38 0.01 0  0.39 0.01 0  0.4 0.01 0  0.41 0.01 0  0.42 0.01 0  0.43 0.01 0  0.44 0.01 0  0.45 0.01 0  0.46 0.01 0  0.47 0.01 0  0.48 0.01 0  0.49 0.01 0  0.5 0.01 0  0.51 0.01 0  0.52 0.01 0  0.53 0.01 0  0.54 0.01 0  0.55 0.01 0  0.5600000000000001 0.01 0  0.57 0.01 0  0.58 0.01 0  0.59 0.01 0  0.6 0.01 0  0.61 0.01 0  0.62 0.01 0  0.63 0.01 0  0.64 0.01 0  0.65 0.01 0  0.66 0.01 0  0.67 0.01 0  0.68 0.01 0  0.6899999999999999 0.01 0  0.7 0.01 0  0.71 0.01 0  0.72 0.01 0  0.73 0.01 0  0.74 0.01 0  0.75 0.01 0  0.76 0.01 0  0.77 0.01 0  0.78 0.01 0  0.79 0.01 0  0.8 0.01 0  0.8100000000000001 0.01 0  0.82 0.01 0  0.83 0.01 0  0.84 0.01 0  0.85 0.01 0  0.86 0.01 0  0.87 0.01 0  0.88 0.01 0  0.89 0.01 0  0.9 0.01 0  0.91 0.01 0  0.92 0.01 0  0.93 0.01 0  0.9399999999999999 0.01 0  0.95 0.01 0  0.96 0.01 0  0.97 0.01 0  0.98 0.01 0  0.99 0.01 0  1 0.01 0  0 0.02 0  0.01 0.02 0  0.02 0.02 0  0.03 0.02 0  0.04 0.02 0  0.05 0.02 0  0.06 0.02 0  0.07000000000000001 0.02 0  0.08 0.02 0  0.09 0.02 0  0.1 0.02 0  0.11 0.02 0  0.12 0.02 0  0.13 0.02 0  0.14 0.02 0  0.15 0.02 0  0.16 0.02 0  0.17 0.02 0  0.18 0.02 0  0.19 0.02 0  0.2 0.02 0  0.21 0.02 0  0.22 0.02 0  0.23 0.02 0  0.24 0.02 0  0.25 0.02 0  0.26 0.02 0  0.27 0.02 0  0.28 0.02 0  0.29 0.02 0  0.3 0.02 0  0.31 0.02 0  0.32 0.02 0  0.33 0.02 0  0.34 0.02 0  0.35 0.02 0  0.36 0.02 0  0.37 0.02 0  0.38 0.02 0  0.39 0.02 0  0.4 0.02 0  0.41 0.02 0  0.42 0.02 0  0.43 0.02 0  0.44 0.02 0  0.45 0.02 0  0.46 0.02 0  0.47 0.02 0  0.48 0.02 0  0.49 0.02 0  0.5 0.02 0  0.51 0.02 0  0.52 0.02 0  0.53 0.02 0  0.54 0.02 0  0.55 0.02 0  0.5600000000000001 0.02 0  0.57 0.02 0  0.58 0.02 0  0.59 0.02 0  0.6 0.02 0  0.61 0.02 0  0.62 0.02 0  0.63 0.02 0  0.64 0.02 0  0.65 0.02 0  0.66 0.02 0  0.67 0.02 0  0.68 0.02 0  0.6899999999999999 0.02 0  0.7 0.02 0  0.71 0.02 0  0.72 0.02 0  0.73 0.02 0  0.74 0.02 0  0.75 0.02 0  0.76 0.02 0  0.77 0.02 0  0.78 0.02 0  0.79 0.02 0  0.8 0.02 0  0.8100000000000001 0.02 0  0.82 0.02 0  0.83 0.02 0  0.84 0.02 0  0.85 0.02 0  0.86 0.02 0  0.87 0.02 0  0.88 0.02 0  0.89 0.02 0  0.9 0.02 0  0.91 0.02 0  0.92 0.02 0  0.93 0.02 0  0.9399999999999999 0.02 0  0.95 0.02 0  0.96 0.02 0  0.97 0.02 0  0.98 0.02 0  0.99 0.02 0  1 0.02 0  0 0.03 0  0.01 0.03 0  0.02 0.03 0  0.03 0.03 0  0.04 0.03 0  0.05 0.03 0  0.06 0.03 0  0.07000000000000001 0.03 0  0.08 0.03 0  0.09 0.03 0  0.1 0.03 0  0.11 0.03 0  0.12 0.03 0  0.13 0.03 0  0.14 0.03 0  0.15 0.03 0  0.16 0.03 0  0.17 0.03 0  0.18 0.03 0  0.19 0.03 0  0.2 0.03 0  0.21 0.03 0  0.22 0.03 0  0.23 0.03 0  0.24 0.03 0  0.25 0.03 0  0.26 0.03 0  0.27 0.03 0  0.28 0.03 0  0.29 0.03 0  0.3 0.03 0  0.31 0.03 0  0.32 0.03 0  0.33 0.03 0  0.34 0.03 0  0.35 0.03 0  0.36 0.03 0  0.37 0.03 0  0.38 0.03 0  0.39 0.03 0  0.4 0.03 0  0.41 0.03 0  0.42 0.03 0  0.43 0.03 0  0.44 0.03 0  0.45 0.03 0  0.46 0.03 0  0.47 0.03 0  0.48 0.03 0  0.49 0.03 0  0.5 0.03 0  0.51 0.03 0  0.52 0.03 0  0.53 0.03 0  0.54 0.03 0  0.55 0.03 0  0.5600000000000001 0.03 0  0.57 0.03 0  0.58 0.03 0  0.59 0.03 0  0.6 0.03 0  0.61 0.03 0  0.62 0.03 0  0.63 0.03 0  0.64 0.03 0  0.65 0.03 0  0.66 0.03 0  0.67 0.03 0  0.68 0.03 0  0.6899999999999999 0.03 0  0.7 0.03 0  0.71 0.03 0  0.72 0.03 0  0.73 0.03 0  0.74 0.03 0  0.75 0.03 0  0.76 0.03 0  0.77 0.03 0  0.78 0.03 0  0.79 0.03 0  0.8 0.03 0  0.8100000000000001 0.03 0  0.82 0.03 0  0.83 0.03 0  0.84 0.03 0  0.85 0.03 0  0.86 0.03 0  0.87 0.03 0  0.88 0.03 0  0.89 0.03 0  0.9 0.03 0  0.91 0.03 0  0.92 0.03 0  0.93 0.03 0  0.9399999999999999 0.03 0  0.95 0.03 0  0.96 0.03 0  0.97 0.03 0  0.98 0.03 0  0.99 0.03 0  1 0.03 0  0 0.04 0  0.01 0.04 0  0.02 0.04 0  0.03 0.04 0  0.04 0.04 0  0.05 0.04 0  0.06 0.04 0  0.07000000000000001 0.04 0  0.08 0.04 0  0.09 0.04 0  0.1 0.04 0  0.11 0.04 0  0.12 0.04 0  0.13 0.04 0  0.14 0.04 0  0.15 0.04 0  0.16 0.04 0  0.17 0.04 0  0.18 0.04 0  0.19 0.04 0  0.2 0.04 0  0.21 0.04 0  0.22 0.04 0  0.23 0.04 0  0.24 0.04 0  0.25 0.04 0  0.26 0.04 0  0.27 0.04 0  0.28 0.04 0  0.29 0.04 0  0.3 0.04 0  0.31 0.04 0  0.32 0.04 0  0.33 0.04 0  0.34 0.04 0  0.35 0.04 0  0.36 0.04 0  0.37 0.04 0  0.38 0.04 0  0.39 0.04 0  0.4 0.04 0  0.41 0.04 0  0.42 0.04 0  0.43 0.04 0  0.44 0.04 0  0.45 0.04 0  0.46 0.04 0  0.47 0.04 0  0.48 0.04 0  0.49 0.04 0  0.5 0.04 0  0.51 0.04 0  0.52 0.04 0  0.53 0.04 0  0.54 0.04 0  0.55 0.04 0  0.5600000000000001 0.04 0  0.57 0.04 0  0.58 0.04 0  0.59 0.04 0  0.6 0.04 0  0.61 0.04 0  0.62 0.04 0  0.63 0.04 0  0.64 0.04 0  0.65 0.04 0  0.66 0.04 0  0.67 0.04 0  0.68 0.04 0  0.6899999999999999 0.04 0  0.7 0.04 0  0.71 0.04 0  0.72 0.04 0  0.73 0.04 0  0.74 0.04 0  0.75 0.04 0  0.76 0.04 0  0.77 0.04 0  0.78 0.04 0  0.79 0.04 0  0.8 0.04 0  0.8100000000000001 0.04 0  0.82 0.04 0  0.83 0.04 0  0.84 0.04 0  0.85 0.04 0  0.86 0.04 0  0.87 0.04 0  0.88 0.04 0  0.89 0.04 0  0.9 0.04 0  0.91 0.04 0  0.92 0.04 0  0.93 0.04 0  0.9399999999999999 0.04 0  0.95 0.04 0  0.96 0.04 0  0.97 0.04 0  0.98 0.04 0  0.99 0.04 0  1 0.04 0  0 0.05 0  0.01 0.05 0  0.02 0.05 0  0.03 0.05 0  0.04 0.05 0  0.05 0.05 0  0.06 0.05 0  0.07000000000000001 0.05 0  0.08 0.05 0  0.09 0.05 0  0.1 0.05 0  0.11 0.05 0  0.12 0.05 0  0.13 0.05 0  0.14 0.05 0  0.15 0.05 0  0.16 0.05 0  0.17 0.05 0  0.18 0.05 0  0.19 0.05 0  0.2 0.05 0  0.21 0.05 0  0.22 0.05 0  0.23 0.05 0  0.24 0.05 0  0.25 0.05 0  0.26 0.05 0  0.27 0.05 0  0.28 0.05 0  0.29 0.05 0  0.3 0.05 0  0.31 0.05 0  0.32 0.05 0  0.33 0.05 0  0.34 0.05 0  0.35 0.05 0  0.36 0.05 0  0.37 0.05 0  0.38 0.05 0  0.39 0.05 0  0.4 0.05 0  0.41 0.05 0  0.42 0.05 0  0.43 0.05 0  0.44 0.05 0  0.45 0.05 0  0.46 0.05 0  0.47 0.05 0  0.48 0.05 0  0.49 0.05 0  0.5 0.05 0  0.51 0.05 0  0.52 0.05 0  0.53 0.05 0  0.54 0.05 0  0.55 0.05 0  0.5600000000000001 0.05 0  0.57 0.05 0  0.58 0.05 0  0.59 0.05 0  0.6 0.05 0  0.61 0.05 0  0.62 0.05 0  0.63 0.05 0  0.64 0.05 0  0.65 0.05 0  0.66 0.05 0  0.67 0.05 0  0.68 0.05 0  0.6899999999999999 0.05 0  0.7 0.05 0  0.71 0.05 0  0.72 0.05 0  0.73 0.05 0  0.74 0.05 0  0.75 0.05 0  0.76 0.05 0  0.77 0.05 0  0.78 0.05 0  0.79 0.05 0  0.8 0.05 0  0.8100000000000001 0.05 0  0.82 0.05 0  0.83 0.05 0  0.84 0.05 0  0.85 0.05 0  0.86 0.05 0  0.87 0.05 0  0.88 0.05 0  0.89 0.05 0  0.9 0.05 0  0.91 0.05 0  0.92 0.05 0  0.93 0.05 0  0.9399999999999999 0.05 0  0.95 0.05 0  0.96 0.05 0  0.97 0.05 0  0.98 0.05 0  0.99 0.05 0  1 0.05 0  0 0.06 0  0.01 0.06 0  0.02 0.06 0  0.03 0.06 0  0.04 0.06 0  0.05 0.06 0  0.06 0.06 0  0.07000000000000001 0.06 0  0.08 0.06 0  0.09 0.06 0  0.1 0.06 0  0.11 0.06 0  0.12 0.06 0  0.13 0.06 0  0.14 0.06 0  0.15 0.06 0  0.16 0.06 0  0.17 0.06 0  0.18 0.06 0  0.19 0.06 0  0.2 0.06 0  0.21 0.06 0  0.22 0.06 0  0.23 0.06 0  0.24 0.06 0  0.25 0.06 0  0.26 0.06 0  0.27 0.06 0  0.28 0.06 0  0.29 0.06 0  0.3 0.06 0  0.31 0.06 0  0.32 0.06 0  0.33 0.06 0  0.34 0.06 0  0.35 0.06 0  0.36 0.06 0  0.37 0.06 0  0.38 0.06 0  0.39 0.06 0  0.4 0.06 0  0.41 0.06 0  0.42 0.06 0  0.43 0.06 0  0.44 0.06 0  0.45 0.06 0  0.46 0.06 0  0.47 0.06 0  0.48 0.06 0  0.49 0.06 0  0.5 0.06 0  0.51 0.06 0  0.52 0.06 0  0.53 0.06 0  0.54 0.06 0  0.55 0.06 0  0.5600000000000001 0.06 0  0.57 0.06 0  0.58 0.06 0  0.59 0.06 0  0.6 0.06 0  0.61 0.06 0  0.62 0.06 0  0.63 0.06 0  0.64 0.06 0  0.65 0.06 0  0.66 0.06 0  0.67 0.06 0  0.68 0.06 0  0.6899999999999999 0.06 0  0.7 0.06 0  0.71 0.06 0  0.72 0.06 0  0.73 0.06 0  0.74 0.06 0  0.75 0.06 0  0.76 0.06 0  0.77 0.06 0  0.78 0.06 0  0.79 0.06 0  0.8 0.06 0  0.8100000000000001 0.06 0  0.82 0.06 0  0.83 0.06 0  0.84 0.06 0  0.85 0.06 0  0.86 0.06 0  0.87 0.06 0  0.88 0.06 0  0.89 0.06 0  0.9 0.06 0  0.91 0.06 0  0.92 0.06 0  0.93 0.06 0  0.9399999999999999 0.06 0  0.95 0.06 0  0.96 0.06 0  0.97 0.06 0  0.98 0.06 0  0.99 0.06 0  1 0.06 0  0 0.07000000000000001 0  0.01 0.07000000000000001 0  0.02 0.07000000000000001 0  0.03 0.07000000000000001 0  0.04 0.07000000000000001 0  0.05 0.07000000000000001 0  0.06 0.07000000000000001 0  0.07000000000000001 0.07000000000000001 0  0.08 0.07000000000000001 0  0.09 0.07000000000000001 0  0.1 0.07000000000000001 0  0.11 0.07000000000000001 0  0.12 0.07000000000000001 0  0.13 0.07000000000000001 0  0.14 0.07000000000000001 0  0.15 0.07000000000000001 0  0.16 0.07000000000000001 0  0.17 0.0700
[...]
<PointData  Scalars="Indicator Function"> 
<DataArray  type="Float64"  Name="Indicator Function"  format="ascii">-1.0755949349148693e-18  1.8879092224518544e-17  7.9704420992725254e-17  2.5533729254118393e-18  1.3600020498308352e-16  -5.8145866128109693e-19  -1.0626135025600324e-18  9.4644782816206054e-17  6.0395234371058600e-16  -3.9821159276621187e-19  2.3107270319450302e-16  2.7912909195817220e-16  -5.7608708059631607e-19  -4.1230732535022316e-18  5.2597642834301361e-16  -1.3948135824509229e-18  -7.3858420646716836e-18  6.8580721382199046e-16  -2.5207787431798842e-18  -3.1988668371225029e-18  1.8075780534431349e-15  -3.7389979680428281e-18  -3.6435074984303526e-18  1.0395170816694944e-15  -2.8030541636448715e-19  -2.7978423875638080e-18  -1.5821482273187200e-18  -1.1378239897483312e-18  2.5633208290150780e-16  -2.9981669471021061e-18  -3.3679811349253084e-18  -2.3116005085593101e-18  -2.5754716299356585e-18  -4.9112235760474429e-18  8.2296180538747106e-17  -1.6352372627240771e-18  -6.1015868549959750e-18  -7.5373397282949954e-18  -8.3069100260753271e-18  -1.1039422102771537e-17  9.4367192761799649e-16  -1.7912956754059561e-18  -2.8732928490272413e-18  -3.2757821408579234e-18  -2.9992829002885079e-18  -1.4996414501442102e-18  2.1025724533959761e-16  -1.5042623446306912e-18  -5.0973276963729870e-19  -8.7868941784168894e-19  -3.9939719550300096e-19  -1.4497198936939525e-19  -3.9520556048035286e-19  -1.2930499960234167e-18  -8.5284954066528124e-19  -6.0512150832695905e-19  1.1856282994611398e-16  -2.2290026293704426e-19  -1.1396986282814702e-19  -9.1234132125596697e-20  -2.6892376014690460e-20  -3.2621419581507615e-19  -8.3946772589706377e-20  -3.0092655381050560e-35  -2.3932583079309978e-20  -4.8271098151769541e-20  -1.0549875245746070e-19  -4.7245468948249380e-34  3.0663131966435171e-17  -3.0492538783977646e-19  -1.0231502829557190e-34  -1.3743241641051287e-21  -4.3050722964922607e-20  -4.3114815355397156e-19  -9.6265018466273680e-19  -4.5353746226171332e-19  -1.7976984856426967e-19  -3.9204317632469580e-19  -2.4019460966868938e-19  -1.5016724002683759e-19  -9.0015098195571225e-20  3.8491465651229069e-18  -1.1193933457985300e-19  -3.3294131514098376e-19  -2.5081108552184644e-19  -1.3093123966304949e-19  -2.9878685444916180e-20  -4.7598357872397544e-20  -6.6667331230577768e-20  -2.2119781316518607e-20  -8.4899027221081396e-21  -9.5030974217876249e-21  -9.1995382474673206e-21  5.3964387932921079e-18  -2.1999411991371132e-21  2.6331073458419240e-36  -9.0032609965820706e-22  -8.8128100747199734e-22  -1.0054656525321892e-21  -2.1158898314801175e-37  -3.7615819226313200e-37  3.8518598887744717e-34  1.9376195792336823e-02  8.3093022519812418e-02  2.5193143444872904e-02  1.9707884035057955e-02  1.5628653471961979e-02  1.0474628041107579e-02  1.9142343096672884e-02  7.5807114212717366e-02  8.2969967128398700e-02  7.1735423231860159e-03  1.1720097204174712e-01  2.0755724492052187e-02  8.2523693892160105e-02  3.3012837726295430e-02  1.4908570048011946e-01  1.1623901374019303e-01  8.6938402206917398e-02  9.0820625667747110e-02  1.1525132396538078e-01  1.6686000171173988e-02  1.3226624556977779e-01  6.7355799422466889e-02  3.1957696337776523e-02  1.0099066949512309e-02  1.0080289547258990e-01  5.7002897335979803e-02  3.4122542857985459e-02  3.4359433559826564e-03  1.4545961162986041e-02  4.6737193601561297e-02  8.3284185511817252e-02  3.3527791125282383e-02  2.9631676728884868e-02  7.3656900303639417e-02  5.8915631416532034e-02  1.7587927518183524e-02  1.0556846392882287e-01  2.2052037824901183e-01  2.1519168429796420e-01  1.5057372770919408e-01  6.3255826730697615e-02  3.2269114145074551e-02  9.2444558756663853e-02  4.9681742188565962e-02  5.4030277408472098e-02  3.8847772380034055e-02  1.0467227409695143e-02  2.7098381338984998e-02  9.1825292455882772e-03  1.5829061339064917e-02  7.1949002433605441e-03  1.4238780919312520e-02  6.1439397161287823e-03  2.0221548062985532e-02  1.7434020559851063e-02  1.0900899997660873e-02  8.0308283288324546e-03  4.1061970541144757e-03  3.2870560275544635e-03  9.6889995679093940e-04  2.3634954972063097e-03  4.6948047742598172e-03  1.8863780158373620e-03  1.1939621348105722e-03  8.1825450793740712e-05  1.3794297966780967e-03  1.2107816706828395e-03  1.6166710981460233e-03  4.4198132229832767e-03  3.5772064166495572e-03  1.0037462076388374e-03  1.5510657592228483e-03  3.1001661116296765e-03  1.3107060104394719e-02  1.5666771382448503e-02  6.0217162429592212e-03  3.2384456920259807e-03  6.3579747681567116e-03  5.5160106717617409e-03  3.6165454538837493e-03  1.7371389649302831e-03  1.3531319237531203e-03  4.1688107862156154e-03  5.9723458797121326e-03  4.8829552209341300e-03  2.8178409435543898e-03  1.4264011748519540e-03  1.3029861343586357e-03  9.4802013293394547e-04  2.8317224428582783e-04  1.5294049094279139e-04  2.6091378807881031e-04  2.9874243163797884e-04  2.0909257100804618e-04  1.1025412693259108e-04  2.2031129293490217e-05  1.6218833147730540e-05  2.6488619743495066e-05  4.0991002313629182e-05  -2.0475075886540396e-22  -7.8764691476032237e-19  1.3431492576540199e-02  1.9467457407834805e-02  2.9488752933033942e-02  3.1089503746908224e-02  6.5939414618522388e-02  1.3128759702851036e-02  6.6748285171149196e-02  6.6198751297213126e-03  6.1937405787376477e-02  1.0471464873006296e-01  6.4555039971538650e-02  2.5862687063894614e-02  1.5197182573551185e-01  1.4838393203196254e-01  2.0100342583781930e-01  6.2478703256586804e-02  1.5910665850342817e-01  1.2144828133430256e-02  6.0226080265405046e-02  3.9795205957592068e-02  1.5267310389335750e-01  3.6775560507541154e-02  4.0770533330336228e-02  2.2685697873398258e-02  1.0725293310966444e-02  2.0193322251963412e-02  2.6281472751838408e-02  2.1782980595152147e-02  1.3664413012546162e-02  1.2247935862884200e-01  5.8193479795798309e-02  9.0791481047081027e-02  6.2860747091768907e-02  1.0790340622876210e-01  5.4640921571722137e-02  2.1738332547271755e-02  9.6032348226714068e-02  1.6659089578036171e-01  2.1985956923442126e-01  2.6240282676654242e-01  1.1073148577446927e-01  4.0914692625682647e-02  5.3467474706684177e-02  7.6050185919239899e-02  1.9729019289738098e-03  1.1357504491029716e-03  9.2860888856932024e-03  4.6689217653942267e-02  2.2571479016217828e-02  2.5602541105637661e-02  8.3777197295265074e-03  1.3539787571010809e-03  2.2106715898264545e-02  3.3521509576452176e-02  1.6041920692368150e-02  1.3771764102533516e-03  3.9580734107475379e-03  7.4478308402044866e-03  5.8723113921526782e-03  5.5940104969565462e-03  3.0689397232465158e-03  7.1429025431639110e-03  2.4243279206742803e-03  1.6723313357290622e-03  6.7521591922875752e-04  7.6737381729220214e-04  1.9976340129139181e-03  7.3902951307102088e-04  3.8459611740049838e-03  5.3584997470492854e-03  1.5429822250793339e-03  1.6405147844070411e-03  5.5520604478249546e-04  9.8251101147515691e-03  1.8469678031157778e-02  1.1814741010196396e-02  2.1843654180361361e-04  6.0898300992295465e-03  6.6060107835544937e-03  5.0650766741818492e-03  2.8959362510278665e-03  1.1893734075298717e-03  2.8893143870505600e-03  6.4592259843461704e-03  5.9968716984442061e-03  4.2023852170319466e-03  1.9341866002811673e-03  1.5108005592357663e-03  1.3181564283789983e-03  6.0495443623210523e-04  5.7059936058178584e-05  2.4065611875350834e-04  3.3643931118637447e-04  3.0381668872104210e-04  1.7984655034578701e-04  8.1274574988560936e-05  1.1061300482645272e-05  8.1898312242821650e-06  2.9761958398561598e-05  -2.8141211286328307e-21  2.3111159332646830e-33  6.0495842719744800e-02  4.4375379375320927e-02  1.4189957246964124e-01  4.3276572581363991e-02  1.3139805672470023e-02  3.1447174163784786e-02  6.3982511103375994e-02  4.1370296521872379e-02  1.1535264504761608e-01  2.2410239629314904e-01  1.1801126113616392e-01  1.6236475910240819e-01  1.0824642043997983e-01  7.9624268374802756e-02  6.3781384522595727e-02  2.6126677011101862e-01  1.0867698203892567e-01  1.1320983440533532e-01  8.9744027604565471e-02  2.2270319704115635e-01  1.6092526511374994e-01  2.6577676478889650e-01  1.9297060934946014e-01  1.1772570283907498e-02  1.0471281276607325e-02  1.5429936398549338e-01  1.8318265524899913e-01  1.1159721842804239e-01  1.2363721687419792e-02  1.0235275804064749e-02  9.2993096298668948e-02  1.3694042495509640e-01  9.7708692819866910e-02  2.4884215294290780e-02  1.0746180369507989e-01  7.6236645220151264e-02  2.8393834071401450e-02  1.3516690967102873e-01  2.7273543634773084e-01  1.9289284229257775e-01  1.5777665364326685e-01  8.2731138571632543e-02  5.7215267182862933e-02  1.1812423768468758e-01  3.3348181603491726e-02  1.0159889556815524e-01  1.1762478016007855e-01  6.7373774968765579e-02  6.4828506577748565e-02  3.7379941831365469e-02  4.1664595980499396e-02  2.5169905743094023e-02  1.0912567580199711e-02  1.0190185494599741e-02  2.5789719525349239e-02  1.7112400431103274e-02  2.2135892527379127e-02  2.1599702061705871e-02  1.2216553382185887e-02  7.1343545940869115e-03  2.5171856772996828e-03  3.0189759062235061e-03  6.4091944235936662e-03  4.6267553070189038e-04  1.6412612938787579e-03  9.8947664768520938e-05  1.7861109347369339e-03  1.1483165449094890e-03  1.5579098015336026e-03  5.9343646240662667e-03  3.5977610600290521e-03  3.1930743483413339e-04  3.0389493621272119e-03  3.8975561250497847e-03  1.6556586437770766e-02  1.7159163863595658e-02  3.7227561330818513e-03  4.4363791471692940e-03  6.3953167515628977e-03  5.6226451098930911e-03  3.8587406243474043e-03  1.7047235070908506e-03  1.3996708635023189e-03  5.2201256787761828e-03  6.8686595076153361e-03  4.9020003803153878e-03  2.8495297206918781e-03  1.4487341597368415e-03  1.6746031490561472e-03  1.0010032082956180e-03  1.9471922372933190e-04  1.8593748719181031e-04  2.3752466102280558e-04  3.3565987736969060e-04  2.1501908636757232e-04  1.2190842085708587e-04  3.0567496698000615e-05  3.7036701010762148e-06  5.8260684068063313e-06  -8.0852941103470923e-22  -3.5628163432245205e-19  4.9338665880341546e-02  4.7415002817527183e-02  6.6939169914517774e-02  2.7803101037916521e-02  5.3115450025719026e-02  6.4082226907436826e-02  5.9417194081221127e-02  7.8691593043364386e-02  1.9095422883065635e-02  1.0903556432403674e-02  6.8311772713869068e-02  1.2135732871110329e-01  1.4271865859549812e-01  1.5988252736126848e-01  3.0257152664203291e-01  1.2686032629640373e-01  2.0004334421154759e-02  1.8504722444151553e-01  6.4976548170183430e-03  1.3922711565462514e-01  1.5312622776976476e-01  1.0497021246361435e-01  1.6666180016573238e-02  8.7955595004606882e-02  3.7887947484593974e-02  4.3960692553464867e-02  1.0565438183250118e-01  2.9117518675119931e-02  3.5953753469478808e-02  1.4576872594090131e-02  1.3370198140098716e-01  1.0706644755206354e-01  1.2824748800204055e-01  1.6768065558346801e-01  7.7930020246886125e-02  2.5136576430355394e-02  3.0088488198234741e-02  9.3246503643042281e-02  1.4969792347651081e-01  2.5472254834010294e-01  2.7159027781687023e-01  6.1255287208600261e-02  5.0487433736709851e-02  2.5636274090065459e-02  9.5181093725855648e-02  7.8780340284900757e-03  3.5561228533988132e-02  2.9887313996872288e-02  3.2726729210610837e-02  2.6200723029032348e-02  2.7012356280823692e-02  4.2276846215250101e-03  5.4948813071369626e-03  2.8412303498428167e-02  4.8921032217117341e-02  9.2333305075059761e-03  7.7524269928727174e-04  9.8757715400943826e-03  1.7888967124354786e-02  1.4333971014385520e-02  1.0990698033415069e-02  6.5527751697365732e-03  9.7050858103232152e-03  1.7148779784493520e-03  1.0407056640597161e-03  8.5940033079184343e-04  9.3596566474407356e-04  2.2984223808787917e-03  1.1446344219229637e-04  4.2135788072618545e-03  6.1548474077132318e-03  6.5819027750429234e-04  1.7628412494847423e-03  1.9872642170536271e-03  1.0993143387127589e-02  2.0360661139146956e-02  1.0637822392187263e-02  2.6530102726721196e-03  6.1818528711528502e-03  5.9155230984601530e-03  4.7516303488376087e-03  2.7068459071854104e-03  7.9720088403936057e-04  2.9731304584322397e-03  7.1426933346542326e-03  5.8935297705731060e-03  3.8738985488651254e-03  1.6761695249290786e-03  1.5996020615247886e-03  1.5326643897040683e-03  5.5455206023915539e-04  1.0333606504726540e-04  1.7119123216692805e-04  2.7226252844739609e-04  2.7198970355961751e-04  1.3257471288779390e-04  5.4217990453250367e-05  1.2083044843585804e-05  1.0793448251167721e-05  2.2790703236772932e-21  -4.3460924118812472e-18  1.5431248312716606e-01  1.1497993990249866e-01  1.6429015686682515e-02  1.6430677413592948e-01  1.3367907381019278e-01  2.3295644398541072e-02  8.0033654073399518e-03  6.5783140895259024e-02  1.0393933970429069e-01  1.0140333810929687e-01  2.4855282883688007e-01  2.4425556127772813e-01  6.5552672217424113e-02  1.4099663894620126e-01  5.5513059456204508e-02  1.5985296483284721e-02  3.4829693751601765e-01  4.8241373290696915e-02  1.1871097394621231e-01  3.0709534150708446e-02  1.7870870599872504e-01  2.0476307997560186e-01  3.4280297618364969e-01  2.6197121083492597e-01  5.2960064849687558e-02  3.5977992357005564e-02  1.0201859105285586e-01  2.1198896931081412e-01  1.7150033481201507e-01  4.3267208346787133e-03  9.2624730532666309e-04  1.6357264233069430e-01  1.9187907060264761e-01  7.1808254986736583e-02  9.2372981616609447e-03  1.4814947839440706e-01  6.5882124306075138e-02  4.7270177603554377e-02  1.6009729971984904e-01  2.5767649365712342e-01  1.6965417651388701e-01  1.9732593797920883e-01  7.1828814839794128e-02  9.8689491995146136e-02  1.0416601602332841e-01  1.8779103835250267e-02  1.0982282923000018e-01  1.4330064690714972e-01  9.4970638328254031e-02  9.0533615130664435e-02  6.3530430490557427e-02  6.0938410286720812e-02  3.7929510984656835e-02  5.8135389469850017e-03  3.9212118169949612e-03  3.7905952949704974e-02  1.0444463218700411e-02  2.6349408441539934e-02  2.5464657502309234e-02  1.1727726907882799e-02  4.8480548924618918e-03  6.5262935476416667e-04  1.3547057456835643e-03  8.3536538297567277e-03  8.9380973965017842e-04  1.7414894505843430e-03  1.9392714356162582e-04  1.9858194696976300e-03  1.3279659530590017e-03  1.1192898974183728e-03  6.7938616554347022e-03  3.7971013337936175e-03  6.0025247754999240e-04  3.8354821003747761e-03  3.4119352120294448e-03  1.8221648944465003e-02  1.8133363309044363e-02  1.8920500883198379e-03  5.7218772378965421e-03  6.1087844391244824e-03  5.2644115758062873e-03  3.8989960291974106e-03  1.5797107511792722e-03  1.1660938558433456e-03  5.5747975518822060e-03  7.3066180456797048e-03  4.6184410272819510e-03  2.6736947366463432e-03  1.2806609814562900e-03  1.8418852831521995e-03  1.0510020909870691e-03  9.8892593758648627e-05  2.1303926613000808e-04  1.8509919250395344e-04  3.1369504316717444e-04  1.8638199543356227e-04  8.6536563826789415e-05  2.5231608643229887e-06  2.1592945693361995e-05  -1.1986492739125534e-21  -1.5338974352022409e-18  1.2360413245643222e-01  4.8325620576149975e-02  4.4803771917785389e-02  1.4128639782387148e-01  5.6881638396758742e-02  4.7555338481560065e-02  2.5504752549700808e-02  9.8761954024565779e-02  4.2526696781797040e-02  2.0096352043672185e-03  2.0496061854729294e-02  3.4370375079967291e-02  1.0147367209412280e-02  2.0663735994977786e-01  3.9899752279842444e-02  3.0661848514876566e-01  1.4344528374632300e-02  7.2318072703320621e-02  1.8618141975822519e-01  4.4131366389356941e-02  1.1152261773059995e-01  2.4789070242585956e-01  1.7704119950024202e-03  5.5749186421225720e-02  1.8271418337622694e-01  7.3379691865460908e-02  5.0224277802877592e-03  1.4695599943390847e-01  1.3393615470176681e-01  7.2269319700994372e-02  2.2935762076326038e-02  9.4626206091527332e-02  8.9048345213376359e-02  1.3666465965658015e-01  2.2961579717879763e-01  1.6595376760755908e-02  2.9655452768740029e-02  4.6708041402106153e-02  8.8753160233681724e-02  1.7257967939157104e-01  2.9242756425331906e-01  2.3347750379198523e-01  4.6729062994666802e-02  3.0828748704192950e-02  3.4148609287809502e-02  1.1339800402154152e-01  2.5115419384334724e-02  6.5831356055380305e-02  8.8293043029636267e-02  9.7126231148220010e-03  2.7917454421251455e-03  6.9566487176661628e-03  1.3527723607702376e-02  2.0236717797086284e-02  2.4011627126771181e-02  5.0991763980121049e-02  1.1371445556907287e-02  3.2436475724764943e-03  1.4779660858481270e-02  2.5688897429966454e-02  1.9270134437731467e-02  1.2848846696153207e-02  7.4883558412921405e-03  1.0061503394837469e-02  2.1285728777777164e-03  4.3223234933972602e-05  1.0694703857172813e-03  1.2243197533986624e-03  2.4898902508595369e-03  8.1553761753849855e-05  4.2479050031373278e-03  7.0151397306669186e-03  3.3087345984732388e-04  1.2827032035095745e-03  2.8612944919091362e-03  1.1717451387444663e-02  2.2000571336600567e-02  1.0243245350006374e-02  4.8154222687498234e-03  6.5178704071130614e-03  5.3581262924529876e-03  4.5241216153765725e-03  2.8556783606847190e-03  7.2275295843955733e-04  3.1842673887024163e-03  7.6729303784821273e-03  6.0183843541922943e-03  3.5273491471459833e-03  1.5561094250167516e-03  1.5670832005179867e-03  1.6942623112860963e-03  4.7609130075516377e-04  2.2087730546967903e-04  1.9644931354299136e-04  2.7032368770411603e-04  2.9483409068632699e-04  1.3649446461767040e-04  5.7325942357741425e-05  8.2824699910244970e-06  -4.5976944424011824e-22  3.2740809054583010e-33  5.3484900147175614e-02  5.8183638197906340e-02  1.8052665470691537e-02  1.1526123567046809e-01  8.4695225283444114e-02  1.6559536594304708e-01  4.8070122223627621e-03  5.5123926088853047e-02  2.8039158959403478e-02  1.1934626197840953e-01  7.5583475543401141e-02  1.8434385694082556e-01  2.0707579879269128e-01  1.8968652128038921e-03  3.6847649711600226e-02  8.2953397752360478e-02  1.1146072866431710e-01  2.9964919886059560e-01  1.3297768056571709e-02  1.0116904945126279e-01  2.2655377724055618e-02  9.0356669056974745e-02  1.0750434308213057e-01  3.0789853016723012e-01  2.1979668077555339e-01  2.0586426741366144e-02  3.8313641246573750e-02  5.5900198022988540e-02  1.2956090482010130e-01  1.4731124919736624e-01  1.4950254937318807e-02  5.1709431045041249e-02  1.7062525243621976e-01  2.3767627748747039e-01  2.7397822536333695e-02  8.2817561500072759e-02  1.3780873238646271e-01  4.0737914017254566e-02  6.3647435714993317e-02  1.6496559279978112e-01  2.3453593479071919e-01  1.9942476633790077e-01  2.1200238405469488e-01  3.2246568133818120e-02  1.1067378889724713e-01  8.1724225970899733e-02  2.3866234201715627e-02  1.0508043807180416e-01  1.1561567390245038e-01  5.8599624162769023e-02  7.2591626001679885e-02  5.9928405948536538e-02  5.7704627025148621e-02  3.2604520248304597e-02  1.1596597729467979e-02  2.8256472453488338e-03  4.6844498389522191e-02  4.8788782683918171e-03  2.7544944154178758e-02  2.2209847709592782e-02  5.5066989343108500e-03  3.2164593344679026e-04  2.0327349667294162e-03  2.6094243634998860e-04  9.3864696719940192e-03  1.4480794841394650e-03  1.2014317526902018e-03  2.0872882128117050e-04  2.3014877664409507e-03  1.5565656646884479e-03  1.0019192513415374e-03  7.1861548610384967e-03  4.2762278921903455e-03  1.1794146445113253e-03  3.8089580482328447e-03  2.8642361736113198e-03  1.9532093666305272e-02  1.9233026823553705e-02  6.4969457724319989e-04  7.5891872195488789e-03  6.0368647647311242e-03  4.7597820625718311e-03  3.7776640636134422e-03  1.6008225217543496e-03  1.1274394211744565e-03  6.0515563469288308e-03  7.7749921238315306e-03  4.5597734542140852e-03  2.3989785080448878e-03  1.1850563847567595e-03  1.8869276047835685e-03  1.1456501656160532e-03  2.1976098576646165e-05  3.0272450630966014e-04  2.1025981042341674e-04  3.3858170641375634e-04  2.2667869698162578e-04  1.1593925078128959e-04  3.9571541389656593e-05  4.8541965885463363e-22  3.8518598887744717e-34  1.0789984798337888e-02  1.6353431285363970e-02  5.0665100731121619e-02  8.7558536627036110e-02  4.4129351689940449e-02  1.4478257251752702e-01  2.0071684832347735e-02  9.4811206395361905e-03  8.1542785159052819e-02  1.9889827794827245e-02  2.3013968014359593e-02  2.1584826551342955e-02  4.6191272618478843e-02  1.0433706359435078e-01  1.2422391945240786e-01  1.1374372100378180e-02