<?xml version="1.0"?>
<VTKFile type="UnstructuredGrid"  version="0.1"  >
<UnstructuredGrid>
<Piece  NumberOfPoints="10201" NumberOfCells="20000">
<Points>
<DataArray  type="Float64"  NumberOfComponents="3"  format="ascii">0 0 0  0.01 0 0  0.02 0 0  0.03 0 0  0.04 0 0  0.05 0 0  0.06 0 0  0.07000000000000001 0 0  0.08 0 0  0.09 0 0  0.1 0 0  0.11 0 0  0.12 0 0  0.13 0 0  0.14 0 0  0.15 0 0  0.16 0 0  0.17 0 0  0.18 0 0  0.19 0 0  0.2 0 0  0.21 0 0  0.22 0 0  0.23 0 0  0.24 0 0  0.25 0 0  0.26 0 0  0.27 0 0  0.28 0 0  0.29 0 0  0.3 0 0  0.31 0 0  0.32 0 0  0.33 0 0  0.34 0 0  0.35 0 0  0.36 0 0  0.37 0 0  0.38 0 0  0.39 0 0  0.4 0 0  0.41 0 0  0.42 0 0  0.43 0 0  0.44 0 0  0.45 0 0  0.46 0 0  0.47 0 0  0.48 0 0  0.49 0 0  0.5 0 0  0.51 0 0  0.52 0 0  0.53 0 0  0.54 0 0  0.55 0 0  0.5600000000000001 0 0  0.57 0 0  0.58 0 0  0.59 0 0  0.6 0 0  0.61 0 0  0.62 0 0  0.63 0 0  0.64 0 0  0.65 0 0  0.66 0 0  0.67 0 0  0.68 0 0  0.6899999999999999 0 0  0.7 0 0  0.71 0 0  0.72 0 0  0.73 0 0  0.74 0 0  0.75 0 0  0.76 0 0  0.77 0 0  0.78 0 0  0.79 0 0  0.8 0 0  0.8100000000000001 0 0  0.82 0 0  0.83 0 0  0.84 0 0  0.85 0 0  0.86 0 0  0.87 0 0  0.88 0 0  0.89 0 0  0.9 0 0  0.91 0 0  0.92 0 0  0.93 0 0  0.9399999999999999 0 0  0.95 0 0  0.96 0 0  0.97 0 0  0.98 0 0  0.99 0 0  1 0 0  0 0.01 0  0.01 0.01 0  0.02 0.01 0  0.03 0.01 0  0.04 0.01 0  0.05 0.01 0  0.06 0.01 0  0.07000000000000001 0.01 0  0.08 0.01 0  0.09 0.01 0  0.1 0.01 0  0.11 0.01 0  0.12 0.01 0  0.13 0.01 0  0.14 0.01 0  0.15 0.01 0  0.16 0.01 0  0.17 0.01 0  0.18 0.01 0  0.19 0.01 0  0.2 0.01 0  0.21 0.01 0  0.22 0.01 0  0.23 0.01 0  0.24 0.01 0  0.25 0.01 0  0.26 0.01 0  0.27 0.01 0  0.28 0.01 0  0.29 0.01 0  0.3 0.01 0  0.31 0.01 0  0.32 0.01 0  0.33 0.01 0  0.34 0.01 0  0.35 0.01 0  0.36 0.01 0  0.37 0.01 0  0.38 0.01 0  0.39 0.01 0  0.4 0.01 0  0.41 0.01 0  0.42 0.01 0  0.43 0.01 0  0.44 0.01 0  0.45 0.01 0  0.46 0.01 0  0.47 0.01 0  0.48 0.01 0  0.49 0.01 0  0.5 0.01 0  0.51 0.01 0  0.52 0.01 0  0.53 0.01 0  0.54 0.01 0  0.55 0.01 0  0.5600000000000001 0.01 0  0.57 0.01 0  0.58 0.01 0  0.59 0.01 0  0.6 0.01 0  0.61 0.01 0  0.62 0.01 0  0.63 0.01 0  0.64 0.01 0  0.65 0.01 0  0.66 0.01 0  0.67 0.01 0  0.68 0.01 0  0.6899999999999999 0.01 0  0.7 0.01 0  0.71 0.01 0  0.72 0.01 0  0.73 0.01 0  0.74 0.01 0  0.75 0.01 0  0.76 0.01 0  0.77 0.01 0  0.78 0.01 0  0.79 0.01 0  0.8 0.01 0  0.8100000000000001 0.01 0  0.82 0.01 0  0.83 0.01 0  0.84 0.01 0  0.85 0.01 0  0.86 0.01 0  0.87 0.01 0  0.88 0.01 0  0.89 0.01 0  0.9 0.01 0  0.91 0.01 0  0.92 0.01 0  0.93 0.01 0  0.9399999999999999 0.01 0  0.95 0.01 0  0.96 0.01 0  0.97 0.01 0  0.98 0.01 0  0.99 0.01 0  1 0.01 0  0 0.02 0  0.01 0.02 0  0.02 0.02 0  0.03 0.02 0  0.04 0.02 0  0.05 0.02 0  0.06 0.02 0  0.07000000000000001 0.02 0  0.08 0.02 0  0.09 0.02 0  0.1 0.02 0  0.11 0.02 0  0.12 0.02 0  0.13 0.02 0  0.14 0.02 0  0.15 0.02 0  0.16 0.02 0  0.17 0.02 0  0.18 0.02 0  0.19 0.02 0  0.2 0.02 0  0.21 0.02 0  0.22 0.02 0  0.23 0.02 0  0.24 0.02 0  0.25 0.02 0  0.26 0.02 0  0.27 0.02 0  0.28 0.02 0  0.29 0.02 0  0.3 0.02 0  0.31 0.02 0  0.32 0.02 0  0.33 0.02 0  0.34 0.02 0  0.35 0.02 0  0.36 0.02 0  0.37 0.02 0  0.38 0.02 0  0.39 0.02 0  0.4 0.02 0  0.41 0.02 0  0.42 0.02 0  0.43 0.02 0  0.44 0.02 0  0.45 0.02 0  0.46 0.02 0  0.47 0.02 0  0.48 0.02 0  0.49 0.02 0  0.5 0.02 0  0.51 0.02 0  0.52 0.02 0  0.53 0.02 0  0.54 0.02 0  0.55 0.02 0  0.5600000000000001 0.02 0  0.57 0.02 0  0.58 0.02 0  0.59 0.02 0  0.6 0.02 0  0.61 0.02 0  0.62 0.02 0  0.63 0.02 0  0.64 0.02 0  0.65 0.02 0  0.66 0.02 0  0.67 0.02 0  0.68 0.02 0  0.6899999999999999 0.02 0  0.7 0.02 0  0.71 0.02 0  0.72 0.02 0  0.73 0.02 0  0.74 0.02 0  0.75 0.02 0  0.76 0.02 0  0.77 0.02 0  0.78 0.02 0  0.79 0.02 0  0.8 0.02 0  0.8100000000000001 0.02 0  0.82 0.02 0  0.83 0.02 0  0.84 0.02 0  0.85 0.02 0  0.86 0.02 0  0.87 0.02 0  0.88 0.02 0  0.89 0.02 0  0.9 0.02 0  0.91 0.02 0  0.92 0.02 0  0.93 0.02 0  0.9399999999999999 0.02 0  0.95 0.02 0  0.96 0.02 0  0.97 0.02 0  0.98 0.02 0  0.99 0.02 0  1 0.02 0  0 0.03 0  0.01 0.03 0  0.02 0.03 0  0.03 0.03 0  0.04 0.03 0  0.05 0.03 0  0.06 0.03 0  0.07000000000000001 0.03 0  0.08 0.03 0  0.09 0.03 0  0.1 0.03 0  0.11 0.03 0  0.12 0.03 0  0.13 0.03 0  0.14 0.03 0  0.15 0.03 0  0.16 0.03 0  0.17 0.03 0  0.18 0.03 0  0.19 0.03 0  0.2 0.03 0  0.21 0.03 0  0.22 0.03 0  0.23 0.03 0  0.24 0.03 0  0.25 0.03 0  0.26 0.03 0  0.27 0.03 0  0.28 0.03 0  0.29 0.03 0  0.3 0.03 0  0.31 0.03 0  0.32 0.03 0  0.33 0.03 0  0.34 0.03 0  0.35 0.03 0  0.36 0.03 0  0.37 0.03 0  0.38 0.03 0  0.39 0.03 0  0.4 0.03 0  0.41 0.03 0  0.42 0.03 0  0.43 0.03 0  0.44 0.03 0  0.45 0.03 0  0.46 0.03 0  0.47 0.03 0  0.48 0.03 0  0.49 0.03 0  0.5 0.03 0  0.51 0.03 0  0.52 0.03 0  0.53 0.03 0  0.54 0.03 0  0.55 0.03 0  0.5600000000000001 0.03 0  0.57 0.03 0  0.58 0.03 0  0.59 0.03 0  0.6 0.03 0  0.61 0.03 0  0.62 0.03 0  0.63 0.03 0  0.64 0.03 0  0.65 0.03 0  0.66 0.03 0  0.67 0.03 0  0.68 0.03 0  0.6899999999999999 0.03 0  0.7 0.03 0  0.71 0.03 0  0.72 0.03 0  0.73 0.03 0  0.74 0.03 0  0.75 0.03 0  0.76 0.03 0  0.77 0.03 0  0.78 0.03 0  0.79 0.03 0  0.8 0.03 0  0.8100000000000001 0.03 0  0.82 0.03 0  0.83 0.03 0  0.84 0.03 0  0.85 0.03 0  0.86 0.03 0  0.87 0.03 0  0.88 0.03 0  0.89 0.03 0  0.9 0.03 0  0.91 0.03 0  0.92 0.03 0  0.93 0.03 0  0.9399999999999999 0.03 0  0.95 0.03 0  0.96 0.03 0  0.97 0.03 0  0.98 0.03 0  0.99 0.03 0  1 0.03 0  0 0.04 0  0.01 0.04 0  0.02 0.04 0  0.03 0.04 0  0.04 0.04 0  0.05 0.04 0  0.06 0.04 0  0.07000000000000001 0.04 0  0.08 0.04 0  0.09 0.04 0  0.1 0.04 0  0.11 0.04 0  0.12 0.04 0  0.13 0.04 0  0.14 0.04 0  0.15 0.04 0  0.16 0.04 0  0.17 0.04 0  0.18 0.04 0  0.19 0.04 0  0.2 0.04 0  0.21 0.04 0  0.22 0.04 0  0.23 0.04 0  0.24 0.04 0  0.25 0.04 0  0.26 0.04 0  0.27 0.04 0  0.28 0.04 0  0.29 0.04 0  0.3 0.04 0  0.31 0.04 0  0.32 0.04 0  0.33 0.04 0  0.34 0.04 0  0.35 0.04 0  0.36 0.04 0  0.37 0.04 0  0.38 0.04 0  0.39 0.04 0  0.4 0.04 0  0.41 0.04 0  0.42 0.04 0  0.43 0.04 0  0.44 0.04 0  0.45 0.04 0  0.46 0.04 0  0.47 0.04 0  0.48 0.04 0  0.49 0.04 0  0.5 0.04 0  0.51 0.04 0  0.52 0.04 0  0.53 0.04 0  0.54 0.04 0  0.55 0.04 0  0.5600000000000001 0.04 0  0.57 0.04 0  0.58 0.04 0  0.59 0.04 0  0.6 0.04 0  0.61 0.04 0  0.62 0.04 0  0.63 0.04 0  0.64 0.04 0  0.65 0.04 0  0.66 0.04 0  0.67 0.04 0  0.68 0.04 0  0.6899999999999999 0.04 0  0.7 0.04 0  0.71 0.04 0  0.72 0.04 0  0.73 0.04 0  0.74 0.04 0  0.75 0.04 0  0.76 0.04 0  0.77 0.04 0  0.78 0.04 0  0.79 0.04 0  0.8 0.04 0  0.8100000000000001 0.04 0  0.82 0.04 0  0.83 0.04 0  0.84 0.04 0  0.85 0.04 0  0.86 0.04 0  0.87 0.04 0  0.88 0.04 0  0.89 0.04 0  0.9 0.04 0  0.91 0.04 0  0.92 0.04 0  0.93 0.04 0  0.9399999999999999 0.04 0  0.95 0.04 0  0.96 0.04 0  0.97 0.04 0  0.98 0.04 0  0.99 0.04 0  1 0.04 0  0 0.05 0  0.01 0.05 0  0.02 0.05 0  0.03 0.05 0  0.04 0.05 0  0.05 0.05 0  0.06 0.05 0  0.07000000000000001 0.05 0  0.08 0.05 0  0.09 0.05 0  0.1 0.05 0  0.11 0.05 0  0.12 0.05 0  0.13 0.05 0  0.14 0.05 0  0.15 0.05 0  0.16 0.05 0  0.17 0.05 0  0.18 0.05 0  0.19 0.05 0  0.2 0.05 0  0.21 0.05 0  0.22 0.05 0  0.23 0.05 0  0.24 0.05 0  0.25 0.05 0  0.26 0.05 0  0.27 0.05 0  0.28 0.05 0  0.29 0.05 0  0.3 0.05 0  0.31 0.05 0  0.32 0.05 0  0.33 0.05 0  0.34 0.05 0  0.35 0.05 0  0.36 0.05 0  0.37 0.05 0  0.38 0.05 0  0.39 0.05 0  0.4 0.05 0  0.41 0.05 0  0.42 0.05 0  0.43 0.05 0  0.44 0.05 0  0.45 0.05 0  0.46 0.05 0  0.47 0.05 0  0.48 0.05 0  0.49 0.05 0  0.5 0.05 0  0.51 0.05 0  0.52 0.05 0  0.53 0.05 0  0.54 0.05 0  0.55 0.05 0  0.5600000000000001 0.05 0  0.57 0.05 0  0.58 0.05 0  0.59 0.05 0  0.6 0.05 0  0.61 0.05 0  0.62 0.05 0  0.63 0.05 0  0.64 0.05 0  0.65 0.05 0  0.66 0.05 0  0.67 0.05 0  0.68 0.05 0  0.6899999999999999 0.05 0  0.7 0.05 0  0.71 0.05 0  0.72 0.05 0  0.73 0.05 0  0.74 0.05 0  0.75 0.05 0  0.76 0.05 0  0.77 0.05 0  0.78 0.05 0  0.79 0.05 0  0.8 0.05 0  0.8100000000000001 0.05 0  0.82 0.05 0  0.83 0.05 0  0.84 0.05 0  0.85 0.05 0  0.86 0.05 0  0.87 0.05 0  0.88 0.05 0  0.89 0.05 0  0.9 0.05 0  0.91 0.05 0  0.92 0.05 0  0.93 0.05 0  0.9399999999999999 0.05 0  0.95 0.05 0  0.96 0.05 0  0.97 0.05 0  0.98 0.05 0  0.99 0.05 0  1 0.05 0  0 0.06 0  0.01 0.06 0  0.02 0.06 0  0.03 0.06 0  0.04 0.06 0  0.05 0.06 0  0.06 0.06 0  0.07000000000000001 0.06 0  0.08 0.06 0  0.09 0.06 0  0.1 0.06 0  0.11 0.06 0  0.12 0.06 0  0.13 0.06 0  0.14 0.06 0  0.15 0.06 0  0.16 0.06 0  0.17 0.06 0  0.18 0.06 0  0.19 0.06 0  0.2 0.06 0  0.21 0.06 0  0.22 0.06 0  0.23 0.06 0  0.24 0.06 0  0.25 0.06 0  0.26 0.06 0  0.27 0.06 0  0.28 0.06 0  0.29 0.06 0  0.3 0.06 0  0.31 0.06 0  0.32 0.06 0  0.33 0.06 0  0.34 0.06 0  0.35 0.06 0  0.36 0.06 0  0.37 0.06 0  0.38 0.06 0  0.39 0.06 0  0.4 0.06 0  0.41 0.06 0  0.42 0.06 0  0.43 0.06 0  0.44 0.06 0  0.45 0.06 0  0.46 0.06 0  0.47 0.06 0  0.48 0.06 0  0.49 0.06 0  0.5 0.06 0  0.51 0.06 0  0.52 0.06 0  0.53 0.06 0  0.54 0.06 0  0.55 0.06 0  0.5600000000000001 0.06 0  0.57 0.06 0  0.58 0.06 0  0.59 0.06 0  0.6 0.06 0  0.61 0.06 0  0.62 0.06 0  0.63 0.06 0  0.64 0.06 0  0.65 0.06 0  0.66 0.06 0  0.67 0.06 0  0.68 0.06 0  0.6899999999999999 0.06 0  0.7 0.06 0  0.71 0.06 0  0.72 0.06 0  0.73 0.06 0  0.74 0.06 0  0.75 0.06 0  0.76 0.06 0  0.77 0.06 0  0.78 0.06 0  0.79 0.06 0  0.8 0.06 0  0.8100000000000001 0.06 0  0.82 0.06 0  0.83 0.06 0  0.84 0.06 0  0.85 0.06 0  0.86 0.06 0  0.87 0.06 0  0.88 0.06 0  0.89 0.06 0  0.9 0.06 0  0.91 0.06 0  0.92 0.06 0  0.93 0.06 0  0.9399999999999999 0.06 0  0.95 0.06 0  0.96 0.06 0  0.97 0.06 0  0.98 0.06 0  0.99 0.06 0  1 0.06 0  0 0.07000000000000001 0  0.01 0.07000000000000001 0  0.02 0.07000000000000001 0  0.03 0.07000000000000001 0  0.04 0.07000000000000001 0  0.05 0.07000000000000001 0  0.06 0.07000000000000001 0  0.07000000000000001 0.07000000000000001 0  0.08 0.07000000000000001 0  0.09 0.07000000000000001 0  0.1 0.07000000000000001 0  0.11 0.07000000000000001 0  0.12 0.07000000000000001 0  0.13 0.07000000000000001 0  0.14 0.07000000000000001 0  0.15 0.07000000000000001 0  0.16 0.07000000000000001 0  0.17 0.0700
[...]
<PointData  Scalars="Indicator Function"> 
<DataArray  type="Float64"  Name="Indicator Function"  format="ascii">-3.4044208956177649e-19  6.7711099677310906e-19  2.4946724900261211e-17  1.2104996264545272e-18  6.4232133635082166e-17  -1.8788973974472484e-19  -5.1585820333996412e-19  3.0800524861052185e-17  1.3872774168611337e-16  -1.5002222568163859e-19  4.0727411884597364e-17  3.0642383787295328e-17  -2.7804200656779868e-19  -3.4788963158887438e-19  3.8140586606413547e-16  -4.8148248609680896e-34  -1.0789373521309470e-18  3.3102533208555657e-16  -6.4215057074771959e-19  -9.6315246932535525e-19  7.3137281726226668e-16  -1.7865300761760710e-18  -6.9186286517166554e-19  3.3901280393412068e-17  -2.8814919303941632e-19  -7.5246723666345595e-19  -5.5262723981215130e-19  -1.2309862153774985e-18  8.7310013598154147e-16  -2.1971054147672085e-18  -3.1092596718103162e-18  -1.5546298359051577e-18  -1.6084105848518081e-18  -1.7164931901277872e-18  7.8269043937266864e-17  -1.0062233064595507e-18  -3.2168118249196160e-18  -4.7464740023712347e-18  -4.2439488547880078e-18  -5.1893493576739168e-18  3.8149623082916487e-16  -7.8267799983742709e-19  -1.3529202746697866e-18  -2.5403545851098605e-18  -1.7647870734573826e-18  -8.8239353672866513e-19  1.3318984793019250e-16  -8.4078797439731909e-19  -2.7364603820152111e-19  -5.4159299932556824e-19  -2.7079649966278431e-19  -5.5794114022824813e-19  -2.1542332231443630e-19  -7.6014694603440765e-19  -5.4785396084681404e-19  -5.0770346635029923e-20  9.9569766693413194e-18  -3.5885778653653621e-20  -2.6768291699308315e-20  -6.9679020319917706e-21  -1.2598323370766437e-20  -4.1103132657895050e-20  -1.8939305400792329e-20  -3.7149726923226688e-21  -6.5018437816688337e-21  -6.6107646142718021e-21  -2.9933472978930648e-20  1.1773751417836032e-34  2.0710830494170913e-17  -7.0415218294068127e-20  -1.0029595398452693e-20  -6.0763967466997246e-21  4.5138983071575840e-36  -5.3789227742784877e-20  -1.5946935680632200e-19  -1.2824097848660099e-19  -4.7485964524692233e-20  -1.1188571349087964e-19  -7.3160898431704693e-20  -4.3354768917343245e-20  -1.8846172932293322e-20  9.4765097725905218e-18  -1.9185780378199351e-20  -7.8442603584479928e-20  -6.6836835359224792e-20  -3.7794331027527037e-20  -6.0419227393090912e-21  -1.2909234327452113e-20  -2.5698305935106312e-20  -7.4531935156352256e-21  -3.0857090540373482e-21  -3.5378674102207137e-21  -2.7905073034457106e-21  2.2262759870670530e-18  -1.0986384303864733e-21  -5.0022748773793600e-22  -5.6423728839469800e-37  -4.0613095244125858e-22  -6.2605037891606849e-22  -1.8807909613156600e-37  1.8807909613156600e-37  0.0000000000000000e+00  1.3751245500241444e-02  2.7821902680881746e-02  6.2105132982536657e-03  5.9450465186526094e-03  1.2452668560884981e-03  4.7711877586363929e-03  6.9072813700333168e-03  2.8475274770214644e-02  2.3620343420461050e-02  2.7025601587084606e-03  3.2086367157178108e-02  1.0017519017376689e-02  1.2534044921517277e-02  4.9522908947752225e-03  4.7719831705595232e-02  2.3289034791168527e-02  7.7918900324679078e-03  2.3135912569081450e-02  3.4701224815636728e-02  1.3754616757117279e-02  4.5547244848421868e-02  3.2183264741410950e-02  1.2463493367114550e-02  1.0381668787195394e-02  2.7110489333168369e-02  1.9910494650342319e-02  6.6395863712904683e-03  1.8855683057843908e-02  1.5965967258707428e-02  3.1596548879603489e-02  5.6011442797452203e-02  1.4346561071644609e-02  2.1801268706567147e-02  4.3210152156054955e-02  2.9529585132505566e-02  1.8126507632090970e-02  7.2377823918197956e-02  1.1192749517750711e-01  1.1269510186071663e-01  8.7153339222309098e-02  4.3382299640420813e-02  1.4099473393675691e-02  4.4928453181122173e-02  2.8627548945932130e-02  3.1791577625643740e-02  2.4291489611212941e-02  6.9565495931930765e-03  1.5833235508188204e-02  4.9295687827031328e-03  9.7564721197963954e-03  6.4650119707793429e-03  7.7614431528176750e-03  1.5325105806608015e-03  1.2927334721299109e-02  6.1316911666762239e-03  9.1459725674798893e-04  1.2929214349799557e-03  9.6442934817879747e-04  2.5104512795865830e-04  4.0880413914713096e-04  2.2549148178741528e-05  7.4044821168742496e-04  1.4656541893832810e-04  6.6922998531343772e-05  1.7106105522793661e-04  3.5714182802435633e-04  3.6066259700308925e-04  1.1989158744683356e-04  7.6020334385851348e-04  8.8838613155225283e-04  6.5984757365078608e-05  7.6470253814229364e-05  5.3836302087510192e-04  2.0473175166921798e-03  3.0427835546434712e-03  1.4077092934273977e-03  8.5543108855493013e-04  1.8234120028416418e-03  1.5898172343232640e-03  1.0331129848283496e-03  2.6937295991272606e-04  9.7122245428366794e-05  8.3376797927599744e-04  1.4541783643502012e-03  1.2704489395267773e-03  7.7560624705065747e-04  3.6304473390540989e-04  4.3510098365079911e-04  3.3819565354117025e-04  1.0154797487456636e-04  5.5587192583745346e-05  9.6362303120103558e-05  1.0821633130765072e-04  8.2879033608665063e-05  5.1713534287090879e-05  2.4688567725850660e-05  4.4132550055763440e-06  9.4494364102782209e-06  1.7781905765944745e-05  1.9239079590351290e-22  -8.1080743774575009e-19  2.4968327673272786e-03  6.0648046109561364e-03  1.9104701223050505e-03  7.3176455115031543e-03  2.5697021796103427e-02  3.1790465408937426e-03  2.3039129131790879e-02  2.6837458108148670e-03  9.1352147747365380e-03  2.6768137752083785e-02  2.3889254444142909e-02  1.9217671098246097e-02  5.1486514445750045e-02  4.7524975323008138e-02  3.5356541061201584e-02  1.8614532379888900e-03  5.8715869542791684e-02  1.5000466127350055e-02  1.0815980777723621e-02  1.8637828889974482e-02  3.1152605161595973e-02  2.3422762911683177e-02  2.5838633655501708e-02  1.7072542529201686e-02  1.9603522751487907e-03  2.7124273817369347e-02  3.2841150256935181e-02  4.7390910325050710e-02  1.2099734666132756e-02  5.3254491824787802e-02  3.9325462185691183e-02  3.8595201482905843e-02  3.3459895334168016e-02  4.3432413648627294e-02  4.4928483409398284e-02  6.5923454466601723e-04  5.6230277939175989e-02  1.0525298627632766e-01  1.2124502175189041e-01  1.3275783031209837e-01  7.3333221799852216e-02  9.0192915799656142e-03  2.4680324120265731e-02  5.2026952099156962e-02  1.0569450701973567e-02  7.1709672589748011e-03  8.0370972518056596e-03  1.6994540681451058e-02  8.0209414144281743e-03  1.2791875414930761e-02  2.4606723420209555e-03  7.1329207528659866e-03  8.0149327884428776e-03  1.4284635720163552e-02  9.7958459971075381e-03  1.1702963041844126e-03  2.2556945129371859e-05  1.1302103459015166e-03  1.6373786932595902e-03  8.3404017533202210e-04  1.1060270183876359e-03  9.6642680790609309e-04  3.5964373352699428e-04  2.0207580584741055e-05  1.6480157805379410e-04  2.6612156659689822e-04  5.7046053745463934e-04  1.2407624658314494e-04  4.4940185176140564e-04  1.2643012174395373e-03  2.9681599983368971e-04  2.1321065801115679e-04  3.0486018396227849e-05  1.4748732772295276e-03  3.1971919295902414e-03  2.7112538623640255e-03  1.2494882746680888e-04  1.7358819692743011e-03  1.8979623308539224e-03  1.4733440133789415e-03  6.9378682026011336e-04  9.2069193431718260e-06  4.9768156924407498e-04  1.4581759786900178e-03  1.5357337170371101e-03  1.1379937513774111e-03  4.9208775241615466e-04  4.4077772151946787e-04  4.8054870770842753e-04  2.0655991074118154e-04  1.4570005758446047e-05  9.1232643123630898e-05  1.2019426455539531e-04  1.1556502704934252e-04  7.5669515145967438e-05  4.7505053781003692e-05  1.9645604356451879e-05  6.1287806117515469e-07  1.4547865811520968e-05  4.3402807092103317e-22  6.7407548053553255e-34  1.9964575240305576e-02  6.5096308180998619e-03  3.6915631291406945e-02  1.5997147746893758e-02  1.6466947074393347e-03  3.3553203402511942e-03  1.3279920605002310e-03  8.5779667351042286e-03  4.3954000235283709e-02  6.5242449388335774e-02  3.4235534366047565e-02  4.2306608525053684e-02  2.0310673155902896e-02  6.4577181090853704e-03  2.5720785549978527e-02  9.2019506564617895e-02  6.9187179506449399e-04  1.2761570195160674e-02  3.5726068308342983e-02  6.5907398730907479e-02  5.0862936454065089e-02  9.5441906625685732e-02  8.9798074748587628e-02  5.4349611940752579e-02  2.6834858761885270e-02  4.5635803485427527e-02  4.6205012384471673e-02  1.7914116298641598e-02  3.4671148855827880e-02  2.9545295041002364e-02  5.0529920707958732e-02  1.0258194718581273e-01  5.1872060429098303e-02  7.9897609740011630e-03  5.4606081682579154e-02  3.6129811854807008e-02  2.9430744613594725e-02  9.0320172539263568e-02  1.3223663772674979e-01  1.1810638837868805e-01  9.7746182382482380e-02  5.2843511008080005e-02  2.9367426278173736e-02  5.2695568328264393e-02  2.8124371701222992e-02  6.0151143981176568e-02  6.4102089635775697e-02  3.6896211414656467e-02  3.6618872071601145e-02  2.0304937017951125e-02  2.3236926796277001e-02  1.6861780312172430e-02  5.9660676000136649e-03  3.1996793068829075e-03  1.7641073539005122e-02  2.6180234759388466e-03  2.1448046552524354e-03  3.8181507415547609e-03  2.4731826821530680e-03  7.6390800621119301e-04  6.6799651708479503e-04  1.4941989641324902e-04  1.1295042548793970e-03  1.6813762362629300e-04  3.7081126399533485e-05  2.3622229973105350e-04  4.6476263257939383e-04  4.6494327118239181e-04  4.1713130859121267e-06  1.1083731256990006e-03  1.0845312379120342e-03  4.1260998057417083e-04  1.8714717314134398e-04  5.3293801548671895e-04  2.5670899057845488e-03  3.5324544295301671e-03  1.0346500694536067e-03  1.3050340747855736e-03  1.9253883576772798e-03  1.5818685723385456e-03  1.1245097636273873e-03  1.7876259947675056e-04  1.0196826149877872e-04  1.0963242854473301e-03  1.6962421337552334e-03  1.2773267248418212e-03  7.9130247882217388e-04  3.2389568042702640e-04  5.7676526118891883e-04  3.5470430976760530e-04  5.4524666633535227e-05  6.8914608169172979e-05  9.4062098202559076e-05  1.2606156694291523e-04  9.4104433718801155e-05  6.0795224392233429e-05  3.5126679377610716e-05  1.4847677173039243e-05  3.3257854311699150e-06  -4.6154544508097360e-22  -2.7625388422851136e-19  5.5506799217881252e-03  7.6824218664495640e-03  1.5531165844226020e-02  2.8334049586044938e-03  4.4804024522746887e-03  2.4201929600132996e-02  2.3833340561225925e-02  2.9159497484739772e-02  8.0644702829104978e-03  8.2928489739817549e-03  1.5076394220917819e-02  3.8077996307986813e-02  5.1701091124517935e-02  5.2612310593900320e-02  8.7269890472419120e-02  5.2928013532564646e-03  6.4860998337007390e-03  7.4072622913601796e-02  3.7098690266220015e-02  3.5603380774975976e-02  4.5057968371022848e-02  1.0673324122745242e-02  7.5554645705491379e-03  1.4314916595354285e-02  1.7873982020898491e-02  6.9997984685631030e-03  5.4210764416585629e-02  6.4298506181285547e-02  7.0546406651716770e-02  2.4344700343418083e-02  6.2145344078971737e-02  5.5010711116190117e-02  5.8209144120276966e-02  7.2949195168950334e-02  3.2311621521513414e-02  4.4195220632324506e-02  3.3886283901432951e-03  5.8785911540020004e-02  1.1016659318650124e-01  1.3079100048949455e-01  1.4040776515975975e-01  6.1906519717642397e-02  1.5742713834807697e-02  1.8191305685200838e-02  6.1465564076827378e-02  1.9741786499781817e-02  2.2350428624088592e-02  3.3548548329451887e-02  2.4835418893226079e-03  6.0632598370477997e-03  1.2077424960201965e-02  4.5907142155482633e-04  1.2272947846202075e-02  8.1404778201364918e-03  1.9382350334749186e-02  9.2699429091779896e-03  1.8903010806877484e-03  4.8483163178566291e-05  2.9631905027023868e-03  3.2846992849026851e-03  1.8589752684828559e-03  1.8133305678346917e-03  1.3766203326302734e-03  3.0562977596598144e-04  1.9070438069988208e-04  1.3633245087918576e-04  3.0600082095934555e-04  6.9117934130977579e-04  6.3863197826379974e-05  4.2051050053578597e-04  1.5918265399692936e-03  1.8867356938505540e-04  3.8169966609952416e-04  3.5477070853663487e-04  1.5595587346861890e-03  3.5220663805843491e-03  2.7484543099117842e-03  7.1498784565047688e-04  1.8773337415929636e-03  1.7486339514600064e-03  1.3660311407025121e-03  6.5716419846314296e-04  1.4691063915438780e-04  5.6585425538734438e-04  1.6312729586300105e-03  1.5400730449285469e-03  1.0473788488590959e-03  4.1033175485968989e-04  4.4180022164609249e-04  5.6869172749108644e-04  1.6965080366675164e-04  4.5118070084701379e-05  7.7581643219745751e-05  1.0763899456159866e-04  1.1711134096297249e-04  7.2396329489553821e-05  4.8908680767325494e-05  2.2845920490417635e-05  7.9735745744565182e-06  -8.2061708755585286e-22  -1.2043110588242359e-18  3.7368550105456699e-02  3.3430747447807142e-02  3.6455955196822878e-03  4.0380280186689654e-02  3.5893185969978640e-02  5.0801081087778598e-03  1.5417811691626010e-02  5.6537312775014111e-03  2.4334769596874736e-02  4.2316477203222978e-02  7.3231503867856720e-02  6.5896818339195529e-02  1.9600121161277163e-02  2.4592654451495787e-02  2.3797434414855444e-02  7.0910220693385919e-03  1.0674253232368681e-01  2.4488368905448431e-02  3.1830579012524354e-02  2.2545365197189634e-02  6.4174895225498838e-02  5.7190054649035295e-02  1.1186088941443162e-01  1.1865302318525449e-01  8.7250620965999018e-02  4.3741702599341827e-02  4.4292436366580416e-02  4.5174368087652975e-02  1.3687611746009336e-02  5.8566401378103712e-02  5.1369335266463999e-02  6.6681069304131022e-02  1.3648881316458952e-01  5.8894470683352081e-02  1.5923437897722530e-02  6.1759861279398483e-02  3.8920160824714563e-02  4.1032925420737484e-02  9.9761318426948534e-02  1.3574747531224673e-01  1.1773168268001129e-01  1.1168828760994480e-01  5.1332243791483011e-02  4.8067717090102886e-02  4.8970683230511666e-02  2.8338337841766745e-02  7.4681936194741699e-02  7.7784327555764601e-02  4.4286661129980129e-02  4.5417766632272524e-02  3.1754031007172813e-02  3.2363069414005560e-02  2.2777336437423152e-02  5.5953997734200294e-03  2.5854084897519456e-03  2.2333817908010725e-02  4.0051123210172541e-04  3.5464848893720755e-03  5.0908919408991218e-03  2.4472432194686190e-03  1.8060704938594900e-04  2.7519629292265614e-04  5.7900275955384973e-04  1.5331414297357936e-03  4.0489956418570441e-04  3.5025473508519935e-05  2.5242625006461651e-04  5.1535398697258534e-04  5.7691351116816376e-04  1.1698041341086734e-04  1.2467114775865388e-03  1.3042806190350341e-03  6.6173588095165537e-04  2.5541638502427289e-04  2.9949441491374131e-04  2.7826903285161617e-03  3.7847925610600239e-03  8.3236514767443665e-04  1.7467511519958063e-03  1.9280871497293821e-03  1.4724539055716896e-03  1.1323831947750509e-03  1.3457473791149419e-04  2.0240201698059794e-05  1.2304791067216190e-03  1.8102171506525532e-03  1.2276022272867785e-03  7.4536868127066060e-04  2.6478760668270277e-04  6.3174161424460853e-04  3.8793500264863419e-04  9.9517322394292556e-06  8.2016403546481667e-05  8.1598372646508446e-05  1.2455674238155099e-04  9.4965005471154477e-05  5.9046979735599585e-05  3.7085759671440460e-05  1.6539213910304873e-05  -9.1811080462105826e-22  -5.9761704690892173e-20  2.1694939343035999e-02  2.7789196666357708e-03  8.8689893100534264e-03  3.1837776788976750e-02  1.9960129549532038e-02  4.2135301987013339e-04  1.6020232624863795e-02  3.0686893060531874e-02  2.4795313354425572e-02  6.2382459866461753e-03  1.9417591910827758e-02  9.6303641728611392e-03  1.2446037668489224e-02  6.8193105980208404e-02  2.8981434759190839e-02  8.9212725133914317e-02  1.4786548887212618e-02  2.8058866860511126e-02  6.1095476941091346e-02  3.4571729089252427e-02  3.9827170886883721e-02  6.3273223134289486e-02  9.0933535357302676e-03  1.7252638433393169e-02  1.9702843391270305e-02  4.5778602102589140e-03  1.1365970398834165e-02  6.7195179542340180e-02  8.5986138255421507e-02  7.7628116331128719e-02  1.6189775811465058e-02  7.0264948221533799e-02  5.3870748326343823e-02  7.7172474755911907e-02  1.0265914730318067e-01  1.9540348280033870e-02  4.4841178297522592e-02  7.5716523285087234e-04  6.5672736222232922e-02  1.2217029342624292e-01  1.4282981062844705e-01  1.3888640613099579e-01  5.9430859221093812e-02  1.2581591178584827e-02  2.5286879433733828e-02  6.6846666119043857e-02  2.4782426578715620e-02  3.6451211900985943e-02  5.8871805316674193e-02  1.6589461724352137e-02  5.3717717433905444e-03  2.9077411265706148e-03  8.6599907316308438e-03  1.9846164987765050e-02  5.9212276740947239e-03  2.1243213298498004e-02  1.0918384652702163e-02  5.4641751045096240e-03  1.8918170193333065e-04  4.5527351781559583e-03  4.2223022127200055e-03  2.1032642266123258e-03  2.0088178922548702e-03  1.3676057095066382e-03  4.0377735371554033e-04  4.1704768068451546e-04  8.0346417063856466e-05  3.6296740028668093e-04  7.5386211873505239e-04  1.1898619427628309e-04  3.5549088649618931e-04  1.8162633393944336e-03  2.3177137255126826e-04  6.1566473816928159e-04  5.6174390575429694e-04  1.5634636707826087e-03  3.8036963521116125e-03  2.8083871996691678e-03  1.1466135467112853e-03  2.1212479630760687e-03  1.6545812094941276e-03  1.2770104651653972e-03  6.9861967803489433e-04  1.9157123680438692e-04  6.3282420523621576e-04  1.8072753746242972e-03  1.5838706803575121e-03  9.7101689029358007e-04  3.8171689700794838e-04  4.3101505645033934e-04  6.3913546998964506e-04  1.6074917916548485e-04  8.3365370529705428e-05  7.7224359826824740e-05  1.0041030347022389e-04  1.2079976084405057e-04  7.3704460538558391e-05  4.9271007288396438e-05  2.4568775367417484e-05  -1.3638410049875150e-21  -4.4308497237162464e-19  1.0765711639077226e-03  1.5463990262471411e-02  9.2552205973903384e-03  2.4379074739493731e-02  2.6734491769550513e-02  4.1409522120435548e-02  1.1166299620544596e-03  2.7251761952701729e-02  1.5723497109010425e-02  3.1376434031933700e-02  3.3577909252332470e-02  5.9855386772402652e-02  5.7387269776150461e-02  7.7968608214207180e-03  2.8528742442419409e-03  2.9269238193733161e-02  1.7745073417476127e-02  9.1895514139865117e-02  1.9650401984781862e-02  3.3523847898386729e-02  1.0211500086131560e-02  4.8960022365852576e-02  3.7867143773847693e-02  9.6742244876630454e-02  1.0413192626898783e-01  7.9307982604917435e-02  4.2331022093787217e-02  3.6781207715389161e-02  2.9885590634918288e-02  3.6150391426960191e-03  7.2394179148027940e-02  6.8762024054489099e-02  7.0431253671604230e-02  1.5311889010756921e-01  4.7367796772795505e-02  4.5485136509366184e-02  5.9057065594976220e-02  3.6070835189689177e-02  5.1338222697303752e-02  1.0868814960965054e-01  1.4011728073701812e-01  1.2675718896162838e-01  1.1981754157044273e-01  4.2203770284409241e-02  5.6546579683913488e-02  4.7501714702522922e-02  2.7666060864317662e-02  7.9421395900071412e-02  7.1897272934100073e-02  2.5712999863178144e-02  3.2774627449066167e-02  2.7334442397093348e-02  3.0392336680330329e-02  2.0047598196396864e-02  9.8281443298052999e-03  4.1057099478973430e-03  2.5659949576003392e-02  1.2216853166063689e-03  5.9936450199138949e-03  5.4350189625807363e-03  1.3858166253454313e-03  7.9998120469351286e-04  1.7488441194029304e-04  9.1052556687614035e-04  1.7155478513912923e-03  5.4267796936240478e-04  1.6494016454073838e-04  2.3804678311736943e-04  5.9752879546124066e-04  6.5229638935051018e-04  1.0160680068618228e-04  1.2709661250202369e-03  1.4964350337791374e-03  7.4299210572727615e-04  1.2690571767637001e-04  8.2138981452036522e-05  2.9423426770848462e-03  4.0076156697478474e-03  7.2878895865651622e-04  2.2425750820174372e-03  2.0240614744209272e-03  1.3730135042065114e-03  1.0731062459017552e-03  1.5432343056278000e-04  1.7454283990837410e-05  1.3939568450517504e-03  1.9606129383302026e-03  1.2378577268773207e-03  6.7581441953278574e-04  2.5627386503566859e-04  6.4833202498773264e-04  4.4480111137345482e-04  1.4029706437118522e-05  1.0271727727789613e-04  7.3952495806227982e-05  1.1810565248893541e-04  9.5887254822910181e-05  5.8694663891090185e-05  3.5859320136860255e-05  -4.8546037593063871e-21  -2.5615583576882793e-19  9.5274019981868730e-03  7.7366176807776932e-03  1.0442963955058624e-02  1.4248984938957121e-02  1.5316613110085264e-02  3.6250334496994163e-02  2.5271079776391907e-03  7.1021023070310845e-03  2.5496824528514657e-02  2.1397958573173358e-02  1.4882741867681428e-03  1.0246122582301757e-02  1.0202305342390808e-02  1.0468417932617756e-02  5.4606739793859944e-02  2.0013535945804854e-02