<?xml version="1.0"?>
<VTKFile type="UnstructuredGrid"  version="0.1"  >
<UnstructuredGrid>
<Piece  NumberOfPoints="10201" NumberOfCells="20000">
<Points>
<DataArray  type="Float64"  NumberOfComponents="3"  format="ascii">0 0 0  0.01 0 0  0.02 0 0  0.03 0 0  0.04 0 0  0.05 0 0  0.06 0 0  0.07000000000000001 0 0  0.08 0 0  0.09 0 0  0.1 0 0  0.11 0 0  0.12 0 0  0.13 0 0  0.14 0 0  0.15 0 0  0.16 0 0  0.17 0 0  0.18 0 0  0.19 0 0  0.2 0 0  0.21 0 0  0.22 0 0  0.23 0 0  0.24 0 0  0.25 0 0  0.26 0 0  0.27 0 0  0.28 0 0  0.29 0 0  0.3 0 0  0.31 0 0  0.32 0 0  0.33 0 0  0.34 0 0  0.35 0 0  0.36 0 0  0.37 0 0  0.38 0 0  0.39 0 0  0.4 0 0  0.41 0 0  0.42 0 0  0.43 0 0  0.44 0 0  0.45 0 0  0.46 0 0  0.47 0 0  0.48 0 0  0.49 0 0  0.5 0 0  0.51 0 0  0.52 0 0  0.53 0 0  0.54 0 0  0.55 0 0  0.5600000000000001 0 0  0.57 0 0  0.58 0 0  0.59 0 0  0.6 0 0  0.61 0 0  0.62 0 0  0.63 0 0  0.64 0 0  0.65 0 0  0.66 0 0  0.67 0 0  0.68 0 0  0.6899999999999999 0 0  0.7 0 0  0.71 0 0  0.72 0 0  0.73 0 0  0.74 0 0  0.75 0 0  0.76 0 0  0.77 0 0  0.78 0 0  0.79 0 0  0.8 0 0  0.8100000000000001 0 0  0.82 0 0  0.83 0 0  0.84 0 0  0.85 0 0  0.86 0 0  0.87 0 0  0.88 0 0  0.89 0 0  0.9 0 0  0.91 0 0  0.92 0 0  0.93 0 0  0.9399999999999999 0 0  0.95 0 0  0.96 0 0  0.97 0 0  0.98 0 0  0.99 0 0  1 0 0  0 0.01 0  0.01 0.01 0  0.02 0.01 0  0.03 0.01 0  0.04 0.01 0  0.05 0.01 0  0.06 0.01 0  0.07000000000000001 0.01 0  0.08 0.01 0  0.09 0.01 0  0.1 0.01 0  0.11 0.01 0  0.12 0.01 0  0.13 0.01 0  0.14 0.01 0  0.15 0.01 0  0.16 0.01 0  0.17 0.01 0  0.18 0.01 0  0.19 0.01 0  0.2 0.01 0  0.21 0.01 0  0.22 0.01 0  0.23 0.01 0  0.24 0.01 0  0.25 0.01 0  0.26 0.01 0  0.27 0.01 0  0.28 0.01 0  0.29 0.01 0  0.3 0.01 0  0.31 0.01 0  0.32 0.01 0  0.33 0.01 0  0.34 0.01 0  0.35 0.01 0  0.36 0.01 0  0.37 0.01 0  0.38 0.01 0  0.39 0.01 0  0.4 0.01 0  0.41 0.01 0  0.42 0.01 0  0.43 0.01 0  0.44 0.01 0  0.45 0.01 0  0.46 0.01 0  0.47 0.01 0  0.48 0.01 0  0.49 0.01 0  0.5 0.01 0  0.51 0.01 0  0.52 0.01 0  0.53 0.01 0  0.54 0.01 0  0.55 0.01 0  0.5600000000000001 0.01 0  0.57 0.01 0  0.58 0.01 0  0.59 0.01 0  0.6 0.01 0  0.61 0.01 0  0.62 0.01 0  0.63 0.01 0  0.64 0.01 0  0.65 0.01 0  0.66 0.01 0  0.67 0.01 0  0.68 0.01 0  0.6899999999999999 0.01 0  0.7 0.01 0  0.71 0.01 0  0.72 0.01 0  0.73 0.01 0  0.74 0.01 0  0.75 0.01 0  0.76 0.01 0  0.77 0.01 0  0.78 0.01 0  0.79 0.01 0  0.8 0.01 0  0.8100000000000001 0.01 0  0.82 0.01 0  0.83 0.01 0  0.84 0.01 0  0.85 0.01 0  0.86 0.01 0  0.87 0.01 0  0.88 0.01 0  0.89 0.01 0  0.9 0.01 0  0.91 0.01 0  0.92 0.01 0  0.93 0.01 0  0.9399999999999999 0.01 0  0.95 0.01 0  0.96 0.01 0  0.97 0.01 0  0.98 0.01 0  0.99 0.01 0  1 0.01 0  0 0.02 0  0.01 0.02 0  0.02 0.02 0  0.03 0.02 0  0.04 0.02 0  0.05 0.02 0  0.06 0.02 0  0.07000000000000001 0.02 0  0.08 0.02 0  0.09 0.02 0  0.1 0.02 0  0.11 0.02 0  0.12 0.02 0  0.13 0.02 0  0.14 0.02 0  0.15 0.02 0  0.16 0.02 0  0.17 0.02 0  0.18 0.02 0  0.19 0.02 0  0.2 0.02 0  0.21 0.02 0  0.22 0.02 0  0.23 0.02 0  0.24 0.02 0  0.25 0.02 0  0.26 0.02 0  0.27 0.02 0  0.28 0.02 0  0.29 0.02 0  0.3 0.02 0  0.31 0.02 0  0.32 0.02 0  0.33 0.02 0  0.34 0.02 0  0.35 0.02 0  0.36 0.02 0  0.37 0.02 0  0.38 0.02 0  0.39 0.02 0  0.4 0.02 0  0.41 0.02 0  0.42 0.02 0  0.43 0.02 0  0.44 0.02 0  0.45 0.02 0  0.46 0.02 0  0.47 0.02 0  0.48 0.02 0  0.49 0.02 0  0.5 0.02 0  0.51 0.02 0  0.52 0.02 0  0.53 0.02 0  0.54 0.02 0  0.55 0.02 0  0.5600000000000001 0.02 0  0.57 0.02 0  0.58 0.02 0  0.59 0.02 0  0.6 0.02 0  0.61 0.02 0  0.62 0.02 0  0.63 0.02 0  0.64 0.02 0  0.65 0.02 0  0.66 0.02 0  0.67 0.02 0  0.68 0.02 0  0.6899999999999999 0.02 0  0.7 0.02 0  0.71 0.02 0  0.72 0.02 0  0.73 0.02 0  0.74 0.02 0  0.75 0.02 0  0.76 0.02 0  0.77 0.02 0  0.78 0.02 0  0.79 0.02 0  0.8 0.02 0  0.8100000000000001 0.02 0  0.82 0.02 0  0.83 0.02 0  0.84 0.02 0  0.85 0.02 0  0.86 0.02 0  0.87 0.02 0  0.88 0.02 0  0.89 0.02 0  0.9 0.02 0  0.91 0.02 0  0.92 0.02 0  0.93 0.02 0  0.9399999999999999 0.02 0  0.95 0.02 0  0.96 0.02 0  0.97 0.02 0  0.98 0.02 0  0.99 0.02 0  1 0.02 0  0 0.03 0  0.01 0.03 0  0.02 0.03 0  0.03 0.03 0  0.04 0.03 0  0.05 0.03 0  0.06 0.03 0  0.07000000000000001 0.03 0  0.08 0.03 0  0.09 0.03 0  0.1 0.03 0  0.11 0.03 0  0.12 0.03 0  0.13 0.03 0  0.14 0.03 0  0.15 0.03 0  0.16 0.03 0  0.17 0.03 0  0.18 0.03 0  0.19 0.03 0  0.2 0.03 0  0.21 0.03 0  0.22 0.03 0  0.23 0.03 0  0.24 0.03 0  0.25 0.03 0  0.26 0.03 0  0.27 0.03 0  0.28 0.03 0  0.29 0.03 0  0.3 0.03 0  0.31 0.03 0  0.32 0.03 0  0.33 0.03 0  0.34 0.03 0  0.35 0.03 0  0.36 0.03 0  0.37 0.03 0  0.38 0.03 0  0.39 0.03 0  0.4 0.03 0  0.41 0.03 0  0.42 0.03 0  0.43 0.03 0  0.44 0.03 0  0.45 0.03 0  0.46 0.03 0  0.47 0.03 0  0.48 0.03 0  0.49 0.03 0  0.5 0.03 0  0.51 0.03 0  0.52 0.03 0  0.53 0.03 0  0.54 0.03 0  0.55 0.03 0  0.5600000000000001 0.03 0  0.57 0.03 0  0.58 0.03 0  0.59 0.03 0  0.6 0.03 0  0.61 0.03 0  0.62 0.03 0  0.63 0.03 0  0.64 0.03 0  0.65 0.03 0  0.66 0.03 0  0.67 0.03 0  0.68 0.03 0  0.6899999999999999 0.03 0  0.7 0.03 0  0.71 0.03 0  0.72 0.03 0  0.73 0.03 0  0.74 0.03 0  0.75 0.03 0  0.76 0.03 0  0.77 0.03 0  0.78 0.03 0  0.79 0.03 0  0.8 0.03 0  0.8100000000000001 0.03 0  0.82 0.03 0  0.83 0.03 0  0.84 0.03 0  0.85 0.03 0  0.86 0.03 0  0.87 0.03 0  0.88 0.03 0  0.89 0.03 0  0.9 0.03 0  0.91 0.03 0  0.92 0.03 0  0.93 0.03 0  0.9399999999999999 0.03 0  0.95 0.03 0  0.96 0.03 0  0.97 0.03 0  0.98 0.03 0  0.99 0.03 0  1 0.03 0  0 0.04 0  0.01 0.04 0  0.02 0.04 0  0.03 0.04 0  0.04 0.04 0  0.05 0.04 0  0.06 0.04 0  0.07000000000000001 0.04 0  0.08 0.04 0  0.09 0.04 0  0.1 0.04 0  0.11 0.04 0  0.12 0.04 0  0.13 0.04 0  0.14 0.04 0  0.15 0.04 0  0.16 0.04 0  0.17 0.04 0  0.18 0.04 0  0.19 0.04 0  0.2 0.04 0  0.21 0.04 0  0.22 0.04 0  0.23 0.04 0  0.24 0.04 0  0.25 0.04 0  0.26 0.04 0  0.27 0.04 0  0.28 0.04 0  0.29 0.04 0  0.3 0.04 0  0.31 0.04 0  0.32 0.04 0  0.33 0.04 0  0.34 0.04 0  0.35 0.04 0  0.36 0.04 0  0.37 0.04 0  0.38 0.04 0  0.39 0.04 0  0.4 0.04 0  0.41 0.04 0  0.42 0.04 0  0.43 0.04 0  0.44 0.04 0  0.45 0.04 0  0.46 0.04 0  0.47 0.04 0  0.48 0.04 0  0.49 0.04 0  0.5 0.04 0  0.51 0.04 0  0.52 0.04 0  0.53 0.04 0  0.54 0.04 0  0.55 0.04 0  0.5600000000000001 0.04 0  0.57 0.04 0  0.58 0.04 0  0.59 0.04 0  0.6 0.04 0  0.61 0.04 0  0.62 0.04 0  0.63 0.04 0  0.64 0.04 0  0.65 0.04 0  0.66 0.04 0  0.67 0.04 0  0.68 0.04 0  0.6899999999999999 0.04 0  0.7 0.04 0  0.71 0.04 0  0.72 0.04 0  0.73 0.04 0  0.74 0.04 0  0.75 0.04 0  0.76 0.04 0  0.77 0.04 0  0.78 0.04 0  0.79 0.04 0  0.8 0.04 0  0.8100000000000001 0.04 0  0.82 0.04 0  0.83 0.04 0  0.84 0.04 0  0.85 0.04 0  0.86 0.04 0  0.87 0.04 0  0.88 0.04 0  0.89 0.04 0  0.9 0.04 0  0.91 0.04 0  0.92 0.04 0  0.93 0.04 0  0.9399999999999999 0.04 0  0.95 0.04 0  0.96 0.04 0  0.97 0.04 0  0.98 0.04 0  0.99 0.04 0  1 0.04 0  0 0.05 0  0.01 0.05 0  0.02 0.05 0  0.03 0.05 0  0.04 0.05 0  0.05 0.05 0  0.06 0.05 0  0.07000000000000001 0.05 0  0.08 0.05 0  0.09 0.05 0  0.1 0.05 0  0.11 0.05 0  0.12 0.05 0  0.13 0.05 0  0.14 0.05 0  0.15 0.05 0  0.16 0.05 0  0.17 0.05 0  0.18 0.05 0  0.19 0.05 0  0.2 0.05 0  0.21 0.05 0  0.22 0.05 0  0.23 0.05 0  0.24 0.05 0  0.25 0.05 0  0.26 0.05 0  0.27 0.05 0  0.28 0.05 0  0.29 0.05 0  0.3 0.05 0  0.31 0.05 0  0.32 0.05 0  0.33 0.05 0  0.34 0.05 0  0.35 0.05 0  0.36 0.05 0  0.37 0.05 0  0.38 0.05 0  0.39 0.05 0  0.4 0.05 0  0.41 0.05 0  0.42 0.05 0  0.43 0.05 0  0.44 0.05 0  0.45 0.05 0  0.46 0.05 0  0.47 0.05 0  0.48 0.05 0  0.49 0.05 0  0.5 0.05 0  0.51 0.05 0  0.52 0.05 0  0.53 0.05 0  0.54 0.05 0  0.55 0.05 0  0.5600000000000001 0.05 0  0.57 0.05 0  0.58 0.05 0  0.59 0.05 0  0.6 0.05 0  0.61 0.05 0  0.62 0.05 0  0.63 0.05 0  0.64 0.05 0  0.65 0.05 0  0.66 0.05 0  0.67 0.05 0  0.68 0.05 0  0.6899999999999999 0.05 0  0.7 0.05 0  0.71 0.05 0  0.72 0.05 0  0.73 0.05 0  0.74 0.05 0  0.75 0.05 0  0.76 0.05 0  0.77 0.05 0  0.78 0.05 0  0.79 0.05 0  0.8 0.05 0  0.8100000000000001 0.05 0  0.82 0.05 0  0.83 0.05 0  0.84 0.05 0  0.85 0.05 0  0.86 0.05 0  0.87 0.05 0  0.88 0.05 0  0.89 0.05 0  0.9 0.05 0  0.91 0.05 0  0.92 0.05 0  0.93 0.05 0  0.9399999999999999 0.05 0  0.95 0.05 0  0.96 0.05 0  0.97 0.05 0  0.98 0.05 0  0.99 0.05 0  1 0.05 0  0 0.06 0  0.01 0.06 0  0.02 0.06 0  0.03 0.06 0  0.04 0.06 0  0.05 0.06 0  0.06 0.06 0  0.07000000000000001 0.06 0  0.08 0.06 0  0.09 0.06 0  0.1 0.06 0  0.11 0.06 0  0.12 0.06 0  0.13 0.06 0  0.14 0.06 0  0.15 0.06 0  0.16 0.06 0  0.17 0.06 0  0.18 0.06 0  0.19 0.06 0  0.2 0.06 0  0.21 0.06 0  0.22 0.06 0  0.23 0.06 0  0.24 0.06 0  0.25 0.06 0  0.26 0.06 0  0.27 0.06 0  0.28 0.06 0  0.29 0.06 0  0.3 0.06 0  0.31 0.06 0  0.32 0.06 0  0.33 0.06 0  0.34 0.06 0  0.35 0.06 0  0.36 0.06 0  0.37 0.06 0  0.38 0.06 0  0.39 0.06 0  0.4 0.06 0  0.41 0.06 0  0.42 0.06 0  0.43 0.06 0  0.44 0.06 0  0.45 0.06 0  0.46 0.06 0  0.47 0.06 0  0.48 0.06 0  0.49 0.06 0  0.5 0.06 0  0.51 0.06 0  0.52 0.06 0  0.53 0.06 0  0.54 0.06 0  0.55 0.06 0  0.5600000000000001 0.06 0  0.57 0.06 0  0.58 0.06 0  0.59 0.06 0  0.6 0.06 0  0.61 0.06 0  0.62 0.06 0  0.63 0.06 0  0.64 0.06 0  0.65 0.06 0  0.66 0.06 0  0.67 0.06 0  0.68 0.06 0  0.6899999999999999 0.06 0  0.7 0.06 0  0.71 0.06 0  0.72 0.06 0  0.73 0.06 0  0.74 0.06 0  0.75 0.06 0  0.76 0.06 0  0.77 0.06 0  0.78 0.06 0  0.79 0.06 0  0.8 0.06 0  0.8100000000000001 0.06 0  0.82 0.06 0  0.83 0.06 0  0.84 0.06 0  0.85 0.06 0  0.86 0.06 0  0.87 0.06 0  0.88 0.06 0  0.89 0.06 0  0.9 0.06 0  0.91 0.06 0  0.92 0.06 0  0.93 0.06 0  0.9399999999999999 0.06 0  0.95 0.06 0  0.96 0.06 0  0.97 0.06 0  0.98 0.06 0  0.99 0.06 0  1 0.06 0  0 0.07000000000000001 0  0.01 0.07000000000000001 0  0.02 0.07000000000000001 0  0.03 0.07000000000000001 0  0.04 0.07000000000000001 0  0.05 0.07000000000000001 0  0.06 0.07000000000000001 0  0.07000000000000001 0.07000000000000001 0  0.08 0.07000000000000001 0  0.09 0.07000000000000001 0  0.1 0.07000000000000001 0  0.11 0.07000000000000001 0  0.12 0.07000000000000001 0  0.13 0.07000000000000001 0  0.14 0.07000000000000001 0  0.15 0.07000000000000001 0  0.16 0.07000000000000001 0  0.17 0.0700
[...]
<PointData  Scalars="Indicator Function"> 
<DataArray  type="Float64"  Name="Indicator Function"  format="ascii">-4.9072419330543979e-19  1.5662224404540818e-18  3.4447991222101049e-17  1.1282604167426082e-18  8.7365614287441718e-17  -1.7577179090888027e-19  -6.4558971724595889e-20  3.7170917736224765e-17  1.5465949316920375e-16  -2.6129829459737863e-19  6.0512683485701552e-17  4.8711367075805438e-17  -2.3886347931870678e-20  -6.3882979229677476e-19  3.3689780950412708e-16  4.0926011318228762e-34  -4.7380378126147707e-19  3.7315756106217299e-16  -8.1648289187657053e-19  -1.0518268659376536e-18  8.7170411356933586e-16  -1.9873580452919632e-18  -1.0399976091257617e-18  5.0959882847162810e-17  -3.4133934573770807e-19  -8.7265284724692760e-19  -8.4473288995805842e-19  -9.2591520338962926e-19  1.2817207501907161e-15  -1.3540639712132571e-18  -3.0312478806589530e-18  -1.5156239403294769e-18  -1.4867269641365229e-18  -1.8572118588050930e-18  8.1602474110902812e-17  -7.0245256123995019e-19  -3.7583676903981150e-18  -6.4855902446661148e-18  -7.2753796467567005e-18  -5.9639289006386634e-18  7.9239041344368291e-16  -5.4095072800415846e-20  -1.4545764535149840e-18  -1.3127703844986490e-18  -1.7035333308142713e-18  -8.5176666540709943e-19  2.0315647759405862e-16  -8.7950602153824539e-19  -2.7113973870763934e-19  -5.6499703087260741e-19  -2.8249851543630385e-19  -3.8191127825099870e-19  -8.2007058433258326e-20  -5.9941162763836645e-19  -2.9352882821507375e-19  -1.7092628256436718e-33  1.4791141972893971e-30  -7.7900526455480848e-20  -3.5813380343811195e-20  -4.9100129212281312e-20  1.2037062152420224e-35  -8.8091966327507258e-20  -5.0008298918768719e-20  -3.2000398786113537e-20  -5.4083483549189281e-20  -6.3394754585989666e-20  -2.2071772661892839e-20  -2.1221274286913078e-21  3.3382292614939696e-17  -5.8465672451120259e-20  -1.6964603542575407e-20  -3.8303567165371146e-21  -3.3871858429349617e-21  -1.0688512150356061e-19  -1.6331039160425775e-19  -8.7565412299483739e-20  -2.6329471276732910e-20  -7.0500868284296114e-20  -7.1371310236366478e-20  -5.9601555766348975e-20  -1.9124966904823347e-20  5.3054634873268298e-17  -2.2199314685957517e-21  -9.5609002075743914e-20  -8.6285369658373694e-20  -6.0422694111667069e-20  4.5138983071575840e-36  -2.6227583258163994e-20  -3.3932909504447012e-20  -9.0055885861185090e-21  -1.6533115018591777e-21  -1.2070268844968302e-21  -1.3012743030291838e-20  1.2018546748691036e-17  -1.0731965979363570e-20  -7.1296560146396163e-21  -1.5824733763005723e-22  -1.1443900758773549e-21  -1.6575057861420705e-21  -9.4039548065783001e-38  1.5046327690525280e-36  0.0000000000000000e+00  1.7360220449088463e-02  3.1728761826013425e-02  6.6787887824183521e-03  9.2373603360628338e-03  2.0709830973626711e-03  2.3259820880184297e-03  1.4635282144894099e-03  2.7747349948504869e-02  2.5556608554831155e-02  4.7071316087251656e-03  3.4768880130546777e-02  8.6059638116173362e-04  2.3016268916326837e-02  1.8329044187153837e-02  4.2508882062844998e-02  1.7070580261887798e-02  8.8473406360695030e-04  2.9416896380877664e-02  3.7896056651960192e-02  2.7146890287036138e-02  4.5904039694200989e-02  3.5801059808914570e-02  1.8734931379700125e-02  1.2298046002169832e-02  3.1440632301480531e-02  3.0434709827541710e-02  1.7208014333984795e-02  8.0757982928562691e-03  1.7228432903522446e-02  1.5778431533006128e-02  5.4606107303213067e-02  3.7456457303007444e-02  8.0542633552439253e-03  2.9429422863428728e-02  1.5040557136022085e-02  1.9310884252946289e-02  5.8049291193519890e-02  8.7809361639864192e-02  8.7156907444517359e-02  6.3858138176063048e-02  3.5069566594834782e-02  9.7449019882613563e-04  2.5716074796714842e-02  1.0790731459447126e-02  3.0688128295473485e-02  3.7482431712895017e-02  1.5121859408968421e-02  1.5843771963478998e-02  4.8844193048362327e-03  1.0178081670813246e-02  7.8505725985299323e-03  2.9546156624141806e-03  4.8314041577041181e-03  8.3823378526426962e-03  1.0965763591662685e-03  1.3513080178095390e-04  2.8066622553349508e-03  1.2903130109701282e-03  1.7329253051858262e-03  1.8046641904180535e-05  1.2053047900151419e-04  1.8017388510079928e-03  3.0201814156536457e-05  5.6136702911712441e-04  6.9359791087754603e-04  7.9521941708405491e-04  7.6457698376679366e-05  2.3824691466449471e-04  8.8401933023335314e-04  6.1121425754264607e-04  1.3800314465034106e-04  1.2203623120061205e-04  5.6169360598726009e-04  1.6680186450656071e-03  2.1079291525658559e-03  5.2347365652706675e-04  4.7430958812302604e-04  1.0328759424762964e-03  7.6927325350362825e-04  6.8904955060830999e-04  1.3648754497727468e-05  7.9981460278046694e-05  1.0426281355609042e-03  1.2010245967058887e-03  9.5386673621096452e-04  6.1154512263861878e-04  3.9240652817570514e-04  5.7364086238746910e-04  3.2446052320556247e-04  5.9566824509602844e-05  4.3487726617968782e-05  6.0076540989232800e-05  2.0437846815454273e-04  1.1291025682400712e-04  1.3687478353045484e-04  5.9999072918015721e-05  7.0585438654005996e-06  2.0615498877150993e-05  1.9551220324759972e-05  5.4265537410169591e-22  -1.1219008459689233e-18  3.3572491330158796e-03  7.4219969473158908e-03  2.8543690578000393e-03  1.0430856878993538e-02  3.2031932318989924e-02  6.3407718769290435e-03  2.4367347930068475e-02  5.0307674639108735e-03  1.7268951519400666e-02  4.5336084477291691e-02  3.2312918999039104e-02  1.3845830272549048e-02  5.6699909207724407e-02  6.1661549597158374e-02  3.5651961070288903e-02  1.6057359614742781e-02  6.8065019187387291e-02  2.3992172647560820e-02  1.4830473469007848e-02  1.1163468188570879e-02  3.5638380472566351e-02  4.4259926087115486e-02  4.7502857283936689e-02  2.4428532509528568e-02  4.7113922963048241e-04  2.6837461472791899e-02  3.9016655540717329e-02  6.0766752171237289e-02  3.0028187385905365e-02  5.4212875134813245e-02  6.7389106799740098e-02  1.7444562884199481e-02  4.7634430550269578e-02  3.3714993507439478e-02  3.1947554920046667e-02  1.8227176669558701e-02  6.3332268776191331e-02  1.0216137364828572e-01  1.0974554569702542e-01  1.2819600205076126e-01  6.4825831611013338e-02  1.1824737464182727e-02  2.4985760198309834e-03  3.3582054641666963e-02  2.7457452429865255e-02  9.6479613827473911e-03  8.0403781103644684e-03  1.9364909120468406e-02  1.3509882194130787e-02  1.9622331624408147e-02  6.9212043000222183e-03  5.1442032523827319e-03  2.1947280859600697e-03  1.7184334935978034e-02  3.0946994390829287e-03  1.3781060472647562e-03  2.9033909963329407e-03  1.8702221382064337e-03  1.3377867788108315e-03  3.2931555801189046e-03  2.0015703970303000e-03  2.3854804222798163e-03  1.4679319114539872e-03  1.3347434845048568e-03  6.1738165857003213e-04  1.2640143185269070e-03  3.8939384221144742e-04  2.0036514275238029e-04  1.0578675504900135e-03  1.3618212813248742e-03  3.9255792249118105e-05  1.6844357527882664e-04  1.9585583754797952e-05  1.8005105486383608e-03  2.9448012060736945e-03  1.7849809701999497e-03  5.9852017247756311e-04  1.2145144546402136e-03  1.1516752676104770e-03  7.8078294675799226e-04  6.3212120296318123e-04  5.2319867676836054e-04  9.0191703878009623e-04  1.9355645954180149e-03  1.3465588736605240e-03  9.6872703459848278e-04  4.4621686429317857e-04  8.0023848772923286e-04  6.3665449287279483e-04  8.0377880376158943e-05  1.4425906143768923e-04  1.0224092161051805e-04  3.0808373094961741e-04  1.8151531314417122e-04  2.1591972393473729e-04  1.2529894020423224e-04  5.2756094163422449e-05  1.1426686635447058e-05  3.0851927135007452e-05  7.7068169683522269e-21  4.8148248609680896e-34  2.3834304296156801e-02  9.0807176559253976e-03  4.6211994909157429e-02  2.4768545207277119e-02  4.8997513050508528e-04  1.9841059211910908e-04  1.4456262492669771e-03  3.8240459571975091e-03  5.1434074951951951e-02  8.4173524350102780e-02  5.3465203651033792e-02  5.3018306210834122e-02  3.9208127973213346e-02  1.9675454517422440e-02  3.9553928822836287e-02  1.1031066079288075e-01  1.1825743843429413e-02  7.9890065632703990e-03  4.6959552355113218e-02  8.4517942350720840e-02  7.9656184129276872e-02  1.1875432499207593e-01  1.2190823737106371e-01  8.1234137928772987e-02  3.7478266373700476e-02  6.1797193407844564e-02  7.0244894819916456e-02  3.2748134497879867e-02  3.4687659121361458e-02  4.5371679949629248e-02  4.4160996425892884e-02  1.3341508922477788e-01  1.0035063416285701e-01  1.7977538660216325e-03  4.9082451603456187e-02  1.8046732737499366e-02  5.2810511210080881e-02  1.0798705843727793e-01  1.4200145768002989e-01  1.1666288387211819e-01  9.2414271505714934e-02  4.9634462083525177e-02  2.5160106143600518e-02  3.7093745049728143e-02  6.3606205536098134e-03  7.8851476524957026e-02  1.0001440350346631e-01  5.3851505227431130e-02  4.6306511889209631e-02  2.6590469818835605e-02  3.0544336366678644e-02  2.3898339753010325e-02  7.2763859371332347e-04  1.0704658723974497e-02  1.7624965414397259e-02  4.8930593019797484e-03  1.9360020913064078e-03  7.3652849572139224e-03  3.3289889810267322e-03  3.2952356706250022e-03  3.0761178620966959e-04  9.9235952924853666e-04  4.0062655017824430e-03  9.2834896058360545e-04  1.5768945498270987e-03  7.5447551172220780e-04  1.2992562711382860e-03  4.5809595698881892e-04  4.1000790379645385e-04  1.8696084379230934e-03  9.7021262474025814e-04  8.2879216306812429e-04  3.1538994361128271e-04  8.6482668383437299e-04  3.0198232091157608e-03  3.3361893931020130e-03  2.4145868604890020e-04  1.4120221110310797e-03  1.5343626633055353e-03  6.7137159114627097e-04  8.1568659119587528e-04  1.4456218526520220e-04  2.6034770398798788e-04  2.3346369636596405e-03  1.9713702430516240e-03  1.0481327410877320e-03  6.5084533949596535e-04  4.2102443229098094e-04  1.0855822904357758e-03  4.0641892560380711e-04  3.4190030538238845e-04  6.3487360876850833e-05  5.4403648257198085e-05  4.6134185626493823e-04  1.2193892911504644e-04  2.5113780597771287e-04  9.2664898595836811e-05  3.0408651378174683e-05  4.0202678157155414e-06  -2.4826440689366712e-35  -4.3777928583751182e-19  1.0411323909847356e-02  1.1777398368929172e-02  2.1092835538621461e-02  6.7474384432699783e-05  4.1179873863499330e-03  3.2136005040837995e-02  3.5328516279774007e-02  3.6801386990792842e-02  1.8335059673539180e-02  5.7837024001680887e-03  2.7725531664234773e-02  4.6410891268699246e-02  6.1201496761177754e-02  5.7933029878847853e-02  1.2349724969424565e-01  3.2216480944120520e-04  4.5796269793081483e-03  8.8564272633014141e-02  5.6543557419710851e-02  4.7746422849237025e-02  5.2532807797789086e-02  6.3342634010000948e-03  2.2102550882792647e-02  2.6642814763739125e-02  2.0306054422369713e-02  8.5003403426053229e-03  6.8260578319400189e-02  8.9569932338434979e-02  9.8883378223470139e-02  4.6316546025291706e-02  7.7856295932195785e-02  9.4665716471721659e-02  5.4935114580270408e-02  1.1729526452211729e-01  2.5513426881532370e-02  3.3019445593056973e-02  3.1989197693973646e-02  8.7498276212542317e-02  1.3115864329809770e-01  1.3988041307483948e-01  1.4970289495963313e-01  5.0963030767886788e-02  2.9949679219795789e-02  1.6436152101969319e-03  4.8323184345293875e-02  4.8604788055102960e-02  1.6933101904591064e-02  5.1675301638994781e-02  7.7896220495084440e-04  9.5322048531504052e-03  1.7688288221657442e-02  2.2688188536559221e-03  1.4759936795377678e-02  1.1413691407036939e-03  2.8046664620253580e-02  3.6760203749530108e-03  7.6264437524412197e-03  2.6095176379267414e-03  5.2106870350528784e-03  4.0700689465894817e-03  6.0215360525572572e-03  3.7709133289703513e-03  2.9818979513647642e-03  2.6200450321690921e-03  2.8587096029083370e-03  9.4016238696912214e-04  1.3623551495402116e-03  4.3293833280263089e-04  6.6794566091000953e-04  1.4987226683897102e-03  2.1223014152038848e-03  2.5500197567103179e-04  6.4695620258632040e-04  4.4563354246523530e-04  2.2848168195587376e-03  3.9085784563002920e-03  2.0729710197384533e-03  1.9565880172400635e-03  1.8713437211915508e-03  1.2132031877029831e-03  4.1099782132104847e-04  6.6565047694041918e-04  1.0212169369938102e-03  1.1519979610081375e-03  3.0456265925532422e-03  1.4715550125197815e-03  7.4479514946970238e-04  2.1359841437270632e-04  9.0161208110952121e-04  9.0111133297441921e-04  3.1132535773683427e-05  4.2009310308997462e-04  2.2138381495889018e-04  4.0777352355261093e-04  3.0773743450449178e-04  2.3592270661966961e-04  1.7921520764192965e-04  7.7007637651711072e-05  1.2171188935050220e-05  -3.6399174735497841e-21  -1.5186420816058669e-18  4.5387822657141211e-02  4.0267140199266110e-02  5.3978870142167871e-03  5.2121511846945190e-02  5.1320148047592773e-02  5.9496258702918412e-03  1.8519245907095468e-02  9.8098757701849826e-03  2.7467078081863574e-02  4.9570586653630816e-02  9.9051235501554993e-02  9.6891131788188672e-02  2.5260376891168543e-02  4.3156538657638695e-02  1.9606625318056056e-02  7.4612539366688034e-03  1.3363732678193740e-01  4.5132013967981673e-02  3.3894435890772644e-02  2.6092781146816679e-02  8.4261109570887296e-02  8.6710586649321297e-02  1.4290074304313027e-01  1.6665122610102195e-01  1.2642066555060189e-01  5.9783463075075718e-02  6.2105514984867410e-02  6.8080915567731326e-02  2.1230291418814079e-02  7.5055316524192534e-02  8.0483802276616126e-02  7.3829624229125659e-02  1.9307816559892188e-01  1.0846642552172224e-01  2.7544531669854037e-02  6.1562972056881077e-02  2.0904593146017853e-02  7.8008553022512209e-02  1.3482341902118614e-01  1.5917643032244744e-01  1.2244172967262394e-01  1.1255356284067924e-01  4.1599103703564337e-02  6.1177215085153162e-02  3.7365297027747241e-02  5.5538243346954490e-03  1.1071095900292896e-01  1.1938217717764515e-01  5.8727638084204899e-02  5.8106820167075364e-02  4.2966594258999874e-02  4.3765823572794890e-02  3.3171819252239228e-02  2.3165523499051447e-03  1.2010687016149544e-02  2.7456778306173723e-02  9.5391314842664283e-03  6.1099429703906603e-03  9.2935028142280326e-03  2.9705807065519979e-03  2.2943041335784778e-03  1.9208559352447223e-03  2.9581057200489345e-03  5.5284362440274435e-03  1.0252958758639032e-03  2.7592568282410433e-03  7.1843243951160405e-04  1.4979324192080921e-03  6.7507705939303547e-04  1.6928402660367308e-04  2.4733684968715531e-03  1.4304442193074916e-03  1.3330034141943753e-03  3.1110559159893103e-04  5.1811986120543004e-04  3.6360208255686388e-03  4.0191169869956923e-03  6.7323574420331963e-04  2.5581228806667829e-03  1.9122960469826319e-03  5.0657116302274172e-04  5.7742925794879499e-04  1.9037373565165410e-04  7.4991563671920100e-04  2.9589403935838888e-03  2.6532155120466520e-03  8.9607400918776238e-04  4.0643953140809388e-04  1.9104640766388648e-04  1.3256432912128675e-03  4.6384269107638070e-04  5.4600597976024333e-04  6.5405781129070350e-05  3.8268511843291032e-05  6.2060128918420667e-04  1.4373294520634168e-04  3.0793039278463147e-04  1.2495573929226101e-04  5.4255462060058111e-05  3.0092655381050560e-36  -1.4247398880794914e-19  2.8787533374873935e-02  5.7936181062059385e-03  8.8001949987967232e-03  4.2217410987844518e-02  2.4881034556289042e-02  3.2896490858832679e-03  2.2808770871118187e-02  4.3276217417180671e-02  3.3494280819957707e-02  1.5208170888613917e-02  2.0009461499000018e-02  1.0614056143882547e-02  8.7475643281673485e-03  8.5742844704790253e-02  2.7313734423153869e-02  1.2970411789001798e-01  2.2586270485274017e-02  2.7388530563188927e-02  6.9065612176655841e-02  5.4026540235943124e-02  5.2742181838397684e-02  8.0773473519476460e-02  2.2608613110107950e-02  1.4285563794318777e-02  2.7082742370020913e-02  1.4544518373583738e-02  1.7574319476305313e-02  9.0322692662264226e-02  1.2301787007686063e-01  1.1005219548246359e-01  2.9901741746612878e-02  9.9099014719315731e-02  9.1548363693490648e-02  9.6689763298165310e-02  1.6421933019828400e-01  1.8304041721332254e-02  3.7342749416002373e-02  3.0800250257810746e-02  1.0612379983582014e-01  1.5683265976803767e-01  1.6251961156154834e-01  1.5000546732065420e-01  4.5624654425916206e-02  3.4893592742945241e-02  2.0385221884948852e-02  5.8104412833611167e-02  6.0744809282608205e-02  4.7289649026095247e-02  9.2054693058788120e-02  2.5856714452557775e-02  6.8961551435560604e-03  3.1927921243379048e-03  1.0648980728947099e-02  2.7354334646343448e-02  8.3909921507923052e-04  3.3246665872898352e-02  8.2207948484255902e-03  1.4102333372833420e-02  6.8752961471618625e-04  8.2975695509723436e-03  5.8391428740063814e-03  6.9435842448740378e-03  3.9708946797455671e-03  2.1421464695589973e-03  3.9567847512850590e-03  3.8617411424604997e-03  1.5743765659870185e-03  1.2432497237534893e-03  5.2838812491136128e-04  9.5693835690881105e-04  1.5836873446794964e-03  2.7753654916824319e-03  1.2537714079312505e-04  1.1444318286541902e-03  7.8655826261158658e-04  2.2541423377372000e-03  4.6012124073006233e-03  2.4025121632119395e-03  2.9642921474601824e-03  2.6754222478050280e-03  1.3227686217453080e-03  1.1796269924431418e-04  5.5242616783193017e-04  1.2251858628343395e-03  1.0050822464434601e-03  3.9196590136691698e-03  1.7276030016236928e-03  4.7311252938568203e-04  1.4835245759224751e-05  8.3712372021363878e-04  1.1807718081617276e-03  9.0459036181638302e-05  6.3826243222162851e-04  2.3326332201087006e-04  3.9174015127348220e-04  4.5723758632566005e-04  2.2938349254909122e-04  2.3174324799666028e-04  8.9888937489158871e-05  -4.9898384029777801e-21  -5.8291738342375987e-19  2.5665832116218892e-03  1.8043666714673348e-02  9.8910244107162874e-03  3.3029961167936217e-02  3.4105087802637143e-02  5.7249564354403801e-02  3.0952841605026327e-03  3.6830333417124869e-02  2.3693410391665184e-02  3.9728670318483823e-02  3.8117559611752574e-02  8.4096269323063230e-02  8.2609040057575231e-02  1.3581117500203058e-02  1.1202729327076834e-02  2.7246947190932159e-02  3.1423109970301094e-02  1.1658842187761112e-01  3.7264871564565864e-02  3.4225544712733029e-02  6.7452178164328054e-03  6.4284286812022792e-02  5.7230985798162770e-02  1.2057585094832872e-01  1.4881617065096611e-01  1.1139467977694305e-01  5.3149903020903957e-02  5.0432169389864390e-02  4.4209384809003389e-02  1.5601235748726616e-04  1.0042565854243900e-01  1.0330627080292699e-01  8.8789262405311847e-02  2.2237180758242708e-01  8.2969480444557514e-02  8.0317876742839703e-02  6.3232350419482650e-02  2.0645838807068408e-02  9.5026064465956378e-02  1.5598176453302259e-01  1.7305519600197336e-01  1.3817398371772074e-01  1.2394838902601726e-01  2.5479352281376443e-02  8.3115294715345261e-02  4.2367365255785557e-02  5.2295914490344585e-03  1.2689328836836489e-01  1.0542864916004277e-01  2.5877572456381233e-02  4.0196918667254708e-02  3.6489497339141259e-02  4.0071426122122326e-02  2.8952784340656294e-02  1.0481898954753472e-02  1.4471092660347851e-02  3.5257120345815615e-02  9.9226404678684297e-03  1.1860565476233058e-02  8.8738979896619118e-03  3.0976451036464900e-04  1.3977329014161415e-04  3.6438565164461181e-03  4.2916904200029238e-03  5.9204875304914670e-03  4.5285098648952009e-04  3.9982087292897055e-03  9.9547553170828223e-04  1.4274524872406825e-03  6.8395194741370741e-04  7.0789827135974191e-05  2.8016485041269528e-03  1.9828277393480688e-03  1.4654936801530205e-03  2.7769479076649063e-05  8.0511523943596329e-05  3.9467774197425023e-03  4.6169867227117359e-03  7.0053728019099876e-04  3.7964229003964547e-03  2.4381838335077637e-03  4.7921195506647740e-04  2.6372100469222634e-04  2.3262387908097454e-04  1.0604852464096721e-03  3.1912228621329215e-03  3.5184563838859288e-03  8.9325676610458855e-04  1.2890655758394969e-04  6.3098989391903325e-06  1.4289598378005588e-03  6.6324159375150159e-04  6.2561238969699613e-04  2.2297045146300651e-04  1.3185903712789753e-04  6.5543306885269164e-04  2.3218747470721976e-04  3.0350613018162448e-04  1.4564907284031408e-04  -2.0212869272827915e-20  -2.7023561173535429e-19  1.1149692657640552e-02  1.0444754048917156e-02  1.1198343196497717e-02  1.5270833371324387e-02  2.0270274377012176e-02  4.6908226136609915e-02  7.8136338985729647e-03  1.0189948336128660e-02  3.4227359309346700e-02  3.0809675065531218e-02  6.7174292955527182e-03  8.0769621558386337e-03  1.5775379411401749e-02  2.1971653376467119e-02  7.1003622297297384e-02  1.7462933938265805e-02  