<?xml version="1.0"?>
<VTKFile type="UnstructuredGrid"  version="0.1"  >
<UnstructuredGrid>
<Piece  NumberOfPoints="10201" NumberOfCells="20000">
<Points>
<DataArray  type="Float64"  NumberOfComponents="3"  format="ascii">0 0 0  0.01 0 0  0.02 0 0  0.03 0 0  0.04 0 0  0.05 0 0  0.06 0 0  0.07000000000000001 0 0  0.08 0 0  0.09 0 0  0.1 0 0  0.11 0 0  0.12 0 0  0.13 0 0  0.14 0 0  0.15 0 0  0.16 0 0  0.17 0 0  0.18 0 0  0.19 0 0  0.2 0 0  0.21 0 0  0.22 0 0  0.23 0 0  0.24 0 0  0.25 0 0  0.26 0 0  0.27 0 0  0.28 0 0  0.29 0 0  0.3 0 0  0.31 0 0  0.32 0 0  0.33 0 0  0.34 0 0  0.35 0 0  0.36 0 0  0.37 0 0  0.38 0 0  0.39 0 0  0.4 0 0  0.41 0 0  0.42 0 0  0.43 0 0  0.44 0 0  0.45 0 0  0.46 0 0  0.47 0 0  0.48 0 0  0.49 0 0  0.5 0 0  0.51 0 0  0.52 0 0  0.53 0 0  0.54 0 0  0.55 0 0  0.5600000000000001 0 0  0.57 0 0  0.58 0 0  0.59 0 0  0.6 0 0  0.61 0 0  0.62 0 0  0.63 0 0  0.64 0 0  0.65 0 0  0.66 0 0  0.67 0 0  0.68 0 0  0.6899999999999999 0 0  0.7 0 0  0.71 0 0  0.72 0 0  0.73 0 0  0.74 0 0  0.75 0 0  0.76 0 0  0.77 0 0  0.78 0 0  0.79 0 0  0.8 0 0  0.8100000000000001 0 0  0.82 0 0  0.83 0 0  0.84 0 0  0.85 0 0  0.86 0 0  0.87 0 0  0.88 0 0  0.89 0 0  0.9 0 0  0.91 0 0  0.92 0 0  0.93 0 0  0.9399999999999999 0 0  0.95 0 0  0.96 0 0  0.97 0 0  0.98 0 0  0.99 0 0  1 0 0  0 0.01 0  0.01 0.01 0  0.02 0.01 0  0.03 0.01 0  0.04 0.01 0  0.05 0.01 0  0.06 0.01 0  0.07000000000000001 0.01 0  0.08 0.01 0  0.09 0.01 0  0.1 0.01 0  0.11 0.01 0  0.12 0.01 0  0.13 0.01 0  0.14 0.01 0  0.15 0.01 0  0.16 0.01 0  0.17 0.01 0  0.18 0.01 0  0.19 0.01 0  0.2 0.01 0  0.21 0.01 0  0.22 0.01 0  0.23 0.01 0  0.24 0.01 0  0.25 0.01 0  0.26 0.01 0  0.27 0.01 0  0.28 0.01 0  0.29 0.01 0  0.3 0.01 0  0.31 0.01 0  0.32 0.01 0  0.33 0.01 0  0.34 0.01 0  0.35 0.01 0  0.36 0.01 0  0.37 0.01 0  0.38 0.01 0  0.39 0.01 0  0.4 0.01 0  0.41 0.01 0  0.42 0.01 0  0.43 0.01 0  0.44 0.01 0  0.45 0.01 0  0.46 0.01 0  0.47 0.01 0  0.48 0.01 0  0.49 0.01 0  0.5 0.01 0  0.51 0.01 0  0.52 0.01 0  0.53 0.01 0  0.54 0.01 0  0.55 0.01 0  0.5600000000000001 0.01 0  0.57 0.01 0  0.58 0.01 0  0.59 0.01 0  0.6 0.01 0  0.61 0.01 0  0.62 0.01 0  0.63 0.01 0  0.64 0.01 0  0.65 0.01 0  0.66 0.01 0  0.67 0.01 0  0.68 0.01 0  0.6899999999999999 0.01 0  0.7 0.01 0  0.71 0.01 0  0.72 0.01 0  0.73 0.01 0  0.74 0.01 0  0.75 0.01 0  0.76 0.01 0  0.77 0.01 0  0.78 0.01 0  0.79 0.01 0  0.8 0.01 0  0.8100000000000001 0.01 0  0.82 0.01 0  0.83 0.01 0  0.84 0.01 0  0.85 0.01 0  0.86 0.01 0  0.87 0.01 0  0.88 0.01 0  0.89 0.01 0  0.9 0.01 0  0.91 0.01 0  0.92 0.01 0  0.93 0.01 0  0.9399999999999999 0.01 0  0.95 0.01 0  0.96 0.01 0  0.97 0.01 0  0.98 0.01 0  0.99 0.01 0  1 0.01 0  0 0.02 0  0.01 0.02 0  0.02 0.02 0  0.03 0.02 0  0.04 0.02 0  0.05 0.02 0  0.06 0.02 0  0.07000000000000001 0.02 0  0.08 0.02 0  0.09 0.02 0  0.1 0.02 0  0.11 0.02 0  0.12 0.02 0  0.13 0.02 0  0.14 0.02 0  0.15 0.02 0  0.16 0.02 0  0.17 0.02 0  0.18 0.02 0  0.19 0.02 0  0.2 0.02 0  0.21 0.02 0  0.22 0.02 0  0.23 0.02 0  0.24 0.02 0  0.25 0.02 0  0.26 0.02 0  0.27 0.02 0  0.28 0.02 0  0.29 0.02 0  0.3 0.02 0  0.31 0.02 0  0.32 0.02 0  0.33 0.02 0  0.34 0.02 0  0.35 0.02 0  0.36 0.02 0  0.37 0.02 0  0.38 0.02 0  0.39 0.02 0  0.4 0.02 0  0.41 0.02 0  0.42 0.02 0  0.43 0.02 0  0.44 0.02 0  0.45 0.02 0  0.46 0.02 0  0.47 0.02 0  0.48 0.02 0  0.49 0.02 0  0.5 0.02 0  0.51 0.02 0  0.52 0.02 0  0.53 0.02 0  0.54 0.02 0  0.55 0.02 0  0.5600000000000001 0.02 0  0.57 0.02 0  0.58 0.02 0  0.59 0.02 0  0.6 0.02 0  0.61 0.02 0  0.62 0.02 0  0.63 0.02 0  0.64 0.02 0  0.65 0.02 0  0.66 0.02 0  0.67 0.02 0  0.68 0.02 0  0.6899999999999999 0.02 0  0.7 0.02 0  0.71 0.02 0  0.72 0.02 0  0.73 0.02 0  0.74 0.02 0  0.75 0.02 0  0.76 0.02 0  0.77 0.02 0  0.78 0.02 0  0.79 0.02 0  0.8 0.02 0  0.8100000000000001 0.02 0  0.82 0.02 0  0.83 0.02 0  0.84 0.02 0  0.85 0.02 0  0.86 0.02 0  0.87 0.02 0  0.88 0.02 0  0.89 0.02 0  0.9 0.02 0  0.91 0.02 0  0.92 0.02 0  0.93 0.02 0  0.9399999999999999 0.02 0  0.95 0.02 0  0.96 0.02 0  0.97 0.02 0  0.98 0.02 0  0.99 0.02 0  1 0.02 0  0 0.03 0  0.01 0.03 0  0.02 0.03 0  0.03 0.03 0  0.04 0.03 0  0.05 0.03 0  0.06 0.03 0  0.07000000000000001 0.03 0  0.08 0.03 0  0.09 0.03 0  0.1 0.03 0  0.11 0.03 0  0.12 0.03 0  0.13 0.03 0  0.14 0.03 0  0.15 0.03 0  0.16 0.03 0  0.17 0.03 0  0.18 0.03 0  0.19 0.03 0  0.2 0.03 0  0.21 0.03 0  0.22 0.03 0  0.23 0.03 0  0.24 0.03 0  0.25 0.03 0  0.26 0.03 0  0.27 0.03 0  0.28 0.03 0  0.29 0.03 0  0.3 0.03 0  0.31 0.03 0  0.32 0.03 0  0.33 0.03 0  0.34 0.03 0  0.35 0.03 0  0.36 0.03 0  0.37 0.03 0  0.38 0.03 0  0.39 0.03 0  0.4 0.03 0  0.41 0.03 0  0.42 0.03 0  0.43 0.03 0  0.44 0.03 0  0.45 0.03 0  0.46 0.03 0  0.47 0.03 0  0.48 0.03 0  0.49 0.03 0  0.5 0.03 0  0.51 0.03 0  0.52 0.03 0  0.53 0.03 0  0.54 0.03 0  0.55 0.03 0  0.5600000000000001 0.03 0  0.57 0.03 0  0.58 0.03 0  0.59 0.03 0  0.6 0.03 0  0.61 0.03 0  0.62 0.03 0  0.63 0.03 0  0.64 0.03 0  0.65 0.03 0  0.66 0.03 0  0.67 0.03 0  0.68 0.03 0  0.6899999999999999 0.03 0  0.7 0.03 0  0.71 0.03 0  0.72 0.03 0  0.73 0.03 0  0.74 0.03 0  0.75 0.03 0  0.76 0.03 0  0.77 0.03 0  0.78 0.03 0  0.79 0.03 0  0.8 0.03 0  0.8100000000000001 0.03 0  0.82 0.03 0  0.83 0.03 0  0.84 0.03 0  0.85 0.03 0  0.86 0.03 0  0.87 0.03 0  0.88 0.03 0  0.89 0.03 0  0.9 0.03 0  0.91 0.03 0  0.92 0.03 0  0.93 0.03 0  0.9399999999999999 0.03 0  0.95 0.03 0  0.96 0.03 0  0.97 0.03 0  0.98 0.03 0  0.99 0.03 0  1 0.03 0  0 0.04 0  0.01 0.04 0  0.02 0.04 0  0.03 0.04 0  0.04 0.04 0  0.05 0.04 0  0.06 0.04 0  0.07000000000000001 0.04 0  0.08 0.04 0  0.09 0.04 0  0.1 0.04 0  0.11 0.04 0  0.12 0.04 0  0.13 0.04 0  0.14 0.04 0  0.15 0.04 0  0.16 0.04 0  0.17 0.04 0  0.18 0.04 0  0.19 0.04 0  0.2 0.04 0  0.21 0.04 0  0.22 0.04 0  0.23 0.04 0  0.24 0.04 0  0.25 0.04 0  0.26 0.04 0  0.27 0.04 0  0.28 0.04 0  0.29 0.04 0  0.3 0.04 0  0.31 0.04 0  0.32 0.04 0  0.33 0.04 0  0.34 0.04 0  0.35 0.04 0  0.36 0.04 0  0.37 0.04 0  0.38 0.04 0  0.39 0.04 0  0.4 0.04 0  0.41 0.04 0  0.42 0.04 0  0.43 0.04 0  0.44 0.04 0  0.45 0.04 0  0.46 0.04 0  0.47 0.04 0  0.48 0.04 0  0.49 0.04 0  0.5 0.04 0  0.51 0.04 0  0.52 0.04 0  0.53 0.04 0  0.54 0.04 0  0.55 0.04 0  0.5600000000000001 0.04 0  0.57 0.04 0  0.58 0.04 0  0.59 0.04 0  0.6 0.04 0  0.61 0.04 0  0.62 0.04 0  0.63 0.04 0  0.64 0.04 0  0.65 0.04 0  0.66 0.04 0  0.67 0.04 0  0.68 0.04 0  0.6899999999999999 0.04 0  0.7 0.04 0  0.71 0.04 0  0.72 0.04 0  0.73 0.04 0  0.74 0.04 0  0.75 0.04 0  0.76 0.04 0  0.77 0.04 0  0.78 0.04 0  0.79 0.04 0  0.8 0.04 0  0.8100000000000001 0.04 0  0.82 0.04 0  0.83 0.04 0  0.84 0.04 0  0.85 0.04 0  0.86 0.04 0  0.87 0.04 0  0.88 0.04 0  0.89 0.04 0  0.9 0.04 0  0.91 0.04 0  0.92 0.04 0  0.93 0.04 0  0.9399999999999999 0.04 0  0.95 0.04 0  0.96 0.04 0  0.97 0.04 0  0.98 0.04 0  0.99 0.04 0  1 0.04 0  0 0.05 0  0.01 0.05 0  0.02 0.05 0  0.03 0.05 0  0.04 0.05 0  0.05 0.05 0  0.06 0.05 0  0.07000000000000001 0.05 0  0.08 0.05 0  0.09 0.05 0  0.1 0.05 0  0.11 0.05 0  0.12 0.05 0  0.13 0.05 0  0.14 0.05 0  0.15 0.05 0  0.16 0.05 0  0.17 0.05 0  0.18 0.05 0  0.19 0.05 0  0.2 0.05 0  0.21 0.05 0  0.22 0.05 0  0.23 0.05 0  0.24 0.05 0  0.25 0.05 0  0.26 0.05 0  0.27 0.05 0  0.28 0.05 0  0.29 0.05 0  0.3 0.05 0  0.31 0.05 0  0.32 0.05 0  0.33 0.05 0  0.34 0.05 0  0.35 0.05 0  0.36 0.05 0  0.37 0.05 0  0.38 0.05 0  0.39 0.05 0  0.4 0.05 0  0.41 0.05 0  0.42 0.05 0  0.43 0.05 0  0.44 0.05 0  0.45 0.05 0  0.46 0.05 0  0.47 0.05 0  0.48 0.05 0  0.49 0.05 0  0.5 0.05 0  0.51 0.05 0  0.52 0.05 0  0.53 0.05 0  0.54 0.05 0  0.55 0.05 0  0.5600000000000001 0.05 0  0.57 0.05 0  0.58 0.05 0  0.59 0.05 0  0.6 0.05 0  0.61 0.05 0  0.62 0.05 0  0.63 0.05 0  0.64 0.05 0  0.65 0.05 0  0.66 0.05 0  0.67 0.05 0  0.68 0.05 0  0.6899999999999999 0.05 0  0.7 0.05 0  0.71 0.05 0  0.72 0.05 0  0.73 0.05 0  0.74 0.05 0  0.75 0.05 0  0.76 0.05 0  0.77 0.05 0  0.78 0.05 0  0.79 0.05 0  0.8 0.05 0  0.8100000000000001 0.05 0  0.82 0.05 0  0.83 0.05 0  0.84 0.05 0  0.85 0.05 0  0.86 0.05 0  0.87 0.05 0  0.88 0.05 0  0.89 0.05 0  0.9 0.05 0  0.91 0.05 0  0.92 0.05 0  0.93 0.05 0  0.9399999999999999 0.05 0  0.95 0.05 0  0.96 0.05 0  0.97 0.05 0  0.98 0.05 0  0.99 0.05 0  1 0.05 0  0 0.06 0  0.01 0.06 0  0.02 0.06 0  0.03 0.06 0  0.04 0.06 0  0.05 0.06 0  0.06 0.06 0  0.07000000000000001 0.06 0  0.08 0.06 0  0.09 0.06 0  0.1 0.06 0  0.11 0.06 0  0.12 0.06 0  0.13 0.06 0  0.14 0.06 0  0.15 0.06 0  0.16 0.06 0  0.17 0.06 0  0.18 0.06 0  0.19 0.06 0  0.2 0.06 0  0.21 0.06 0  0.22 0.06 0  0.23 0.06 0  0.24 0.06 0  0.25 0.06 0  0.26 0.06 0  0.27 0.06 0  0.28 0.06 0  0.29 0.06 0  0.3 0.06 0  0.31 0.06 0  0.32 0.06 0  0.33 0.06 0  0.34 0.06 0  0.35 0.06 0  0.36 0.06 0  0.37 0.06 0  0.38 0.06 0  0.39 0.06 0  0.4 0.06 0  0.41 0.06 0  0.42 0.06 0  0.43 0.06 0  0.44 0.06 0  0.45 0.06 0  0.46 0.06 0  0.47 0.06 0  0.48 0.06 0  0.49 0.06 0  0.5 0.06 0  0.51 0.06 0  0.52 0.06 0  0.53 0.06 0  0.54 0.06 0  0.55 0.06 0  0.5600000000000001 0.06 0  0.57 0.06 0  0.58 0.06 0  0.59 0.06 0  0.6 0.06 0  0.61 0.06 0  0.62 0.06 0  0.63 0.06 0  0.64 0.06 0  0.65 0.06 0  0.66 0.06 0  0.67 0.06 0  0.68 0.06 0  0.6899999999999999 0.06 0  0.7 0.06 0  0.71 0.06 0  0.72 0.06 0  0.73 0.06 0  0.74 0.06 0  0.75 0.06 0  0.76 0.06 0  0.77 0.06 0  0.78 0.06 0  0.79 0.06 0  0.8 0.06 0  0.8100000000000001 0.06 0  0.82 0.06 0  0.83 0.06 0  0.84 0.06 0  0.85 0.06 0  0.86 0.06 0  0.87 0.06 0  0.88 0.06 0  0.89 0.06 0  0.9 0.06 0  0.91 0.06 0  0.92 0.06 0  0.93 0.06 0  0.9399999999999999 0.06 0  0.95 0.06 0  0.96 0.06 0  0.97 0.06 0  0.98 0.06 0  0.99 0.06 0  1 0.06 0  0 0.07000000000000001 0  0.01 0.07000000000000001 0  0.02 0.07000000000000001 0  0.03 0.07000000000000001 0  0.04 0.07000000000000001 0  0.05 0.07000000000000001 0  0.06 0.07000000000000001 0  0.07000000000000001 0.07000000000000001 0  0.08 0.07000000000000001 0  0.09 0.07000000000000001 0  0.1 0.07000000000000001 0  0.11 0.07000000000000001 0  0.12 0.07000000000000001 0  0.13 0.07000000000000001 0  0.14 0.07000000000000001 0  0.15 0.07000000000000001 0  0.16 0.07000000000000001 0  0.17 0.0700
[...]
<PointData  Scalars="Indicator Function"> 
<DataArray  type="Float64"  Name="Indicator Function"  format="ascii">-3.4003889875042769e-23  3.3234622634599476e-22  8.7383047536781728e-23  5.3940848543530203e-22  3.9400811084392936e-21  -2.0066404460122733e-23  -2.0685176961755065e-23  2.3699291803180575e-22  7.8956025296780785e-20  -1.5046327690525280e-36  -8.0677024379008902e-22  1.0289099996777599e-20  -1.0466907426114995e-22  -1.8807909613156600e-36  1.9732521607626260e-20  -2.2181774874485348e-22  -5.4777863367183247e-22  1.4381070289680723e-19  -2.6954258928384474e-22  -3.8556214706971030e-36  -1.4547328175413702e-20  -7.5279460483405506e-23  -1.2546248902409759e-22  2.0174341068081080e-19  -6.2339627613184307e-22  -1.1217956950102321e-21  -1.5257618234474352e-21  -7.6288091172372881e-22  3.4768391258133243e-21  -6.6939327600009045e-22  -1.0149070393920554e-21  -1.6030814387641429e-21  -1.1235169824197904e-21  -7.2560476633666450e-22  4.1659201718900778e-19  -2.9195767899544546e-21  -2.0516549579407274e-21  -3.5011200999212490e-22  4.7019774032891500e-38  -2.4412044442249281e-22  8.1835959258999718e-20  -2.7447958883645651e-21  -1.4028403813342069e-21  -4.8162218734946538e-22  -6.9199724273135090e-22  -4.4555084372386813e-22  4.4263769982453527e-19  -1.5171314982436756e-22  -1.2662671082686604e-24  -9.2422748249203981e-23  -2.5596811650803137e-22  -3.1152451651320638e-22  -3.7827257794623250e-22  -7.2691585972235865e-23  -4.4614117988946458e-23  -2.5657255856077438e-23  1.5229033424840296e-21  -1.4953583296955717e-23  -1.0513328992075694e-23  -6.7893896150166152e-24  -3.9457719114938471e-24  -1.9338812561677729e-24  -4.4436913562141653e-25  -7.3468396926392969e-40  -2.9387358770557188e-39  3.6734198463196485e-40  -3.6734198463196485e-40  -9.3672206081151036e-39  1.3733743421635945e-21  1.8367099231598242e-40  -9.1835496157991212e-40  3.3060778616876836e-39  0.0000000000000000e+00  -3.5410440750111741e-25  -5.4555672555155290e-25  -7.7129116797669306e-25  -1.0087043583851150e-24  -9.1284642312275867e-25  -8.8621173467267740e-25  -1.1411256195192977e-24  -1.3428531736954850e-24  1.0609406221109332e-21  -1.7974643315566662e-24  -2.3368510495167016e-24  -2.2817963537034276e-24  -1.8679374678631802e-24  -1.4843198774634453e-24  -1.2214181137405037e-24  -1.0284152861175300e-24  -8.5400730417657156e-25  -6.7274392796996915e-25  -4.7667107247543453e-25  -2.6703739183867219e-25  1.5535392461672886e-22  -2.7550648847397363e-40  3.6734198463196485e-40  2.2958874039497803e-40  -7.5309860367421012e-26  -1.4780343100068993e-25  -5.5074250408489742e-26  0.0000000000000000e+00  -1.4693679385278594e-38  6.1255962308156041e-07  3.1209149917711477e-07  7.2073449161914456e-07  1.2732630115917363e-06  7.2296841319419594e-07  7.4526204205639962e-07  3.2470311949995217e-07  4.8029727302765531e-08  2.9484127119959194e-06  1.6756210098949057e-06  4.6460316508674298e-06  6.7812446912017751e-06  1.8855504153589192e-06  5.5073457992722383e-07  7.9918266447318737e-06  4.4373533786880594e-06  9.8679026019439687e-06  1.5741827671669421e-06  4.8556476186368090e-06  4.8691669569256451e-06  2.7122284014537319e-06  4.5202625505434390e-06  4.7917313199008229e-06  2.8940627491227620e-06  9.7830775730047106e-06  2.0208474696135627e-05  2.7485681518135988e-05  1.0885458081902812e-05  1.2191846463670309e-05  2.7712137021792209e-05  4.4268713467909051e-06  2.8878547881051007e-05  5.8002087129552620e-06  1.6558141197325611e-05  3.9626784576573831e-05  4.0011350629215183e-05  2.5056108389075874e-05  7.9571434412646274e-06  2.9200473967783517e-06  1.6984728020839284e-05  3.2704274332025558e-05  4.0175261730238835e-05  1.7352268027843324e-05  2.1479895683921876e-05  1.7259662560643489e-06  8.0263304550777006e-06  5.4660422801298060e-06  4.5622080615602273e-08  3.3298804366053802e-06  1.5779650449282903e-06  3.8221291340330438e-06  5.6119267859425999e-06  4.0083895713612163e-06  7.2600948567596957e-07  4.4069175776394535e-07  4.6220003165112233e-07  3.1388695928509778e-07  1.7968114111509824e-07  1.1091168759603146e-07  6.6850926363032025e-08  3.7655244459654585e-08  1.6010085388796520e-08  8.8459212467482930e-10  1.4337002921033248e-08  2.5139299600300211e-08  3.3835146950170437e-08  4.0778390878385106e-08  4.6438486463101643e-08  5.0738895779352313e-08  5.3514276056596333e-08  5.6065310571871765e-08  5.8655528012173724e-08  6.2568451853428300e-08  6.5894220164275990e-08  6.6998003403983100e-08  6.9082846110414313e-08  6.8012307829392972e-08  6.5101717984413845e-08  6.4340997345503398e-08  6.5814789696530227e-08  6.5297377551024363e-08  6.6968783949345464e-08  7.3209510735900360e-08  7.5625682885253485e-08  7.1016587648704925e-08  6.3284054012965808e-08  5.5828714736815179e-08  4.9542854300270733e-08  4.4088909593887383e-08  3.8943121139256824e-08  3.3749381781529420e-08  2.8345719674133430e-08  2.2714306173473988e-08  1.6947082848476823e-08  1.1243956817836195e-08  5.9367454577629631e-09  1.5199490587646536e-09  1.3566618363521629e-09  1.9842589889390678e-09  -5.9128212717312819e-25  -1.5082887228679999e-23  2.9868190644921957e-06  6.5112978409664174e-07  1.0133703498351188e-06  2.6543904502404170e-06  1.7939595867039094e-06  6.4671265820003739e-06  7.0428746229982186e-06  5.0080954603959417e-06  9.5446197941148489e-06  1.2110326263840781e-05  1.3372467461390721e-05  3.3020080642893625e-06  4.0390456905570852e-06  9.1349746653490052e-06  4.6814384203215318e-06  8.2597331834910382e-06  4.2172688241051225e-06  4.2077431985841509e-06  1.7875855586091430e-05  1.2479585409176501e-05  2.3165281506227033e-05  2.4954718137824972e-05  2.6197592471585888e-05  2.5004288505947942e-05  2.8308338425456320e-05  2.4234951684719222e-05  1.4834879204907399e-05  1.1640371287269832e-05  2.1302451176207760e-05  4.6960639898721267e-06  4.1108041468103054e-05  3.1370819470120463e-05  2.5596487168211320e-05  6.6815598296951993e-06  3.8632161491989837e-05  5.7662959013327692e-05  4.4437942960257039e-05  1.5896914730529625e-05  4.4088769649936375e-06  9.9089211569058706e-06  3.4957844376769206e-05  5.2268897894343256e-05  3.5010111401492881e-05  1.1037896568350184e-05  5.3515807231312730e-05  4.0846196761740034e-05  1.6138969305354833e-05  1.4363582943212250e-06  4.0485185663204979e-06  1.1446791844553486e-05  1.3958704986310949e-05  5.8802047624320285e-06  7.0569427422080427e-06  1.7157146160597567e-06  1.8360735624287743e-06  4.7333317479085692e-07  6.4243570094094931e-07  3.0035300463946303e-07  2.1172750784358461e-07  1.4326407584740804e-07  9.8800691480748230e-08  6.6616577585747643e-08  4.1695610581214857e-08  2.1770824043995404e-08  5.5822013318268656e-09  7.6091386328427149e-09  1.8470206932512001e-08  2.7311874974766534e-08  3.4813931426883580e-08  4.0111152877071432e-08  4.4334352920208737e-08  4.8658560172246927e-08  5.3663059930652084e-08  6.0453882060706615e-08  6.3678473095910657e-08  6.6863121839479409e-08  6.9523508755687071e-08  6.6935136197980942e-08  6.5233076347921890e-08  6.7720794563228161e-08  7.0062456859081153e-08  7.0328566629448257e-08  7.7897598185003521e-08  8.6562411455177400e-08  8.5714495628323619e-08  7.7833980087548956e-08  6.8939273954466904e-08  6.1478197408998266e-08  5.5380029118350834e-08  4.9936915159037856e-08  4.4567349499842844e-08  3.8952196077679122e-08  3.2983362623635308e-08  2.6704290459692161e-08  2.0287837261985812e-08  1.4045600891574349e-08  8.4346254735069027e-09  3.9886627371264361e-09  1.0560172822185761e-09  -4.2010611039501170e-24  -2.1588619005384911e-23  2.7170914121101856e-07  1.7111667391450078e-06  7.8556634153248613e-07  3.3606609581592639e-07  2.0574039429261552e-06  4.9773683281428422e-07  9.5871661639263530e-07  2.2129336298180710e-07  1.1120704497504784e-06  8.5345632837563745e-06  3.2380488153998456e-06  6.5515846701104672e-06  1.4943967418292479e-05  8.4687344057598174e-06  1.3329035470673298e-06  1.2227389744171615e-05  1.0165367697369633e-05  2.0309428534712457e-05  9.9875173538927764e-06  1.3205560183562678e-05  2.1098807941178972e-06  1.0066455700964433e-08  1.4889852670227916e-06  3.3611946793639031e-06  2.7580617401619042e-07  2.2376294475766485e-05  4.4809258552654158e-05  5.6046904796829756e-05  2.4722182150552076e-05  2.1683955177936497e-05  4.7758501504046237e-05  7.2485746706921989e-06  5.2993929029769441e-05  4.4887565344514738e-06  2.5420448024006688e-05  5.8844179058849333e-05  5.6986808291526904e-05  3.4291319378269058e-05  7.3631012889636705e-06  1.6626438860429775e-06  2.4974460198875615e-05  4.8785152906361056e-05  6.1069875358749469e-05  2.0053138297361176e-05  3.3060472436307819e-05  7.9807475170895974e-06  2.2461029112762572e-05  1.3840571235068478e-05  8.5726901887729551e-07  3.3918367099566707e-06  3.5471164719999615e-07  8.7605107671811753e-06  1.0803772745815861e-05  5.8465940468120580e-06  2.1514577985121700e-06  6.9456363875295332e-07  1.0363974951051874e-06  4.8794635053258586e-07  2.7431359648613105e-07  2.0793530554368396e-07  1.5039701067058603e-07  1.1034159407129616e-07  7.9599203379195692e-08  5.5035987686006150e-08  3.5056938299689522e-08  1.8604230200301279e-08  4.9790753615009177e-09  6.2982121078586486e-09  1.5883290710560243e-08  2.3689519585280147e-08  2.9174975090771578e-08  3.4645183358532264e-08  4.0168826874489988e-08  4.7876368297244325e-08  5.4876067014870715e-08  5.7770456012896368e-08  6.3306934456946466e-08  6.3678487963525285e-08  6.1072812098581797e-08  6.2391317579992329e-08  6.7475521374258792e-08  6.8547841058945928e-08  7.2866111731465153e-08  8.5353182459715428e-08  9.1185902798805123e-08  8.5892944261796452e-08  7.6801655216152916e-08  6.8835586934447689e-08  6.2687054436060351e-08  5.7606155064857703e-08  5.2827535979004494e-08  4.7882895172672711e-08  4.2568379498897098e-08  3.6867138459866111e-08  3.0906956565608718e-08  2.4948906208494374e-08  1.9351832723408584e-08  1.4353324547087065e-08  9.2350611003012882e-09  -1.2816221834218276e-24  -8.2284604557560126e-38  3.8890598603238086e-07  2.8478932223328518e-06  2.4170620169309307e-07  1.0222636325812263e-06  3.5639992611191016e-06  1.6904171041933369e-06  8.4172310018649068e-06  1.0553637457019957e-05  8.0813745579936630e-06  1.1345849888265266e-05  1.4788175945851211e-05  1.9947767139685683e-05  9.6784423785652350e-06  2.6033307719373818e-06  1.2010913655264276e-05  8.1501736669046417e-06  1.3228187660163097e-05  1.0676698164728555e-06  2.9958887443086641e-06  2.1781292203118564e-05  1.7790685205037628e-05  3.1713774709838631e-05  3.5617437256353590e-05  3.8212765563167316e-05  3.7768583406482658e-05  3.9785189664182268e-05  3.0649283722967040e-05  1.4182700704700504e-05  2.1441726198844497e-05  3.2640627359823866e-05  3.8930331763436191e-06  5.9686008289790347e-05  4.3942969207642312e-05  3.6171907824032843e-05  1.0243516500597866e-05  4.8558429646150260e-05  7.1428164944042252e-05  5.1004351268860246e-05  1.4968259540334694e-05  2.6620596298239313e-06  9.9392831577040704e-06  4.2671499859740580e-05  6.3581106610413382e-05  4.3612724076324711e-05  1.0785913300154605e-05  7.5649138028671562e-05  6.0975837072624681e-05  2.3647009898992436e-05  1.2877226255825492e-06  6.1106246367045684e-06  1.6102730247460584e-05  1.9944106952044071e-05  8.1202332653052754e-06  9.4964775970873397e-06  1.6773442956352146e-06  3.0666466997673641e-06  7.9095405274519058e-07  9.4237987899021628e-07  3.4256151644752818e-07  2.5997206029051480e-07  1.9417149414921533e-07  1.4609570022886429e-07  1.0978553549396073e-07  8.0910452245827318e-08  5.7397053417049240e-08  3.7976859814931148e-08  2.1872962921298379e-08  8.3364704959861098e-09  2.9310946559280584e-09  1.2821051052533332e-08  2.0060408759003119e-08  2.6053527284172914e-08  3.2385082810977066e-08  3.9554463131905784e-08  4.9296784071763674e-08  5.4222135290946898e-08  5.9177255820631109e-08  6.4212752316948752e-08  6.2000276085568150e-08  6.1259927578980312e-08  6.6289836149926626e-08  7.0962043054886445e-08  7.2112934013420513e-08  8.3272904298519785e-08  9.6246973636549544e-08  9.6418446028864474e-08  8.7982467413523033e-08  7.9170463924096335e-08  7.2579976067957226e-08  6.7666940226906177e-08  6.3440585194726081e-08  5.9227326108074485e-08  5.4697405001208448e-08  4.9763340457724802e-08  4.4506328309318837e-08  3.9132147275572594e-08  3.3862694541948050e-08  2.8465185899228722e-08  2.0529861900441903e-08  5.1283632092052129e-24  -1.2409436042677012e-22  3.8813665360949046e-07  1.1628236438845522e-07  1.8021848304594310e-06  6.7624160949401390e-07  5.8702009726022674e-07  3.3343410641467941e-06  6.9958211103959048e-07  2.3103579249863353e-06  1.2301220033995731e-06  4.7919363853878443e-07  1.0351695408159835e-05  7.4509931027716285e-06  4.5768747604583059e-06  1.8238305032060873e-05  1.2389660857023213e-05  2.6606857457770130e-06  1.3460379895497411e-05  1.1077390366224128e-05  2.3998861688455255e-05  1.3715954913924706e-05  1.7487838311523359e-05  7.2381543709785237e-07  1.5302417152304859e-06  1.2661161274035089e-06  1.0760073962597317e-06  1.1279960239810129e-06  2.7532440944095618e-05  5.6402808917529328e-05  7.0785837247587402e-05  3.1662366232719277e-05  2.7446999678071295e-05  5.9386588807030744e-05  9.5859904739029268e-06  6.7438693287467339e-05  4.7159348090533059e-06  3.0752162945224140e-05  6.9655495016682914e-05  6.7246992965185282e-05  3.8669926598302839e-05  4.8787710953454087e-06  6.9934588092478052e-07  2.8734692004786989e-05  5.8667280694590990e-05  7.1882662076738215e-05  2.1525599208424437e-05  4.1251021578605773e-05  1.3398286131325140e-05  3.2778710753394843e-05  1.9422691504988180e-05  1.3585039849204949e-06  3.2894909789956264e-06  4.2295885524792453e-07  1.2007090622933303e-05  1.3954252443383126e-05  7.0248027929876193e-06  3.1261143130298424e-06  1.0598063501135665e-06  1.3761270543027526e-06  5.9566881812796057e-07  2.9711077298955824e-07  2.3933262144146679e-07  1.8017028761303614e-07  1.3718659579353338e-07  1.0340540543988681e-07  7.6001513778949354e-08  5.3452201216753325e-08  3.4670564155534949e-08  1.8933283729348958e-08  5.7263444277593253e-09  5.6868717536540476e-09  1.5160444216471503e-08  2.1930042302693658e-08  2.8827031629549986e-08  3.5900202366542955e-08  4.5725626897849877e-08  5.4749840945533806e-08  5.8686369484105120e-08  6.6177229289216827e-08  6.7487718943706192e-08  6.5053515843055117e-08  6.7777661112731404e-08  7.5172889682587365e-08  7.7333911079615119e-08  8.3375498774098286e-08  9.9889898670181326e-08  1.0818307368049692e-07  1.0278872922775961e-07  9.3308469185360056e-08  8.5743441602153817e-08  8.0566607489027590e-08  7.6672078230149934e-08  7.3125518126471655e-08  6.9416935085464454e-08  6.5360861574409766e-08  6.0987781178048022e-08  5.6455754014262487e-08  5.1839948149878731e-08  4.6311160154629268e-08  3.5156389604919288e-08  -1.9515716601036941e-24  7.6407132803448688e-38  3.4099936246617404e-06  2.1810597690933996e-06  2.9726684735493117e-06  1.8417933062426135e-08  6.4939968075411966e-07  4.2931783944296947e-06  1.7696248579544204e-06  8.8858249070513619e-06  1.2260259842974827e-05  1.0139134804760125e-05  1.2713318638965094e-05  1.4668486872794094e-05  2.2159286232240915e-05  1.2789661771360978e-05  2.3041642824530590e-06  1.4494873094775386e-05  8.8858070808651374e-06  1.4120490092867033e-05  1.0925604282155988e-06  2.8368765335535858e-06  2.4749857784966402e-05  2.0101653746434658e-05  3.5430733104882929e-05  3.9788491230841370e-05  4.2780906874352469e-05  4.3761448848021816e-05  4.7044445942960238e-05  3.6304470803188207e-05  1.7133708341321972e-05  2.4686427466943679e-05  3.9972698350544238e-05  6.6916118630249095e-06  7.0562858380647208e-05  5.3587806775794385e-05  4.3878542708476631e-05  1.3364324628568817e-05  5.8924686283181658e-05  8.3342708048567927e-05  5.7056018066179978e-05  1.5140754321527227e-05  1.8238821381948087e-06  1.1343731566859564e-05  4.9650063569499146e-05  7.4553641066816781e-05  5.0817088760902658e-05  7.4570636947294046e-06  8.7653752750036792e-05  7.1778369916544312e-05  2.7273540938263368e-05  1.8677650877747478e-06  6.9497552967728265e-06  1.8424178399950925e-05  2.3498755469799638e-05  9.6749424789077928e-06  1.1495073024405807e-05  1.5405356731734739e-06  3.7978938768127721e-06  9.4529707010264572e-07  1.1557237776384314e-06  3.8072569268944245e-07  2.8309834340800504e-07  2.1898752493094932e-07  1.6708499965502406e-07  1.2705325337613148e-07  9.4869213255152733e-08  6.8506246894483995e-08  4.6618162325488212e-08  2.8354776864281185e-08  1.2897868256043035e-08  9.8952350887438811e-11  1.1613427018001275e-08  2.0113844908698061e-08  2.7293369446668971e-08  3.4961707177040244e-08  4.3795466610234900e-08  5.5601944618442259e-08  6.1699870398445061e-08  6.8062231578841268e-08  7.4474263216255343e-08  7.2418470056220758e-08  7.2358661303079632e-08  7.9316002863316773e-08  8.5569413411153994e-08  8.7809394692438002e-08  1.0214070790957320e-07  1.1843221301206117e-07  1.1941805738005311e-07  1.1055098688163288e-07  1.0176164717214548e-07  9.5889820435185533e-08  9.2077429950893473e-08  8.9114492836263305e-08  8.6257660104533978e-08  8.3191828671760965e-08  7.9886702122518231e-08  7.6454131541921214e-08  7.2811181865975103e-08  6.7417573854519158e-08  5.2717387223650052e-08  -2.9264028546888169e-24  1.0579449157400588e-37  3.2244768709305473e-07  1.4095935629076521e-07  9.5699521548253372e-07  9.2515035645197907e-07  7.1393527980036898e-07  1.1714272927506921e-06  4.3266858859697155e-06  1.5688727851827751e-06  1.9736606250409388e-06  9.9569892160371962e-07  1.8022211743230154e-06  8.9152824033250224e-06  7.9594543027363107e-06  4.4850182758236241e-06  2.1898058793133396e-05  1.5083973492936366e-05  1.3825499850585021e-06  1.7208770768216123e-05  1.2008614249782209e-05  2.6090229541584978e-05  1.4254762242197713e-05  1.7417412089414163e-05  4.5208366569667636e-06  2.7567687478739756e-06  2.5799352038925190e-06  5.0937508742646238e-06  3.7714631883586715e-06  2.5393175710074548e-05  6.0686653655405595e-05  8.1160284685902634e-05  3.8312908741673560e-05  3.1047391450622557e-05  7.1767945867356599e-05  5.9298380450254612e-06  7.7495931432922167e-05  4.0340186061381712e-06  3.7625667833528732e-05  8.1409161545049113e-05  7.7626448905806697e-05  4.2779617398693427e-05  3.3982810290206026e-06  1.7759275986501503e-06  3.4976982580557437e-05  6.9892037689321920e-05  8.1441048958151777e-05  2.3242433539711870e-05  5.3185797014173375e-05  9.0506756606875585e-06  3.3695545302274040e-05  2.0189333426107704e-05  9.4032433006106068e-07  4.6640886251863325e-06  1.5784548638249100e-06  1.2236934589696711e-05  1.5931650913719704e-05  8.1044040145059279e-06  3.9967881485295152e-06  1.1976118829433191e-06  1.6292375228321859e-06  7.0190436090152559e-07  3.2887240890895037e-07  2.6494621108593294e-07  2.0271448932759348e-07  1.5487589635782206e-07  1.1677390082951636e-07  8.5687947173533624e-08  6.0043502681542917e-08  3.8642191644062751e-08  2.0648849171245412e-08  5.4931146193094073e-09  7.7158300714895591e-09  1.8665318273555326e-08  2.6627101253975878e-08  3.4841476334103848e-08  4.3389232696780929e-08  5.5295194324719664e-08  6.5891843025882592e-08  7.0965930869035580e-08  8.0115666660580396e-08  8.1904118150513845e-08  7.9764833528529596e-08  8.3971580883917186e-08  9.3385468469015513e-08  9.6595422675930553e-08  1.0504506076544950e-07  1.2538823913689861e-07  1.3563431883099054e-07  1.3013200253639997e-07  1.2041636843949088e-07  1.1336605466871465e-07  1.0929187599087365e-07  1.0679791852394412e-07  1.0482629437005235e-07  1.0287398301506030e-07  1.0082768785412933e-07  9.8751293019687877e-08  9.6393741964797827e-08  9.1401463796905257e-08  7.2894564360858189e-08  -6.1984550569011320e-24  -6.6502559973047239e-23  9.7384938198613352e-07  2.8515396619073238e-06  1.4147314175514362e-06  4.3881223586122146e-06  3.3338144889239452e-07  1.7146916848916622e-07  5.0552369879780629e-06  1.5862473490164450e-06  9.6143594453522971e-06  1.3930268217361568e-05  1.2337317698542752e-05  1.5107498706234691e-05  1.5453856955062687e-05  2.4387384031086474e-05  1.5291637380749179e-05  3.9224765412079657e-06  