<?xml version="1.0"?>
<VTKFile type="UnstructuredGrid"  version="0.1"  >
<UnstructuredGrid>
<Piece  NumberOfPoints="10201" NumberOfCells="20000">
<Points>
<DataArray  type="Float64"  NumberOfComponents="3"  format="ascii">0 0 0  0.01 0 0  0.02 0 0  0.03 0 0  0.04 0 0  0.05 0 0  0.06 0 0  0.07000000000000001 0 0  0.08 0 0  0.09 0 0  0.1 0 0  0.11 0 0  0.12 0 0  0.13 0 0  0.14 0 0  0.15 0 0  0.16 0 0  0.17 0 0  0.18 0 0  0.19 0 0  0.2 0 0  0.21 0 0  0.22 0 0  0.23 0 0  0.24 0 0  0.25 0 0  0.26 0 0  0.27 0 0  0.28 0 0  0.29 0 0  0.3 0 0  0.31 0 0  0.32 0 0  0.33 0 0  0.34 0 0  0.35 0 0  0.36 0 0  0.37 0 0  0.38 0 0  0.39 0 0  0.4 0 0  0.41 0 0  0.42 0 0  0.43 0 0  0.44 0 0  0.45 0 0  0.46 0 0  0.47 0 0  0.48 0 0  0.49 0 0  0.5 0 0  0.51 0 0  0.52 0 0  0.53 0 0  0.54 0 0  0.55 0 0  0.5600000000000001 0 0  0.57 0 0  0.58 0 0  0.59 0 0  0.6 0 0  0.61 0 0  0.62 0 0  0.63 0 0  0.64 0 0  0.65 0 0  0.66 0 0  0.67 0 0  0.68 0 0  0.6899999999999999 0 0  0.7 0 0  0.71 0 0  0.72 0 0  0.73 0 0  0.74 0 0  0.75 0 0  0.76 0 0  0.77 0 0  0.78 0 0  0.79 0 0  0.8 0 0  0.8100000000000001 0 0  0.82 0 0  0.83 0 0  0.84 0 0  0.85 0 0  0.86 0 0  0.87 0 0  0.88 0 0  0.89 0 0  0.9 0 0  0.91 0 0  0.92 0 0  0.93 0 0  0.9399999999999999 0 0  0.95 0 0  0.96 0 0  0.97 0 0  0.98 0 0  0.99 0 0  1 0 0  0 0.01 0  0.01 0.01 0  0.02 0.01 0  0.03 0.01 0  0.04 0.01 0  0.05 0.01 0  0.06 0.01 0  0.07000000000000001 0.01 0  0.08 0.01 0  0.09 0.01 0  0.1 0.01 0  0.11 0.01 0  0.12 0.01 0  0.13 0.01 0  0.14 0.01 0  0.15 0.01 0  0.16 0.01 0  0.17 0.01 0  0.18 0.01 0  0.19 0.01 0  0.2 0.01 0  0.21 0.01 0  0.22 0.01 0  0.23 0.01 0  0.24 0.01 0  0.25 0.01 0  0.26 0.01 0  0.27 0.01 0  0.28 0.01 0  0.29 0.01 0  0.3 0.01 0  0.31 0.01 0  0.32 0.01 0  0.33 0.01 0  0.34 0.01 0  0.35 0.01 0  0.36 0.01 0  0.37 0.01 0  0.38 0.01 0  0.39 0.01 0  0.4 0.01 0  0.41 0.01 0  0.42 0.01 0  0.43 0.01 0  0.44 0.01 0  0.45 0.01 0  0.46 0.01 0  0.47 0.01 0  0.48 0.01 0  0.49 0.01 0  0.5 0.01 0  0.51 0.01 0  0.52 0.01 0  0.53 0.01 0  0.54 0.01 0  0.55 0.01 0  0.5600000000000001 0.01 0  0.57 0.01 0  0.58 0.01 0  0.59 0.01 0  0.6 0.01 0  0.61 0.01 0  0.62 0.01 0  0.63 0.01 0  0.64 0.01 0  0.65 0.01 0  0.66 0.01 0  0.67 0.01 0  0.68 0.01 0  0.6899999999999999 0.01 0  0.7 0.01 0  0.71 0.01 0  0.72 0.01 0  0.73 0.01 0  0.74 0.01 0  0.75 0.01 0  0.76 0.01 0  0.77 0.01 0  0.78 0.01 0  0.79 0.01 0  0.8 0.01 0  0.8100000000000001 0.01 0  0.82 0.01 0  0.83 0.01 0  0.84 0.01 0  0.85 0.01 0  0.86 0.01 0  0.87 0.01 0  0.88 0.01 0  0.89 0.01 0  0.9 0.01 0  0.91 0.01 0  0.92 0.01 0  0.93 0.01 0  0.9399999999999999 0.01 0  0.95 0.01 0  0.96 0.01 0  0.97 0.01 0  0.98 0.01 0  0.99 0.01 0  1 0.01 0  0 0.02 0  0.01 0.02 0  0.02 0.02 0  0.03 0.02 0  0.04 0.02 0  0.05 0.02 0  0.06 0.02 0  0.07000000000000001 0.02 0  0.08 0.02 0  0.09 0.02 0  0.1 0.02 0  0.11 0.02 0  0.12 0.02 0  0.13 0.02 0  0.14 0.02 0  0.15 0.02 0  0.16 0.02 0  0.17 0.02 0  0.18 0.02 0  0.19 0.02 0  0.2 0.02 0  0.21 0.02 0  0.22 0.02 0  0.23 0.02 0  0.24 0.02 0  0.25 0.02 0  0.26 0.02 0  0.27 0.02 0  0.28 0.02 0  0.29 0.02 0  0.3 0.02 0  0.31 0.02 0  0.32 0.02 0  0.33 0.02 0  0.34 0.02 0  0.35 0.02 0  0.36 0.02 0  0.37 0.02 0  0.38 0.02 0  0.39 0.02 0  0.4 0.02 0  0.41 0.02 0  0.42 0.02 0  0.43 0.02 0  0.44 0.02 0  0.45 0.02 0  0.46 0.02 0  0.47 0.02 0  0.48 0.02 0  0.49 0.02 0  0.5 0.02 0  0.51 0.02 0  0.52 0.02 0  0.53 0.02 0  0.54 0.02 0  0.55 0.02 0  0.5600000000000001 0.02 0  0.57 0.02 0  0.58 0.02 0  0.59 0.02 0  0.6 0.02 0  0.61 0.02 0  0.62 0.02 0  0.63 0.02 0  0.64 0.02 0  0.65 0.02 0  0.66 0.02 0  0.67 0.02 0  0.68 0.02 0  0.6899999999999999 0.02 0  0.7 0.02 0  0.71 0.02 0  0.72 0.02 0  0.73 0.02 0  0.74 0.02 0  0.75 0.02 0  0.76 0.02 0  0.77 0.02 0  0.78 0.02 0  0.79 0.02 0  0.8 0.02 0  0.8100000000000001 0.02 0  0.82 0.02 0  0.83 0.02 0  0.84 0.02 0  0.85 0.02 0  0.86 0.02 0  0.87 0.02 0  0.88 0.02 0  0.89 0.02 0  0.9 0.02 0  0.91 0.02 0  0.92 0.02 0  0.93 0.02 0  0.9399999999999999 0.02 0  0.95 0.02 0  0.96 0.02 0  0.97 0.02 0  0.98 0.02 0  0.99 0.02 0  1 0.02 0  0 0.03 0  0.01 0.03 0  0.02 0.03 0  0.03 0.03 0  0.04 0.03 0  0.05 0.03 0  0.06 0.03 0  0.07000000000000001 0.03 0  0.08 0.03 0  0.09 0.03 0  0.1 0.03 0  0.11 0.03 0  0.12 0.03 0  0.13 0.03 0  0.14 0.03 0  0.15 0.03 0  0.16 0.03 0  0.17 0.03 0  0.18 0.03 0  0.19 0.03 0  0.2 0.03 0  0.21 0.03 0  0.22 0.03 0  0.23 0.03 0  0.24 0.03 0  0.25 0.03 0  0.26 0.03 0  0.27 0.03 0  0.28 0.03 0  0.29 0.03 0  0.3 0.03 0  0.31 0.03 0  0.32 0.03 0  0.33 0.03 0  0.34 0.03 0  0.35 0.03 0  0.36 0.03 0  0.37 0.03 0  0.38 0.03 0  0.39 0.03 0  0.4 0.03 0  0.41 0.03 0  0.42 0.03 0  0.43 0.03 0  0.44 0.03 0  0.45 0.03 0  0.46 0.03 0  0.47 0.03 0  0.48 0.03 0  0.49 0.03 0  0.5 0.03 0  0.51 0.03 0  0.52 0.03 0  0.53 0.03 0  0.54 0.03 0  0.55 0.03 0  0.5600000000000001 0.03 0  0.57 0.03 0  0.58 0.03 0  0.59 0.03 0  0.6 0.03 0  0.61 0.03 0  0.62 0.03 0  0.63 0.03 0  0.64 0.03 0  0.65 0.03 0  0.66 0.03 0  0.67 0.03 0  0.68 0.03 0  0.6899999999999999 0.03 0  0.7 0.03 0  0.71 0.03 0  0.72 0.03 0  0.73 0.03 0  0.74 0.03 0  0.75 0.03 0  0.76 0.03 0  0.77 0.03 0  0.78 0.03 0  0.79 0.03 0  0.8 0.03 0  0.8100000000000001 0.03 0  0.82 0.03 0  0.83 0.03 0  0.84 0.03 0  0.85 0.03 0  0.86 0.03 0  0.87 0.03 0  0.88 0.03 0  0.89 0.03 0  0.9 0.03 0  0.91 0.03 0  0.92 0.03 0  0.93 0.03 0  0.9399999999999999 0.03 0  0.95 0.03 0  0.96 0.03 0  0.97 0.03 0  0.98 0.03 0  0.99 0.03 0  1 0.03 0  0 0.04 0  0.01 0.04 0  0.02 0.04 0  0.03 0.04 0  0.04 0.04 0  0.05 0.04 0  0.06 0.04 0  0.07000000000000001 0.04 0  0.08 0.04 0  0.09 0.04 0  0.1 0.04 0  0.11 0.04 0  0.12 0.04 0  0.13 0.04 0  0.14 0.04 0  0.15 0.04 0  0.16 0.04 0  0.17 0.04 0  0.18 0.04 0  0.19 0.04 0  0.2 0.04 0  0.21 0.04 0  0.22 0.04 0  0.23 0.04 0  0.24 0.04 0  0.25 0.04 0  0.26 0.04 0  0.27 0.04 0  0.28 0.04 0  0.29 0.04 0  0.3 0.04 0  0.31 0.04 0  0.32 0.04 0  0.33 0.04 0  0.34 0.04 0  0.35 0.04 0  0.36 0.04 0  0.37 0.04 0  0.38 0.04 0  0.39 0.04 0  0.4 0.04 0  0.41 0.04 0  0.42 0.04 0  0.43 0.04 0  0.44 0.04 0  0.45 0.04 0  0.46 0.04 0  0.47 0.04 0  0.48 0.04 0  0.49 0.04 0  0.5 0.04 0  0.51 0.04 0  0.52 0.04 0  0.53 0.04 0  0.54 0.04 0  0.55 0.04 0  0.5600000000000001 0.04 0  0.57 0.04 0  0.58 0.04 0  0.59 0.04 0  0.6 0.04 0  0.61 0.04 0  0.62 0.04 0  0.63 0.04 0  0.64 0.04 0  0.65 0.04 0  0.66 0.04 0  0.67 0.04 0  0.68 0.04 0  0.6899999999999999 0.04 0  0.7 0.04 0  0.71 0.04 0  0.72 0.04 0  0.73 0.04 0  0.74 0.04 0  0.75 0.04 0  0.76 0.04 0  0.77 0.04 0  0.78 0.04 0  0.79 0.04 0  0.8 0.04 0  0.8100000000000001 0.04 0  0.82 0.04 0  0.83 0.04 0  0.84 0.04 0  0.85 0.04 0  0.86 0.04 0  0.87 0.04 0  0.88 0.04 0  0.89 0.04 0  0.9 0.04 0  0.91 0.04 0  0.92 0.04 0  0.93 0.04 0  0.9399999999999999 0.04 0  0.95 0.04 0  0.96 0.04 0  0.97 0.04 0  0.98 0.04 0  0.99 0.04 0  1 0.04 0  0 0.05 0  0.01 0.05 0  0.02 0.05 0  0.03 0.05 0  0.04 0.05 0  0.05 0.05 0  0.06 0.05 0  0.07000000000000001 0.05 0  0.08 0.05 0  0.09 0.05 0  0.1 0.05 0  0.11 0.05 0  0.12 0.05 0  0.13 0.05 0  0.14 0.05 0  0.15 0.05 0  0.16 0.05 0  0.17 0.05 0  0.18 0.05 0  0.19 0.05 0  0.2 0.05 0  0.21 0.05 0  0.22 0.05 0  0.23 0.05 0  0.24 0.05 0  0.25 0.05 0  0.26 0.05 0  0.27 0.05 0  0.28 0.05 0  0.29 0.05 0  0.3 0.05 0  0.31 0.05 0  0.32 0.05 0  0.33 0.05 0  0.34 0.05 0  0.35 0.05 0  0.36 0.05 0  0.37 0.05 0  0.38 0.05 0  0.39 0.05 0  0.4 0.05 0  0.41 0.05 0  0.42 0.05 0  0.43 0.05 0  0.44 0.05 0  0.45 0.05 0  0.46 0.05 0  0.47 0.05 0  0.48 0.05 0  0.49 0.05 0  0.5 0.05 0  0.51 0.05 0  0.52 0.05 0  0.53 0.05 0  0.54 0.05 0  0.55 0.05 0  0.5600000000000001 0.05 0  0.57 0.05 0  0.58 0.05 0  0.59 0.05 0  0.6 0.05 0  0.61 0.05 0  0.62 0.05 0  0.63 0.05 0  0.64 0.05 0  0.65 0.05 0  0.66 0.05 0  0.67 0.05 0  0.68 0.05 0  0.6899999999999999 0.05 0  0.7 0.05 0  0.71 0.05 0  0.72 0.05 0  0.73 0.05 0  0.74 0.05 0  0.75 0.05 0  0.76 0.05 0  0.77 0.05 0  0.78 0.05 0  0.79 0.05 0  0.8 0.05 0  0.8100000000000001 0.05 0  0.82 0.05 0  0.83 0.05 0  0.84 0.05 0  0.85 0.05 0  0.86 0.05 0  0.87 0.05 0  0.88 0.05 0  0.89 0.05 0  0.9 0.05 0  0.91 0.05 0  0.92 0.05 0  0.93 0.05 0  0.9399999999999999 0.05 0  0.95 0.05 0  0.96 0.05 0  0.97 0.05 0  0.98 0.05 0  0.99 0.05 0  1 0.05 0  0 0.06 0  0.01 0.06 0  0.02 0.06 0  0.03 0.06 0  0.04 0.06 0  0.05 0.06 0  0.06 0.06 0  0.07000000000000001 0.06 0  0.08 0.06 0  0.09 0.06 0  0.1 0.06 0  0.11 0.06 0  0.12 0.06 0  0.13 0.06 0  0.14 0.06 0  0.15 0.06 0  0.16 0.06 0  0.17 0.06 0  0.18 0.06 0  0.19 0.06 0  0.2 0.06 0  0.21 0.06 0  0.22 0.06 0  0.23 0.06 0  0.24 0.06 0  0.25 0.06 0  0.26 0.06 0  0.27 0.06 0  0.28 0.06 0  0.29 0.06 0  0.3 0.06 0  0.31 0.06 0  0.32 0.06 0  0.33 0.06 0  0.34 0.06 0  0.35 0.06 0  0.36 0.06 0  0.37 0.06 0  0.38 0.06 0  0.39 0.06 0  0.4 0.06 0  0.41 0.06 0  0.42 0.06 0  0.43 0.06 0  0.44 0.06 0  0.45 0.06 0  0.46 0.06 0  0.47 0.06 0  0.48 0.06 0  0.49 0.06 0  0.5 0.06 0  0.51 0.06 0  0.52 0.06 0  0.53 0.06 0  0.54 0.06 0  0.55 0.06 0  0.5600000000000001 0.06 0  0.57 0.06 0  0.58 0.06 0  0.59 0.06 0  0.6 0.06 0  0.61 0.06 0  0.62 0.06 0  0.63 0.06 0  0.64 0.06 0  0.65 0.06 0  0.66 0.06 0  0.67 0.06 0  0.68 0.06 0  0.6899999999999999 0.06 0  0.7 0.06 0  0.71 0.06 0  0.72 0.06 0  0.73 0.06 0  0.74 0.06 0  0.75 0.06 0  0.76 0.06 0  0.77 0.06 0  0.78 0.06 0  0.79 0.06 0  0.8 0.06 0  0.8100000000000001 0.06 0  0.82 0.06 0  0.83 0.06 0  0.84 0.06 0  0.85 0.06 0  0.86 0.06 0  0.87 0.06 0  0.88 0.06 0  0.89 0.06 0  0.9 0.06 0  0.91 0.06 0  0.92 0.06 0  0.93 0.06 0  0.9399999999999999 0.06 0  0.95 0.06 0  0.96 0.06 0  0.97 0.06 0  0.98 0.06 0  0.99 0.06 0  1 0.06 0  0 0.07000000000000001 0  0.01 0.07000000000000001 0  0.02 0.07000000000000001 0  0.03 0.07000000000000001 0  0.04 0.07000000000000001 0  0.05 0.07000000000000001 0  0.06 0.07000000000000001 0  0.07000000000000001 0.07000000000000001 0  0.08 0.07000000000000001 0  0.09 0.07000000000000001 0  0.1 0.07000000000000001 0  0.11 0.07000000000000001 0  0.12 0.07000000000000001 0  0.13 0.07000000000000001 0  0.14 0.07000000000000001 0  0.15 0.07000000000000001 0  0.16 0.07000000000000001 0  0.17 0.0700
[...]
<PointData  Scalars="u"> 
<DataArray  type="Float64"  Name="u"  format="ascii">0.0000000000000000e+00  0.0000000000000000e+00  0.0000000000000000e+00  0.0000000000000000e+00  0.0000000000000000e+00  0.0000000000000000e+00  0.0000000000000000e+00  0.0000000000000000e+00  0.0000000000000000e+00  0.0000000000000000e+00  0.0000000000000000e+00  0.0000000000000000e+00  0.0000000000000000e+00  0.0000000000000000e+00  0.0000000000000000e+00  0.0000000000000000e+00  0.0000000000000000e+00  0.0000000000000000e+00  0.0000000000000000e+00  0.0000000000000000e+00  0.0000000000000000e+00  0.0000000000000000e+00  0.0000000000000000e+00  0.0000000000000000e+00  0.0000000000000000e+00  0.0000000000000000e+00  0.0000000000000000e+00  0.0000000000000000e+00  0.0000000000000000e+00  0.0000000000000000e+00  0.0000000000000000e+00  0.0000000000000000e+00  0.0000000000000000e+00  0.0000000000000000e+00  0.0000000000000000e+00  0.0000000000000000e+00  0.0000000000000000e+00  0.0000000000000000e+00  0.0000000000000000e+00  0.0000000000000000e+00  0.0000000000000000e+00  0.0000000000000000e+00  0.0000000000000000e+00  0.0000000000000000e+00  0.0000000000000000e+00  0.0000000000000000e+00  0.0000000000000000e+00  0.0000000000000000e+00  0.0000000000000000e+00  0.0000000000000000e+00  0.0000000000000000e+00  0.0000000000000000e+00  0.0000000000000000e+00  0.0000000000000000e+00  0.0000000000000000e+00  0.0000000000000000e+00  0.0000000000000000e+00  0.0000000000000000e+00  0.0000000000000000e+00  0.0000000000000000e+00  0.0000000000000000e+00  0.0000000000000000e+00  0.0000000000000000e+00  0.0000000000000000e+00  0.0000000000000000e+00  0.0000000000000000e+00  0.0000000000000000e+00  0.0000000000000000e+00  0.0000000000000000e+00  0.0000000000000000e+00  0.0000000000000000e+00  0.0000000000000000e+00  0.0000000000000000e+00  0.0000000000000000e+00  0.0000000000000000e+00  0.0000000000000000e+00  0.0000000000000000e+00  0.0000000000000000e+00  0.0000000000000000e+00  0.0000000000000000e+00  0.0000000000000000e+00  0.0000000000000000e+00  0.0000000000000000e+00  0.0000000000000000e+00  0.0000000000000000e+00  0.0000000000000000e+00  0.0000000000000000e+00  0.0000000000000000e+00  0.0000000000000000e+00  0.0000000000000000e+00  0.0000000000000000e+00  0.0000000000000000e+00  0.0000000000000000e+00  0.0000000000000000e+00  0.0000000000000000e+00  0.0000000000000000e+00  0.0000000000000000e+00  0.0000000000000000e+00  0.0000000000000000e+00  0.0000000000000000e+00  0.0000000000000000e+00  0.0000000000000000e+00  -1.6907350667081166e-02  -6.6505638756560043e-02  -2.1498839804772386e-02  -1.9785421021022404e-02  1.8143393383246480e-02  -1.5964697993171739e-02  -1.5154390858079804e-02  3.7051439157295848e-02  -5.8182472823458460e-02  -3.4746394247030009e-03  7.1994565153773324e-02  -2.2524677123890304e-02  -8.8594752861522366e-02  4.4135892955535258e-02  -1.9284269874813149e-02  -4.7197033403365051e-03  9.7559400611610479e-03  -3.6799936798729761e-02  9.7192248736148359e-02  -6.1804530797492346e-02  5.2524642034873489e-02  -6.5412867930508017e-02  2.1115310339827085e-02  -1.1538175370402033e-02  6.0657391994967988e-02  -6.6163579351025445e-02  3.7424566287728958e-02  -1.8656771558580188e-02  -9.5433003453314052e-03  6.0642915437310466e-03  5.1416064850176475e-02  -7.2994974027166704e-02  1.4638841805013113e-02  7.7531755101772372e-04  7.9918011400711725e-04  1.8530065296433251e-02  1.4490259931737677e-02  4.3650320145997318e-02  5.2240092577942399e-03  -2.7732523044819136e-02  -1.8110235209611542e-02  -8.9613435391765733e-03  -2.1119447430853915e-02  1.0567675684414796e-02  3.7138740230451051e-02  -4.4052125363916839e-02  2.0498255531340333e-02  -6.3133143002263989e-03  9.6436987241244002e-03  -9.8713051562662763e-03  9.7670436365282654e-03  2.4101723334717566e-03  -8.7017243065254882e-03  -2.4265335571150258e-03  3.7327485879751080e-03  5.7064673779639212e-03  -5.4417143680963445e-03  3.6136347918073091e-03  -1.5308914050231482e-03  1.0600472008090440e-03  -8.2094464983551644e-04  -4.0443469064939364e-04  2.4806176226099005e-04  -1.0374061839238490e-04  3.4802075022972084e-04  4.2680911593073246e-04  -1.6206257235170816e-04  3.1241733661938585e-04  1.1838867361192061e-03  -5.7618312013063533e-04  -5.8658823640500904e-04  8.9719421951594820e-04  -1.5876432899560836e-03  -3.6242102492703094e-03  -3.6612266110587488e-04  3.1567053219884703e-03  1.9161229200818581e-03  3.1951141981037496e-04  -1.2457185551708672e-04  -1.3271879437122761e-04  -2.9463056378595942e-04  3.0979055129462719e-04  8.2627426493787827e-04  4.6851811553336306e-04  -1.0934007252242057e-04  -2.4030195606536281e-04  -1.9024174128372929e-04  7.3444273909963203e-05  -3.5997050382350467e-05  -1.0766507377264292e-04  -6.7743934150544047e-05  -2.8305143156317886e-05  -1.7770673524686823e-05  5.4278490036149933e-06  1.1730734234106577e-05  1.3194139770665227e-05  1.3470834843964192e-05  1.2933197973491553e-05  1.0654450117847852e-05  0.0000000000000000e+00  0.0000000000000000e+00  -1.2124142609594896e-02  -1.8862451231082617e-02  5.2646587244119816e-02  -3.3265292386350967e-02  -6.2886563408332055e-02  -1.2723055761681906e-02  5.0528018282335038e-02  -3.5756021663814710e-02  -8.2658402298577779e-02  1.3496269992880658e-01  -9.6041488497000518e-02  -2.8450730274257596e-02  1.1299545209128835e-01  -1.1032629044335811e-01  -9.9251043186294755e-02  7.7015352863209333e-02  -4.3131035407092004e-02  7.1089322410010106e-02  -2.0837938213197953e-02  -1.6599862241943569e-02  1.0458811828912716e-01  -1.1161542373516720e-01  3.1249439282908546e-03  5.7993194071638297e-02  -2.6477720228171731e-02  -2.9237190853817787e-02  4.1672354828484671e-02  5.1545562407730320e-03  1.3457909412378617e-03  -9.5987169109419582e-02  9.4564619690387472e-02  2.6979732009209959e-02  -6.1697510234912774e-02  -4.1841883754842657e-02  2.0394578015184846e-02  2.7101590054659841e-02  5.8159328961204931e-02  3.0604522366569128e-02  2.5433100296348549e-03  4.8874120155008770e-02  -4.6122229398507866e-02  -7.6636331587789028e-02  2.9321902058621546e-04  3.9935714597804641e-03  4.1015471967572256e-02  -3.2192913952648165e-02  2.1648498459229611e-02  -3.4685113044288701e-02  4.3658895482116419e-02  -2.7804969202961594e-02  1.6140062694149544e-02  -1.0830957199359395e-04  8.1613545608074378e-03  -2.5560109900666397e-02  8.7597154382299952e-03  9.0101600617065718e-03  -1.0495033723566951e-04  -3.7035786334564278e-03  4.2797862094329508e-03  -2.2883831972335782e-03  1.8655029930156170e-03  -2.3990857059339454e-03  5.7909532247857223e-04  -1.5068355008226959e-04  2.1319026003496184e-04  7.2766103239937561e-04  5.1614130290649407e-04  -5.0962205472013656e-04  1.8555365797607278e-03  1.0840826017817994e-03  -2.0804640416003540e-03  6.3178521649514207e-04  4.8777501517431230e-04  -5.4521173955402406e-03  -5.0633701053852233e-03  3.2843991351502451e-03  5.4192693684390813e-03  1.6689384651703094e-03  -1.4279365697973063e-04  -1.9751148734850485e-04  -3.8635710077658476e-04  -1.7586294477180318e-04  1.2005549904409308e-03  1.4257412171655283e-03  2.7183127347643566e-04  -3.0102441820777868e-04  -4.6535294223431633e-04  -4.1903278052335790e-05  1.2741494678952827e-04  -1.4412571121317412e-04  -1.6633904162781558e-04  -7.9295389031321581e-05  -4.7902917651567658e-05  -2.4927799119337926e-05  8.1027559803350775e-06  5.3924746377850156e-06  9.4591957157960126e-06  1.0978653132636473e-05  1.9084059630856702e-05  0.0000000000000000e+00  0.0000000000000000e+00  5.2015500797139957e-02  5.0516233722972356e-02  -1.3633015919450922e-01  5.7107193419286495e-02  1.4061486350366286e-02  3.3622079902854998e-02  -6.4938241184207199e-02  1.3402779122486837e-02  7.7651239230729294e-02  -2.1905874333801961e-01  1.2617411855958924e-01  1.2758674865017336e-01  -1.6085328535624541e-01  -1.0897407279552701e-01  1.3113025432889311e-01  -1.4070755532578619e-01  1.5644540530162232e-02  -5.6476787220382883e-03  -2.4162622994794151e-02  2.3281146978202408e-01  -2.1910061461908853e-01  2.0074115106725482e-01  -2.2793914395325043e-01  6.8405710503902026e-02  2.3106135250810421e-02  1.2700858738252377e-01  -2.1830372977419285e-01  1.3080829659137574e-01  -3.7507739078419290e-02  6.8861265818203343e-03  -4.7552772040216428e-02  1.3739923437604443e-01  -1.5862493813205900e-01  5.4872781154661300e-02  -3.1757090289916648e-02  -4.5564256370330602e-03  5.1415955267557475e-02  6.6344583184404671e-02  1.1216063846334498e-01  -2.7256308973655261e-02  -3.6425749184082076e-02  -3.0934516667411423e-02  -5.5854982540190806e-02  -4.9982576162439882e-02  4.2417539761777610e-02  1.0543228506850380e-01  -1.3875487072210613e-01  8.0881795205724527e-02  -4.2328749706545113e-02  4.7250958180760395e-02  -4.0524984381096273e-02  3.3862026062593455e-02  2.2602511963697050e-04  -1.4358408377071613e-02  -1.5719092245752787e-02  1.3403608468780869e-02  1.5550132859463687e-02  -1.3530987676367397e-02  7.4135062984004869e-03  -2.4659627250636158e-03  1.6718754713002735e-03  -1.1530989251729883e-03  -1.6583658382984465e-03  9.1714763027733628e-04  -3.8738487668920919e-04  8.1953376924881558e-04  1.1496010836225660e-03  -2.5848383315899676e-04  4.1299266739310345e-04  3.3546586147630278e-03  -1.0015795547219934e-03  -2.2114672872715758e-03  2.4375131711714825e-03  -3.2010230913823269e-03  -9.7787194943783993e-03  -2.1619036327889642e-03  8.4943671974313326e-03  5.6717391997809672e-03  6.1369661698672262e-04  -6.8050735643997141e-04  -4.6586328717661756e-04  -7.8565313694984522e-04  6.4792868434279324e-04  2.2398686953923950e-03  1.4331729602499303e-03  -2.4030574858056414e-04  -5.9424797049573575e-04  -5.2192446348334784e-04  2.2591343471667916e-04  1.6027173501886118e-05  -2.4442332593557265e-04  -1.6798871395757111e-04  -6.8859529388039481e-05  -5.4432726148343668e-05  -8.1265266445166568e-06  9.3186517363716337e-06  3.2766277962857594e-06  -4.1209853412773545e-07  -2.2648612771228394e-06  0.0000000000000000e+00  0.0000000000000000e+00  -6.3500835917432608e-02  -5.7305185638825161e-02  7.0151263286646975e-02  4.5340332152289102e-02  -5.0575336808104547e-02  -6.3967859767465676e-02  6.5050825912056409e-02  7.0021588505582086e-02  -5.7930988179019205e-02  -3.3638610321175599e-02  9.1408600632542719e-02  -1.4048143123281068e-01  1.0643942766550288e-01  1.1043033842160688e-01  -3.0488307445581042e-01  -4.4370887610298622e-02  1.0919978672558432e-01  -6.7191394967302975e-02  8.7221516630364815e-02  -8.8591309355113293e-02  1.2606185760109961e-01  5.8257592320356572e-02  -9.1953608216629568e-02  -7.8862148846987251e-02  8.6947929384344494e-02  -4.8051677068864936e-02  6.4555605448323589e-02  -3.2583836214275866e-02  3.7013190461624830e-02  -3.3440335924404346e-02  -1.2650644694877330e-01  1.5680589543724796e-01  8.9841085157112241e-02  -1.9957944835636685e-01  -2.6897088114469704e-02  4.7550100307078499e-02  3.8385096124758281e-02  8.7754459490082828e-02  5.0663863265193863e-02  6.7978625374438495e-02  6.7047184034838475e-02  -1.1575427649825429e-01  -1.1871844070809093e-01  5.0852233997070034e-03  -2.1421758473407881e-02  6.9748662953816834e-02  1.0934773696391922e-02  -3.0700473201506168e-02  -1.9600062033295066e-02  5.3821080864726895e-02  -2.6316969489629867e-02  8.9516537147617693e-03  1.2792849050842487e-02  1.2085706498929824e-02  -4.5521304492020492e-02  9.5053959607272805e-03  1.7894155058318713e-02  5.0434672295324315e-03  -1.0633482413844824e-02  9.1893248594872873e-03  -4.7829168152116099e-03  3.4706782420696764e-03  -4.2051285005322240e-03  5.0006358628727895e-04  2.8983572811740006e-05  1.5190312586822513e-04  1.3308295179152423e-03  1.1309738545961844e-03  -1.0225274654880095e-03  2.8999622482585134e-03  2.7431476045701579e-03  -3.6370254842331374e-03  1.9151305831330729e-04  1.7324323645290182e-03  -9.2433965352138325e-03  -1.0854201215587566e-02  4.5901963402803728e-03  1.1279420752007302e-02  4.2176100177317597e-03  -3.3112055693095281e-04  -7.8043962631935398e-04  -9.4908871563319274e-04  -6.6368262593568671e-04  1.9520965950116675e-03  2.8021199994675413e-03  7.6677755507673518e-04  -6.2897529802872360e-04  -9.1973200919247765e-04  -2.4448415544605506e-04  2.7656459979689203e-04  -1.9025111307882262e-04  -2.9669747568167472e-04  -1.4163199744423105e-04  -7.1038143043562638e-05  -4.2031419132139773e-05  1.3120187635172305e-05  8.5159130454974496e-06  5.9908007973329777e-06  -1.4714930184084633e-06  0.0000000000000000e+00  0.0000000000000000e+00  1.4370464368392355e-01  1.0265218698824377e-01  -1.8417061366274773e-02  -1.6649820964927514e-01  1.5182508299209205e-01  2.5244622611234880e-02  -1.1165457407827052e-02  -6.0077943489749291e-02  8.5613305680243348e-02  6.1886827099230435e-02  -2.5727744806762809e-01  2.6626188012294155e-01  3.9110381603882208e-02  -1.8852072552507662e-01  1.3903131726402011e-02  4.9407919684022687e-02  -2.5057623889731628e-01  7.6935828981461105e-02  -7.9329064524527038e-03  4.9720766744466072e-02  2.0937942411003876e-01  -2.5403576009554374e-01  2.9307975606478598e-01  -3.2274534997661447e-01  9.2745818444853315e-02  6.6603769925118614e-02  8.6625870625276241e-02  -2.5717887911251425e-01  1.9111288765982237e-01  -2.1101403124436677e-02  -1.0030960853881506e-02  -1.3775810760513646e-01  2.2324931023069852e-01  -1.3056958830495088e-01  1.0380989300575303e-02  -8.2963122097584149e-02  7.3503743552359073e-03  9.4814088574948066e-02  1.2579687032319883e-01  1.3204175237913524e-01  -3.5474466712969478e-02  7.7751603566721377e-03  -7.2755660638945160e-02  -1.3074567441136969e-01  -5.1754903193801771e-02  5.9764444412802410e-02  1.3992907734514551e-01  -1.7117925218985255e-01  1.0418624992774687e-01  -6.9238412030135740e-02  8.3676658237899326e-02  -6.2768752099185338e-02  4.8130564124783531e-02  1.4709430996481720e-03  -1.1540451328780040e-02  -3.5946987274498243e-02  2.1471072020022137e-02  2.3537874407866328e-02  -1.5151568677655445e-02  6.1460845201659958e-03  -5.2997665728398715e-04  5.8243310660351197e-04  -4.6145558144392599e-04  -3.3602032841345548e-03  1.3130236727186520e-03  -5.9206235260335198e-04  9.6875788196906332e-04  1.7774777560744348e-03  -3.2179484687324447e-05  9.9880742791205469e-05  5.0126739677476221e-03  -4.2644566022990131e-04  -4.0350188404843848e-03  3.0419802901018944e-03  -3.3569307420849410e-03  -1.4817919312006111e-02  -5.9810501484690278e-03  1.1999404451546151e-02  1.0466355658659200e-02  1.9767281829137168e-03  -9.3339487155114434e-04  -8.4239597225414559e-04  -1.3197551591124504e-03  5.0586741185674599e-04  3.2602386289526594e-03  2.5014548985997586e-03  -1.3608221287718654e-04  -9.7373459793002545e-04  -9.4508494289931722e-04  1.4571005766489005e-04  6.6994782104582868e-05  -3.6629331138763005e-04  -2.9184020569044208e-04  -1.2331235362887495e-04  -8.1467478835262210e-05  -1.6250768231453575e-05  2.0990345459618530e-05  1.1142894192649072e-05  3.5941998000789324e-06  0.0000000000000000e+00  0.0000000000000000e+00  -1.2954697765658921e-01  -5.9758483743483880e-02  3.3520706373334638e-02  1.4711835885608177e-01  -5.1712931734078954e-02  -3.7667489848661001e-02  -2.6780371308084826e-02  1.0293841111901321e-01  3.8183775496671006e-02  -2.7640785683232177e-02  -3.8255757802038528e-03  -3.1798670015838082e-02  -8.2962367321013000e-03  1.8582400590896145e-01  -1.6516056052500783e-02  -3.3286091936421780e-01  4.8715345062694537e-02  3.7846539962471060e-02  -6.4478069451635880e-02  5.5971645018461837e-02  -4.9479156874000854e-02  2.5279351288446722e-01  -5.0071817649001968e-02  -2.8168407560992836e-03  -2.1263901704680660e-01  1.2284881775101802e-01  6.1098917674868788e-03  1.2063737957997683e-01  -1.6087469593694115e-01  8.8616685352189292e-02  -4.3198445413140794e-02  -9.8977931935822397e-02  1.3156692852258892e-01  1.3444529332124572e-01  -2.8227905927402319e-01  1.4547601269089151e-02  3.6020414090292843e-02  2.9558242563433434e-02  1.0867894196602090e-01  1.0574805121469731e-01  1.3827029182302417e-01  3.4717187838869575e-02  -1.3667377190837740e-01  -1.3164441253683432e-01  -3.2751142698273679e-02  -5.0568412727212339e-02  1.0049908017940902e-01  6.3193835472206319e-02  -1.0535401501943648e-01  2.4908720287671101e-02  3.0681358904218161e-02  2.3035652768626279e-03  -1.3949825236663608e-02  3.3338930920232095e-02  9.5374557463783535e-03  -5.1364308617714169e-02  -1.5979354007548436e-03  2.8554908585458384e-02  1.0282467908521466e-02  -1.4931706725134176e-02  1.1199293689671191e-02  -5.1081243180676967e-03  3.6936241969673937e-03  -4.6773807517215679e-03  -3.2788703683867861e-04  3.7596181498196707e-04  -4.4487116939757258e-05  1.6414378967519196e-03  1.7067566420611625e-03  -1.2593368202561096e-03  3.2238033289774363e-03  4.3935844356515642e-03  -4.1547911376600697e-03  -1.0679228509519671e-03  2.6418002547415023e-03  -1.1322716402957709e-02  -1.6190059492620004e-02  3.5895560570335570e-03  1.6096126458403276e-02  7.6060461821761466e-03  -9.9236853598862221e-06  -1.1534591047539170e-03  -1.3178149553994484e-03  -1.0248698609215863e-03  2.3437075673798918e-03  3.9940334770217486e-03  1.4690087422470934e-03  -7.9843266696648309e-04  -1.3197939441573648e-03  -5.4649729511301373e-04  2.8215506185590383e-04  -2.2205601747104413e-04  -4.4607215203504850e-04  -2.4933271955876799e-04  -1.2547086551552224e-04  -7.5746135227763519e-05  3.2926553480436782e-06  1.5460606367937359e-05  1.1573071750686985e-05  0.0000000000000000e+00  0.0000000000000000e+00  6.1964333159072738e-02  4.7780132863719169e-02  -2.9851652857727850e-02  -1.2350339948570438e-01  -8.1928890400929252e-02  1.7971783010583070e-01  2.7659977445411905e-03  -6.2208109530852325e-02  -1.7378601712246668e-02  1.0585186328125336e-01  3.8658517064572066e-02  -1.9600675456958971e-01  2.2075562806813318e-01  -1.1398231141966612e-02  -6.7566218614913506e-02  3.3970292600185102e-02  -1.1297913017441172e-01  -2.1789400060329406e-01  1.0472293720064822e-01  1.2989210104986154e-02  6.9516699893495223e-02  1.3111021485335447e-01  -1.3014850878586290e-01  2.5980734129567240e-01  -2.8137624845371334e-01  2.9204897796232313e-02  7.9270465552764860e-02  5.1390969343577717e-02  -1.6597962375843955e-01  1.4902215730133581e-01  1.5540682996982722e-02  -6.9028146710074900e-02  -1.6291362713670662e-01  2.8273975193904927e-01  -6.1412884046212854e-02  -1.1246532736280998e-01  -8.6239818767239768e-02  2.8495404087393310e-02  1.2662903144060270e-01  1.5817670227326500e-01  1.3927543851310045e-01  1.8620612825585033e-02  2.8227531727204658e-02  -1.3207881851771930e-01  -1.7524171274780220e-01  -5.0557119814166586e-02  4.8628599566079740e-02  1.5688763986088256e-01  -1.3421915146215335e-01  5.4258330171683689e-02  -5.0200143248428988e-02  8.5909539001708168e-02  -5.6768817912646589e-02  3.9535218863031900e-02  1.5007066138448686e-02  -1.2514554446066002e-02  -4.9951723697722987e-02  2.1047106049283320e-02  3.2584213655553904e-02  -1.2757544782452640e-02  2.7967453797353150e-03  1.9017058146612827e-03  -3.6936267879711946e-04  1.4025388671436674e-04  -4.3893193519669816e-03  1.2552401592912296e-03  -4.3899832087906465e-04  9.7683331720254491e-04  2.2385465328263613e-03  4.3666096876091655e-04  -2.6129252510389151e-04  5.9389447171307834e-03  7.2936442882908610e-04  -5.2524968895573849e-03  2.5861184021999974e-03  -2.9111141558722624e-03  -1.8319690077590493e-02  -1.0590970432847952e-02  1.3366850515933214e-02  1.5457060881919799e-02  4.2361065815797426e-03  -1.0771620489957064e-03  -1.2863909244260998e-03  -1.7875429247747078e-03  3.2056988878807969e-04  4.0279899349128807e-03  3.6540492661438465e-03  2.8585852396533103e-04  -1.2663326238029468e-03  -1.3101222446309914e-03  -5.2094745124116487e-05  9.4332619104900095e-05  -4.4355894767156685e-04  -4.2756262473773576e-04  -2.0883701218156703e-04  -1.2982220103704484e-04  -4.9297600870730490e-05  7.4940081991031969e-06  7.5003266160225192e-06  0.0000000000000000e+00  0.0000000000000000e+00  -1.6550790012861080e-02  2.0182121296766137e-02  4.1071008417704925e-02  7.5936543622312128e-02  4.4347063826546761e-02  -1.4496700731073778e-01  -4.8088328944712565e-