<?xml version="1.0"?>
<VTKFile type="UnstructuredGrid"  version="0.1"  >
<UnstructuredGrid>
<Piece  NumberOfPoints="10201" NumberOfCells="20000">
<Points>
<DataArray  type="Float64"  NumberOfComponents="3"  format="ascii">0 0 0  0.01 0 0  0.02 0 0  0.03 0 0  0.04 0 0  0.05 0 0  0.06 0 0  0.07000000000000001 0 0  0.08 0 0  0.09 0 0  0.1 0 0  0.11 0 0  0.12 0 0  0.13 0 0  0.14 0 0  0.15 0 0  0.16 0 0  0.17 0 0  0.18 0 0  0.19 0 0  0.2 0 0  0.21 0 0  0.22 0 0  0.23 0 0  0.24 0 0  0.25 0 0  0.26 0 0  0.27 0 0  0.28 0 0  0.29 0 0  0.3 0 0  0.31 0 0  0.32 0 0  0.33 0 0  0.34 0 0  0.35 0 0  0.36 0 0  0.37 0 0  0.38 0 0  0.39 0 0  0.4 0 0  0.41 0 0  0.42 0 0  0.43 0 0  0.44 0 0  0.45 0 0  0.46 0 0  0.47 0 0  0.48 0 0  0.49 0 0  0.5 0 0  0.51 0 0  0.52 0 0  0.53 0 0  0.54 0 0  0.55 0 0  0.5600000000000001 0 0  0.57 0 0  0.58 0 0  0.59 0 0  0.6 0 0  0.61 0 0  0.62 0 0  0.63 0 0  0.64 0 0  0.65 0 0  0.66 0 0  0.67 0 0  0.68 0 0  0.6899999999999999 0 0  0.7 0 0  0.71 0 0  0.72 0 0  0.73 0 0  0.74 0 0  0.75 0 0  0.76 0 0  0.77 0 0  0.78 0 0  0.79 0 0  0.8 0 0  0.8100000000000001 0 0  0.82 0 0  0.83 0 0  0.84 0 0  0.85 0 0  0.86 0 0  0.87 0 0  0.88 0 0  0.89 0 0  0.9 0 0  0.91 0 0  0.92 0 0  0.93 0 0  0.9399999999999999 0 0  0.95 0 0  0.96 0 0  0.97 0 0  0.98 0 0  0.99 0 0  1 0 0  0 0.01 0  0.01 0.01 0  0.02 0.01 0  0.03 0.01 0  0.04 0.01 0  0.05 0.01 0  0.06 0.01 0  0.07000000000000001 0.01 0  0.08 0.01 0  0.09 0.01 0  0.1 0.01 0  0.11 0.01 0  0.12 0.01 0  0.13 0.01 0  0.14 0.01 0  0.15 0.01 0  0.16 0.01 0  0.17 0.01 0  0.18 0.01 0  0.19 0.01 0  0.2 0.01 0  0.21 0.01 0  0.22 0.01 0  0.23 0.01 0  0.24 0.01 0  0.25 0.01 0  0.26 0.01 0  0.27 0.01 0  0.28 0.01 0  0.29 0.01 0  0.3 0.01 0  0.31 0.01 0  0.32 0.01 0  0.33 0.01 0  0.34 0.01 0  0.35 0.01 0  0.36 0.01 0  0.37 0.01 0  0.38 0.01 0  0.39 0.01 0  0.4 0.01 0  0.41 0.01 0  0.42 0.01 0  0.43 0.01 0  0.44 0.01 0  0.45 0.01 0  0.46 0.01 0  0.47 0.01 0  0.48 0.01 0  0.49 0.01 0  0.5 0.01 0  0.51 0.01 0  0.52 0.01 0  0.53 0.01 0  0.54 0.01 0  0.55 0.01 0  0.5600000000000001 0.01 0  0.57 0.01 0  0.58 0.01 0  0.59 0.01 0  0.6 0.01 0  0.61 0.01 0  0.62 0.01 0  0.63 0.01 0  0.64 0.01 0  0.65 0.01 0  0.66 0.01 0  0.67 0.01 0  0.68 0.01 0  0.6899999999999999 0.01 0  0.7 0.01 0  0.71 0.01 0  0.72 0.01 0  0.73 0.01 0  0.74 0.01 0  0.75 0.01 0  0.76 0.01 0  0.77 0.01 0  0.78 0.01 0  0.79 0.01 0  0.8 0.01 0  0.8100000000000001 0.01 0  0.82 0.01 0  0.83 0.01 0  0.84 0.01 0  0.85 0.01 0  0.86 0.01 0  0.87 0.01 0  0.88 0.01 0  0.89 0.01 0  0.9 0.01 0  0.91 0.01 0  0.92 0.01 0  0.93 0.01 0  0.9399999999999999 0.01 0  0.95 0.01 0  0.96 0.01 0  0.97 0.01 0  0.98 0.01 0  0.99 0.01 0  1 0.01 0  0 0.02 0  0.01 0.02 0  0.02 0.02 0  0.03 0.02 0  0.04 0.02 0  0.05 0.02 0  0.06 0.02 0  0.07000000000000001 0.02 0  0.08 0.02 0  0.09 0.02 0  0.1 0.02 0  0.11 0.02 0  0.12 0.02 0  0.13 0.02 0  0.14 0.02 0  0.15 0.02 0  0.16 0.02 0  0.17 0.02 0  0.18 0.02 0  0.19 0.02 0  0.2 0.02 0  0.21 0.02 0  0.22 0.02 0  0.23 0.02 0  0.24 0.02 0  0.25 0.02 0  0.26 0.02 0  0.27 0.02 0  0.28 0.02 0  0.29 0.02 0  0.3 0.02 0  0.31 0.02 0  0.32 0.02 0  0.33 0.02 0  0.34 0.02 0  0.35 0.02 0  0.36 0.02 0  0.37 0.02 0  0.38 0.02 0  0.39 0.02 0  0.4 0.02 0  0.41 0.02 0  0.42 0.02 0  0.43 0.02 0  0.44 0.02 0  0.45 0.02 0  0.46 0.02 0  0.47 0.02 0  0.48 0.02 0  0.49 0.02 0  0.5 0.02 0  0.51 0.02 0  0.52 0.02 0  0.53 0.02 0  0.54 0.02 0  0.55 0.02 0  0.5600000000000001 0.02 0  0.57 0.02 0  0.58 0.02 0  0.59 0.02 0  0.6 0.02 0  0.61 0.02 0  0.62 0.02 0  0.63 0.02 0  0.64 0.02 0  0.65 0.02 0  0.66 0.02 0  0.67 0.02 0  0.68 0.02 0  0.6899999999999999 0.02 0  0.7 0.02 0  0.71 0.02 0  0.72 0.02 0  0.73 0.02 0  0.74 0.02 0  0.75 0.02 0  0.76 0.02 0  0.77 0.02 0  0.78 0.02 0  0.79 0.02 0  0.8 0.02 0  0.8100000000000001 0.02 0  0.82 0.02 0  0.83 0.02 0  0.84 0.02 0  0.85 0.02 0  0.86 0.02 0  0.87 0.02 0  0.88 0.02 0  0.89 0.02 0  0.9 0.02 0  0.91 0.02 0  0.92 0.02 0  0.93 0.02 0  0.9399999999999999 0.02 0  0.95 0.02 0  0.96 0.02 0  0.97 0.02 0  0.98 0.02 0  0.99 0.02 0  1 0.02 0  0 0.03 0  0.01 0.03 0  0.02 0.03 0  0.03 0.03 0  0.04 0.03 0  0.05 0.03 0  0.06 0.03 0  0.07000000000000001 0.03 0  0.08 0.03 0  0.09 0.03 0  0.1 0.03 0  0.11 0.03 0  0.12 0.03 0  0.13 0.03 0  0.14 0.03 0  0.15 0.03 0  0.16 0.03 0  0.17 0.03 0  0.18 0.03 0  0.19 0.03 0  0.2 0.03 0  0.21 0.03 0  0.22 0.03 0  0.23 0.03 0  0.24 0.03 0  0.25 0.03 0  0.26 0.03 0  0.27 0.03 0  0.28 0.03 0  0.29 0.03 0  0.3 0.03 0  0.31 0.03 0  0.32 0.03 0  0.33 0.03 0  0.34 0.03 0  0.35 0.03 0  0.36 0.03 0  0.37 0.03 0  0.38 0.03 0  0.39 0.03 0  0.4 0.03 0  0.41 0.03 0  0.42 0.03 0  0.43 0.03 0  0.44 0.03 0  0.45 0.03 0  0.46 0.03 0  0.47 0.03 0  0.48 0.03 0  0.49 0.03 0  0.5 0.03 0  0.51 0.03 0  0.52 0.03 0  0.53 0.03 0  0.54 0.03 0  0.55 0.03 0  0.5600000000000001 0.03 0  0.57 0.03 0  0.58 0.03 0  0.59 0.03 0  0.6 0.03 0  0.61 0.03 0  0.62 0.03 0  0.63 0.03 0  0.64 0.03 0  0.65 0.03 0  0.66 0.03 0  0.67 0.03 0  0.68 0.03 0  0.6899999999999999 0.03 0  0.7 0.03 0  0.71 0.03 0  0.72 0.03 0  0.73 0.03 0  0.74 0.03 0  0.75 0.03 0  0.76 0.03 0  0.77 0.03 0  0.78 0.03 0  0.79 0.03 0  0.8 0.03 0  0.8100000000000001 0.03 0  0.82 0.03 0  0.83 0.03 0  0.84 0.03 0  0.85 0.03 0  0.86 0.03 0  0.87 0.03 0  0.88 0.03 0  0.89 0.03 0  0.9 0.03 0  0.91 0.03 0  0.92 0.03 0  0.93 0.03 0  0.9399999999999999 0.03 0  0.95 0.03 0  0.96 0.03 0  0.97 0.03 0  0.98 0.03 0  0.99 0.03 0  1 0.03 0  0 0.04 0  0.01 0.04 0  0.02 0.04 0  0.03 0.04 0  0.04 0.04 0  0.05 0.04 0  0.06 0.04 0  0.07000000000000001 0.04 0  0.08 0.04 0  0.09 0.04 0  0.1 0.04 0  0.11 0.04 0  0.12 0.04 0  0.13 0.04 0  0.14 0.04 0  0.15 0.04 0  0.16 0.04 0  0.17 0.04 0  0.18 0.04 0  0.19 0.04 0  0.2 0.04 0  0.21 0.04 0  0.22 0.04 0  0.23 0.04 0  0.24 0.04 0  0.25 0.04 0  0.26 0.04 0  0.27 0.04 0  0.28 0.04 0  0.29 0.04 0  0.3 0.04 0  0.31 0.04 0  0.32 0.04 0  0.33 0.04 0  0.34 0.04 0  0.35 0.04 0  0.36 0.04 0  0.37 0.04 0  0.38 0.04 0  0.39 0.04 0  0.4 0.04 0  0.41 0.04 0  0.42 0.04 0  0.43 0.04 0  0.44 0.04 0  0.45 0.04 0  0.46 0.04 0  0.47 0.04 0  0.48 0.04 0  0.49 0.04 0  0.5 0.04 0  0.51 0.04 0  0.52 0.04 0  0.53 0.04 0  0.54 0.04 0  0.55 0.04 0  0.5600000000000001 0.04 0  0.57 0.04 0  0.58 0.04 0  0.59 0.04 0  0.6 0.04 0  0.61 0.04 0  0.62 0.04 0  0.63 0.04 0  0.64 0.04 0  0.65 0.04 0  0.66 0.04 0  0.67 0.04 0  0.68 0.04 0  0.6899999999999999 0.04 0  0.7 0.04 0  0.71 0.04 0  0.72 0.04 0  0.73 0.04 0  0.74 0.04 0  0.75 0.04 0  0.76 0.04 0  0.77 0.04 0  0.78 0.04 0  0.79 0.04 0  0.8 0.04 0  0.8100000000000001 0.04 0  0.82 0.04 0  0.83 0.04 0  0.84 0.04 0  0.85 0.04 0  0.86 0.04 0  0.87 0.04 0  0.88 0.04 0  0.89 0.04 0  0.9 0.04 0  0.91 0.04 0  0.92 0.04 0  0.93 0.04 0  0.9399999999999999 0.04 0  0.95 0.04 0  0.96 0.04 0  0.97 0.04 0  0.98 0.04 0  0.99 0.04 0  1 0.04 0  0 0.05 0  0.01 0.05 0  0.02 0.05 0  0.03 0.05 0  0.04 0.05 0  0.05 0.05 0  0.06 0.05 0  0.07000000000000001 0.05 0  0.08 0.05 0  0.09 0.05 0  0.1 0.05 0  0.11 0.05 0  0.12 0.05 0  0.13 0.05 0  0.14 0.05 0  0.15 0.05 0  0.16 0.05 0  0.17 0.05 0  0.18 0.05 0  0.19 0.05 0  0.2 0.05 0  0.21 0.05 0  0.22 0.05 0  0.23 0.05 0  0.24 0.05 0  0.25 0.05 0  0.26 0.05 0  0.27 0.05 0  0.28 0.05 0  0.29 0.05 0  0.3 0.05 0  0.31 0.05 0  0.32 0.05 0  0.33 0.05 0  0.34 0.05 0  0.35 0.05 0  0.36 0.05 0  0.37 0.05 0  0.38 0.05 0  0.39 0.05 0  0.4 0.05 0  0.41 0.05 0  0.42 0.05 0  0.43 0.05 0  0.44 0.05 0  0.45 0.05 0  0.46 0.05 0  0.47 0.05 0  0.48 0.05 0  0.49 0.05 0  0.5 0.05 0  0.51 0.05 0  0.52 0.05 0  0.53 0.05 0  0.54 0.05 0  0.55 0.05 0  0.5600000000000001 0.05 0  0.57 0.05 0  0.58 0.05 0  0.59 0.05 0  0.6 0.05 0  0.61 0.05 0  0.62 0.05 0  0.63 0.05 0  0.64 0.05 0  0.65 0.05 0  0.66 0.05 0  0.67 0.05 0  0.68 0.05 0  0.6899999999999999 0.05 0  0.7 0.05 0  0.71 0.05 0  0.72 0.05 0  0.73 0.05 0  0.74 0.05 0  0.75 0.05 0  0.76 0.05 0  0.77 0.05 0  0.78 0.05 0  0.79 0.05 0  0.8 0.05 0  0.8100000000000001 0.05 0  0.82 0.05 0  0.83 0.05 0  0.84 0.05 0  0.85 0.05 0  0.86 0.05 0  0.87 0.05 0  0.88 0.05 0  0.89 0.05 0  0.9 0.05 0  0.91 0.05 0  0.92 0.05 0  0.93 0.05 0  0.9399999999999999 0.05 0  0.95 0.05 0  0.96 0.05 0  0.97 0.05 0  0.98 0.05 0  0.99 0.05 0  1 0.05 0  0 0.06 0  0.01 0.06 0  0.02 0.06 0  0.03 0.06 0  0.04 0.06 0  0.05 0.06 0  0.06 0.06 0  0.07000000000000001 0.06 0  0.08 0.06 0  0.09 0.06 0  0.1 0.06 0  0.11 0.06 0  0.12 0.06 0  0.13 0.06 0  0.14 0.06 0  0.15 0.06 0  0.16 0.06 0  0.17 0.06 0  0.18 0.06 0  0.19 0.06 0  0.2 0.06 0  0.21 0.06 0  0.22 0.06 0  0.23 0.06 0  0.24 0.06 0  0.25 0.06 0  0.26 0.06 0  0.27 0.06 0  0.28 0.06 0  0.29 0.06 0  0.3 0.06 0  0.31 0.06 0  0.32 0.06 0  0.33 0.06 0  0.34 0.06 0  0.35 0.06 0  0.36 0.06 0  0.37 0.06 0  0.38 0.06 0  0.39 0.06 0  0.4 0.06 0  0.41 0.06 0  0.42 0.06 0  0.43 0.06 0  0.44 0.06 0  0.45 0.06 0  0.46 0.06 0  0.47 0.06 0  0.48 0.06 0  0.49 0.06 0  0.5 0.06 0  0.51 0.06 0  0.52 0.06 0  0.53 0.06 0  0.54 0.06 0  0.55 0.06 0  0.5600000000000001 0.06 0  0.57 0.06 0  0.58 0.06 0  0.59 0.06 0  0.6 0.06 0  0.61 0.06 0  0.62 0.06 0  0.63 0.06 0  0.64 0.06 0  0.65 0.06 0  0.66 0.06 0  0.67 0.06 0  0.68 0.06 0  0.6899999999999999 0.06 0  0.7 0.06 0  0.71 0.06 0  0.72 0.06 0  0.73 0.06 0  0.74 0.06 0  0.75 0.06 0  0.76 0.06 0  0.77 0.06 0  0.78 0.06 0  0.79 0.06 0  0.8 0.06 0  0.8100000000000001 0.06 0  0.82 0.06 0  0.83 0.06 0  0.84 0.06 0  0.85 0.06 0  0.86 0.06 0  0.87 0.06 0  0.88 0.06 0  0.89 0.06 0  0.9 0.06 0  0.91 0.06 0  0.92 0.06 0  0.93 0.06 0  0.9399999999999999 0.06 0  0.95 0.06 0  0.96 0.06 0  0.97 0.06 0  0.98 0.06 0  0.99 0.06 0  1 0.06 0  0 0.07000000000000001 0  0.01 0.07000000000000001 0  0.02 0.07000000000000001 0  0.03 0.07000000000000001 0  0.04 0.07000000000000001 0  0.05 0.07000000000000001 0  0.06 0.07000000000000001 0  0.07000000000000001 0.07000000000000001 0  0.08 0.07000000000000001 0  0.09 0.07000000000000001 0  0.1 0.07000000000000001 0  0.11 0.07000000000000001 0  0.12 0.07000000000000001 0  0.13 0.07000000000000001 0  0.14 0.07000000000000001 0  0.15 0.07000000000000001 0  0.16 0.07000000000000001 0  0.17 0.0700
[...]
<PointData  Scalars="Indicator Function"> 
<DataArray  type="Float64"  Name="Indicator Function"  format="ascii">-9.8363854125058347e-19  3.5597353228042587e-17  1.1615560775123361e-16  3.7808346704436261e-18  5.0248235892180878e-17  -1.6236470441186779e-18  -2.2798359389887824e-18  1.2586658560639394e-16  9.7133847990282437e-16  -1.4325876500916567e-18  4.4539186053837320e-16  8.4813647824270550e-16  -7.2575851029696197e-19  -6.9786469482959988e-18  5.9842741150023942e-16  -3.4423402804963855e-18  -1.0476436684500929e-17  1.1666817203456948e-15  -4.3913476354112221e-18  -5.3567405164767972e-18  2.8485121139290502e-15  -5.7326820491580582e-18  -6.5495208445901810e-18  2.1158050422056244e-15  -2.7073198357205101e-19  -4.3919927665434997e-18  -1.9178971124388242e-18  -6.5367808296484421e-19  1.2608587632315736e-15  -3.0101227153853157e-18  -2.9615044472540737e-18  -2.8497511599902500e-18  -2.7599809638009657e-18  -7.1965329755042706e-18  2.9221165476680539e-18  -3.3478454433929590e-18  -7.2619623071348433e-18  -1.1611502756831309e-17  -1.1427140953131616e-17  -1.6320048044149230e-17  1.2424312584817728e-15  -2.7652578100460977e-18  -4.4961833856007031e-18  -2.6494123346632892e-18  -2.5524094764581361e-18  -2.2712012114602248e-18  2.3357606273124241e-16  -2.2328381575666066e-18  -4.3850716906344750e-19  -1.8224491727540294e-18  -1.2323159413892491e-18  0.0000000000000000e+00  -8.2238103155635866e-19  -1.9840288438793810e-18  1.9259299443872359e-34  -1.0789646595788445e-18  4.9887610921356074e-16  -5.4261529550806980e-19  -7.0813141561296133e-19  -1.3310976199882694e-18  1.9259299443872359e-34  -1.1913329327804759e-18  -6.5258710954347564e-19  -1.0662818775332188e-20  -2.4074124304840448e-35  -5.2207193254421269e-19  -1.8105255783206326e-19  -3.0179206744105871e-20  8.2133749023490292e-17  -6.1997026261897732e-19  -4.8148248609680896e-35  -6.0287095948862923e-20  -8.3599211311519586e-20  -9.3941804394251148e-19  -1.8067826468128874e-18  -6.3734739474129370e-19  -3.1994462425433742e-19  -6.9990847621849332e-19  -4.3603538858934445e-19  -1.6253123434342683e-19  -1.8816864202439544e-19  2.7357159522690621e-16  -2.5948925199416554e-19  -9.8775585177172412e-19  -6.0797350302424792e-19  -3.0309604375404972e-19  1.2037062152420224e-35  -1.7928737028392540e-19  -3.5192638571674103e-19  -1.8891235945843377e-20  -5.7588732189520876e-20  1.8055593228630336e-35  -1.1353268052788021e-19  1.0633187535771386e-16  -5.0183403636434601e-20  -1.6830623488849827e-20  -9.6938328645960310e-21  -1.3267316933605444e-20  -1.4169957996631215e-20  1.5046327690525280e-36  1.8055593228630336e-35  1.5407439555097887e-33  1.7719656671373582e-02  1.0945634579453047e-01  3.1458253951228116e-02  4.2155894009732374e-02  4.6622175056714565e-02  2.9249024891496337e-02  4.1069873141182975e-02  1.2570830921960074e-01  1.2725887016934048e-01  2.5807204828513272e-02  1.8532537538087082e-01  2.6148206052274935e-02  1.3363808368413418e-01  5.8897085341517073e-02  2.1970971346573051e-01  1.8385820755825846e-01  1.5553511706379167e-01  1.5821497259593817e-01  1.9299691675140082e-01  2.4898204278145854e-02  2.0654163792337404e-01  9.1395656906385223e-02  7.2287850087413716e-02  9.7541476826588924e-03  1.5823821589455375e-01  6.9099525767315470e-02  2.3551234966885243e-02  1.9136930103115485e-02  2.2202653710403173e-02  4.3124223302193503e-02  1.0267310609784587e-01  4.2798027536566439e-02  2.8320383192211529e-02  1.1548102131125655e-01  1.1418899768303294e-01  3.2149231239176563e-03  1.3081988296156424e-01  3.1152728166062416e-01  3.1727034792553138e-01  2.0874503660819016e-01  8.1168074121696090e-02  4.9814456171627851e-02  1.1830861762990483e-01  9.1960242936590275e-02  8.1828647436928012e-02  4.3156228475037577e-02  2.2656009210626042e-02  4.3160163740796502e-02  2.1429649331116706e-02  2.2115500995708508e-02  2.2199430457773384e-02  2.9629399258190251e-02  4.5149418964519052e-02  1.3166376765690442e-02  3.3273022402747848e-02  4.5877464832043635e-02  1.9549776341245394e-02  2.5513123035870982e-02  3.0159082126129694e-02  8.8993819184268533e-03  8.2422036361005490e-03  1.7340044390527130e-02  3.0859420582035816e-03  1.9208426665322007e-04  3.4942901115524987e-03  7.6576667876905938e-03  1.0873205139765745e-03  1.9529732113490298e-03  9.4494007417108474e-03  8.0375174219886186e-03  3.7381808471366753e-03  3.0119790152882140e-03  7.5672112671353103e-03  2.5393953199344635e-02  2.7592700675378778e-02  9.4248298751396960e-03  5.7636099622841086e-03  1.2258197479494365e-02  8.7419996296042562e-03  6.7794898088312031e-03  8.4856668079566445e-04  2.8948127037914623e-03  9.1410271306009028e-03  1.5308916982258411e-02  1.1507352414598070e-02  6.6319231308003303e-03  2.2121566429912885e-03  5.4006299760771216e-03  3.6394271702644781e-03  3.4031425266507618e-04  8.6726924498532331e-04  1.0204250546464329e-03  2.0458514334748680e-03  1.2363749936035683e-03  9.6899658934327217e-04  3.4925713661429231e-04  1.9326345468371759e-04  4.4473677806571059e-04  2.5158053066242367e-04  -2.8359178667234676e-21  2.4074124304840448e-33  1.6250670892285407e-02  3.1198600530244616e-02  4.5292267524902272e-02  2.3248376240741508e-02  8.9121624227061935e-02  3.5214176356296839e-02  1.1615710829860629e-01  3.2020879558918608e-02  9.8772405328015886e-02  1.6230367645272376e-01  4.5916290256601315e-02  1.5826065723084343e-02  2.5404582071196713e-01  2.1006128507646696e-01  3.3665477425474338e-01  1.0910458838760782e-01  2.3147726816018241e-01  2.2891548934008233e-02  1.2692587615775627e-01  6.8002931630481336e-02  2.5508282761454343e-01  2.5893572341648442e-02  1.2919564893992500e-01  7.2963411853800467e-02  1.6111593456470081e-02  2.5612896115906145e-02  5.5557472011092103e-02  2.4872183053631629e-02  3.3472301903871758e-02  1.7260396069284167e-01  7.1165288671977536e-02  1.4661157223489538e-01  7.7226461127776133e-02  1.7967736189399042e-01  6.1041716166267218e-02  9.9655252844370296e-02  1.2272990355158851e-01  2.3661821402899949e-01  3.0392763135540135e-01  3.8027703217112219e-01  1.5256385086812355e-01  6.6402981686815687e-02  7.9765374674416842e-02  8.8773277571259010e-02  3.5696838773377877e-02  3.5968245441435079e-02  8.1428532144389200e-03  4.4748944305396943e-02  9.1529186783185570e-03  5.7784233332746120e-02  4.1232679359065771e-02  4.0883005009715563e-03  2.9639426898422083e-02  7.6710204830121295e-02  3.6060075802795727e-03  6.4945168211688453e-03  1.8428180724937980e-02  4.3091866701324508e-03  1.1234128423418987e-02  4.3658252527494661e-02  1.0603477495845141e-02  2.5918950655417147e-02  8.9519636811172653e-03  2.1688118069628313e-03  1.6997619629606365e-03  1.0409017657842782e-02  2.4590803836267747e-03  2.1867592028971127e-03  8.6776012638776177e-03  1.0964850943765612e-02  4.5809763637067380e-03  4.5713521476952439e-03  7.2089576080247575e-04  2.0054965767764582e-02  3.4152776511398301e-02  1.8780363112454977e-02  4.2583976835302007e-05  1.1665039567612874e-02  1.1528784315065276e-02  8.0404299759511341e-03  4.7563392655881062e-03  6.4453210132550216e-03  4.5996639441584202e-03  1.5857920886433830e-02  1.4288828902012723e-02  1.0147026141913101e-02  2.7935663157967745e-03  4.7483828444248848e-03  5.6348607738584142e-03  9.6271115116420972e-04  1.4284582869245265e-03  3.6438547515265063e-04  2.7075642586836032e-03  1.2743057289281978e-03  1.6772770444635490e-03  5.8261519593091513e-04  5.8678200933118468e-05  4.9494176505171625e-04  6.0012839379851031e-04  1.4991218111844472e-19  4.2370458776519189e-33  8.4081950678375594e-02  6.6986672029109753e-02  1.9994149037695946e-01  5.5546350429168230e-02  2.6050889337683276e-03  1.0697593602328707e-01  1.4042152714856104e-01  9.4748810161901259e-02  1.8881951519689080e-01  3.4836117296658126e-01  2.0513794161672158e-01  2.6539629744805543e-01  1.8864080684716930e-01  1.2822759973095862e-01  1.0471976626315582e-01  3.7650742981690727e-01  1.9313946738969445e-01  2.0718649948651183e-01  1.3571590869431224e-01  3.7859115240201890e-01  2.7820692680955950e-01  4.1507369570948760e-01  2.5929891483100109e-01  3.8537573441392255e-02  4.5282820694953312e-02  2.3722577267095238e-01  2.5696986128761218e-01  1.2566907642719158e-01  4.6015662207003746e-02  2.8800058780455790e-02  9.7123075904386236e-02  1.4601390730927730e-01  1.1694378613137821e-01  6.4322870904044330e-02  1.8597759051657650e-01  1.3319471161776050e-01  8.8375589277338781e-03  1.6983217130037745e-01  3.9214703725742861e-01  2.8678252604697418e-01  2.0581733763650448e-01  1.1212860173498522e-01  8.0369831472339420e-02  1.5061790478293516e-01  8.1734616369914692e-02  1.6193994962563441e-01  1.5236721804903691e-01  9.7352269801782562e-02  9.1061545429427154e-02  3.4664941673027186e-03  4.5759804834112953e-02  5.2311036366377704e-02  2.3315997991097719e-02  7.1271324867902580e-02  9.0225074719657503e-03  5.6557845984719898e-02  8.9134400124961419e-02  6.4912143545768089e-02  6.2859757793975443e-02  5.9344917306038081e-02  2.3696591795442754e-03  6.9693058032631629e-03  2.6712595590490298e-02  4.4471200727807013e-03  1.2292050507850736e-03  2.9131049068796188e-03  1.1337998083712995e-02  5.3909421210154114e-03  3.8400169619801348e-03  1.2820305845514619e-02  7.3111181066514387e-03  2.8784551526698167e-03  5.3231740453040721e-03  9.9489703087281573e-03  3.1502774007568186e-02  2.9644170782513739e-02  4.9230550115045317e-03  6.6504130938351011e-03  1.3099536018150624e-02  7.5355389458251218e-03  8.0963695740209982e-03  2.5652689454012407e-03  4.6700622708610237e-03  1.3848451457170834e-02  1.6597346685453592e-02  1.0058033883283749e-02  7.1994893312644992e-03  9.9709826224696815e-04  7.6956665506048233e-03  2.9588669654402851e-03  1.6910191116883044e-03  5.9703288160913883e-04  1.0052007661370849e-03  3.2324195016444949e-03  9.2008690720425722e-04  1.4350536616159928e-03  4.3061022597473144e-04  1.5612158010873265e-04  4.2754371688174273e-04  -1.4444474582904269e-34  -7.0777925456230918e-33  8.1339726612255470e-02  6.9044480639255626e-02  9.0681313022525037e-02  4.8338866033282121e-02  5.5702416840928248e-02  1.1719496966426944e-01  8.4739680571392778e-02  1.2873659575953034e-01  3.2565945653242299e-03  2.8596097438092639e-02  1.0683935295230058e-01  1.1862570968393660e-01  1.3901326448653051e-01  2.9525384870921823e-01  4.6236908454280379e-01  2.3998193608087887e-01  1.1738406738955045e-02  2.5753354763944808e-01  3.9997654980025658e-02  2.6658704773235908e-01  2.8484145361618679e-01  1.7358380650073202e-01  5.0722943422591669e-03  2.1425380156642909e-01  1.2366166081992723e-01  8.0551116090974539e-02  1.5156228014483622e-01  9.8430218737949795e-03  2.8037460614125244e-02  7.2204367571103521e-03  1.9671275765413973e-01  1.5501998840893499e-01  1.9636204712278946e-01  2.3533116939962487e-01  1.3275759575128951e-01  5.9554846056733756e-03  1.3711420921093700e-01  1.3947263282225988e-01  2.0752386306277645e-01  3.4664976191969354e-01  4.0349522850319258e-01  7.2547246536751112e-02  8.1949070989516981e-02  3.5509925524721986e-02  1.0277080023810778e-01  5.6079479885762624e-02  1.1439905615307741e-01  6.1130412034622418e-02  1.7137283572418657e-02  1.5099161078995628e-02  5.8545038052105709e-02  5.1394584927833643e-02  1.1040935235780588e-02  4.9831789684297072e-02  1.2250205946357975e-01  3.8776844382797028e-02  1.6459914226690860e-02  4.5878581254614227e-02  3.6879320544939663e-02  4.2046557204956335e-02  7.3569390377588501e-02  3.4013579361048173e-02  3.6382800849951012e-02  8.1740870848656996e-03  7.6343192031693664e-03  5.2348564853603504e-03  1.2851678806662315e-02  2.2733840156096159e-03  5.3562893369968464e-03  1.1726113941149179e-02  1.2004661148314432e-02  2.5361761687406766e-03  5.1768946813893022e-03  1.2528834670825276e-03  2.2445360923324019e-02  3.7240792537815266e-02  1.5720635675545547e-02  3.5205857845980698e-03  1.1538124469126203e-02  1.0565990790065122e-02  6.5187574402207548e-03  5.6526770866480898e-03  9.7707686427718349e-03  5.5738247054368173e-03  1.8545901588757085e-02  1.2858759214544694e-02  8.4710241142575190e-03  1.9530300790344373e-03  4.7365970410893988e-03  6.6946943201450755e-03  3.1404754448373877e-04  2.2334827310530234e-03  2.5005581451051367e-04  3.2620340505498547e-03  1.5134813783484215e-03  1.9138413788609883e-03  7.9094885629220899e-04  3.3056795962815502e-04  1.9279993269571524e-04  1.5217530754692189e-20  -7.8607642765636444e-18  2.4489014843344070e-01  1.7641581426046588e-01  2.3176404642921911e-02  2.3987152541098769e-01  1.8734343569399051e-01  2.9083379380752752e-02  4.8457472245224335e-02  1.6941424236708469e-01  2.0300572820089532e-01  1.6546077872485515e-01  4.0190887762904604e-01  4.0559200262600931e-01  1.2911540443013630e-01  2.8106662081519446e-01  1.1570854550025615e-01  4.0532845411747023e-02  5.3948926050067791e-01  1.0873819131518937e-01  1.9068137504673588e-01  2.6358512410640796e-02  2.8008265241020697e-01  3.5463327363472330e-01  5.5545306361598912e-01  3.5548297480457342e-01  1.9550821155294183e-02  1.2846133438412025e-01  1.4342498383659388e-01  3.1148787946944978e-01  2.2621924969517815e-01  4.8088579128784108e-02  3.9350790209189301e-02  2.1366747844527753e-01  2.0980113709333228e-01  5.2620517046831627e-02  3.8101135813209182e-02  2.6637305387028914e-01  9.1437251918285709e-02  1.1775232422725483e-02  2.1752601424998261e-01  3.7430593499556891e-01  2.4200313199195364e-01  2.6234828819604644e-01  1.0021873874259014e-01  1.4117218235135939e-01  1.3186894736698465e-01  5.1984356068262641e-02  1.5875079821359428e-01  1.7225995979999087e-01  1.2488791414374921e-01  1.1713286913173447e-01  2.5517738489823191e-02  6.6027917042652970e-02  8.3286005535871191e-02  9.8822019462099201e-04  5.7516755186024088e-02  1.0322232995238727e-02  4.1855529459782104e-02  9.6388235788790882e-02  7.5633748240043916e-02  6.7387877559969320e-02  5.8297953123359829e-02  6.5711482329940301e-03  6.7314589512069605e-03  3.7637988765973858e-02  1.0084015154221007e-02  1.2110699763657890e-04  4.9519061639471810e-04  1.4889690409736901e-02  7.6941962499530005e-03  3.5255047694040722e-03  1.5768680426650212e-02  7.0088858151804902e-03  1.3046746307255144e-03  6.9857619209620636e-03  9.5666799089220936e-03  3.4241946477541266e-02  3.0997407536513893e-02  8.0620372185626348e-04  7.8101906418407132e-03  1.3023489771305298e-02  6.4987651366977192e-03  8.1925096815877122e-03  2.4453642863632363e-03  7.2710950455765651e-03  1.6570577494813801e-02  1.7545552459130715e-02  8.3275597933951100e-03  6.8377701998659874e-03  1.7420270031403144e-04  8.7748915873921054e-03  2.7595458295953811e-03  2.9105974581066763e-03  7.0571001758343408e-04  7.2798579525477230e-04  4.1963763630276018e-03  7.0028714064783134e-04  1.9884059315670001e-03  6.8233157603768673e-04  2.1561081978506118e-04  4.8148248609680896e-35  -1.3306709863036861e-18  2.1109660722040216e-01  9.2951303445661174e-02  7.7444772413369681e-02  2.0916697684378002e-01  7.4713999460999686e-02  5.8739054091279073e-02  6.7665632095030612e-02  1.7310794553977343e-01  4.8783327147892602e-02  4.0784464440667599e-02  2.0567414063397335e-02  6.4779942604051982e-02  5.8444993821586667e-02  2.4512062749004332e-01  8.6305513573966694e-02  4.7249286660373818e-01  4.5155582433662737e-02  7.9789765300118123e-02  2.8272288474891233e-01  1.2139623191592064e-01  1.9917974594852597e-01  4.5933570852735578e-01  2.6167600612774865e-02  1.0767337472064767e-01  3.4248585874399878e-01  1.5738750196010068e-01  6.9481759667620836e-03  2.1626495863443634e-01  1.7564456640426548e-01  2.0023698708016586e-02  9.0897163161886528e-03  1.2302849941602143e-01  1.3485166802391155e-01  1.8042839483040896e-01  3.1461564177067231e-01  2.7858538698786357e-02  3.3286160415040365e-02  1.5598992320128291e-01  1.3290356224916008e-01  2.3649379192204859e-01  4.0528086898531940e-01  3.4804160212796842e-01  3.9702862781517842e-02  4.8817682623485556e-02  4.1399235333718074e-02  1.3100967544394307e-01  3.8585182842411442e-02  1.6818534619809999e-01  1.4715386836779612e-01  3.9938184284849250e-02  4.7690067193723991e-02  3.4215711160732756e-02  3.3274268827841867e-02  1.2215758756539017e-02  3.9452729139068304e-02  1.3556505739350574e-01  5.6897690020848234e-02  2.8982676332328483e-02  7.1686017110935918e-02  6.7854808608791894e-02  6.6817341180895287e-02  9.1973869384151655e-02  4.3699748232158747e-02  3.6164127270515191e-02  1.2937712581433291e-02  1.3580023291029591e-02  6.4982798374247771e-03  1.2681270794961714e-02  4.3102325501629003e-03  7.8068362974075640e-03  1.3683144214000794e-02  1.3978113978865994e-02  1.4668266467937668e-03  4.6408367110041173e-03  2.8400188527167116e-03  2.3965207810570315e-02  3.9525199156272027e-02  1.4416865597595890e-02  7.7524385751714412e-03  1.1437494401408784e-02  1.0170205881844254e-02  5.4821475921186013e-03  6.5270110499626851e-03  1.0568322111871430e-02  5.2564725126298803e-03  2.1692039005970734e-02  1.2413790153334070e-02  6.8325489009818793e-03  2.1567196221605489e-03  4.3311158107384217e-03  7.9109499749477237e-03  1.2166203996163770e-03  3.1949266075164376e-03  4.8477090076310254e-04  3.3514523831553269e-03  2.3285759743537460e-03  1.8214839529703765e-03  1.2490884950593956e-03  6.2304518829866347e-04  -1.8055593228630336e-35  5.0074178554068132e-33  9.1558578386650671e-02  8.6713584176439207e-02  4.8443587332981805e-02  1.8918325076425771e-01  1.2745119645191297e-01  2.4182326159628467e-01  4.7767234982134176e-03  4.8860254107300230e-02  9.8697267484757101e-02  2.2032256680614717e-01  1.2692998283846765e-01  3.0570254204013686e-01  3.4968902118245371e-01  3.1855352874634681e-02  1.3021764849301529e-01  1.8194757218954863e-01  1.8185350473232459e-01  4.8154808582071101e-01  2.5670618752111303e-02  1.4598741940225574e-01  3.7311619808240097e-02  1.1060559698835631e-01  1.6389792442889636e-01  4.9945649940741621e-01  3.0254388889370792e-01  7.9940430580791214e-02  1.5055123300820042e-01  5.9145672381318834e-02  1.8427384403554470e-01  1.9723622344879327e-01  3.3634575338104260e-02  2.9254861302528985e-02  2.3641082289951393e-01  2.9045916871632210e-01  1.3307758887991589e-02  1.1158748329550541e-01  2.4516609530162151e-01  4.7242570147900460e-02  1.5833004686553215e-02  2.3921401155005667e-01  3.3377465683554625e-01  2.7949495045072664e-01  2.9122576908574505e-01  3.5410563792588660e-02  1.6023348717637015e-01  9.3844618230533777e-02  5.2526648295490058e-02  1.3139766481408541e-01  1.1043951469992799e-01  6.2213062627608860e-02  8.8704942485028027e-02  1.2594686376272713e-02  5.7688382935262149e-02  8.5549878685146699e-02  2.9243817272839373e-03  4.5047304214193666e-02  4.2486769093711879e-02  6.2813221929886769e-03  7.5859984403943953e-02  5.2165569904468009e-02  4.0021017330705989e-02  3.4701938490119585e-02  2.6965418988023012e-02  2.2426908419133560e-02  4.4608102425971172e-02  1.1231998616193393e-02  3.9932295902964507e-03  1.3172379788302614e-03  1.6413701900156532e-02  7.3838078711772320e-03  2.1282523125756249e-03  1.8413741381542059e-02  7.7699194961033434e-03  1.0208629044675799e-04  7.3149968771182025e-03  8.6074934190865440e-03  3.6426992208201524e-02  3.2297350239609689e-02  2.2194164115592668e-03  1.1049163808637722e-02  1.2809554786476928e-02  6.1978317798199872e-03  7.4869004489504952e-03  1.5262269961765179e-03  8.4461803300738842e-03  1.8064172264800688e-02  1.9860671807389214e-02  7.4319787455111915e-03  5.6159893601267687e-03  2.3602059739043582e-05  9.1578816083298289e-03  3.5614158797536220e-03  3.7086863945646462e-03  1.0713391638360332e-03  4.7523406668273897e-04  4.5319615793845214e-03  1.0671796254873053e-03  2.1749808352894695e-03  9.6711642082018205e-04  -7.3869303075866039e-20  -3.8518598887744717e-34  4.1861732874512281e-02  1.5633022008284460e-02  7.2039723888179877e-02  1.4972206203091656e-01  5.2678531156865875e-02  2.2677897390337642e-01  3.0278977412229010e-02  4.8341366326621919e-03  1.4151212413210987e-01  5.7634676824015903e-04  8.4133545128686107e-02  4.5566335679700649e-02  1.0032039828147189e-01  2.4270476257800208e-01  1.2709936110392553e-01  3.3001795017893298e-02  2.719