<?xml version="1.0"?>
<VTKFile type="UnstructuredGrid"  version="0.1"  >
<UnstructuredGrid>
<Piece  NumberOfPoints="10201" NumberOfCells="20000">
<Points>
<DataArray  type="Float64"  NumberOfComponents="3"  format="ascii">0 0 0  0.01 0 0  0.02 0 0  0.03 0 0  0.04 0 0  0.05 0 0  0.06 0 0  0.07000000000000001 0 0  0.08 0 0  0.09 0 0  0.1 0 0  0.11 0 0  0.12 0 0  0.13 0 0  0.14 0 0  0.15 0 0  0.16 0 0  0.17 0 0  0.18 0 0  0.19 0 0  0.2 0 0  0.21 0 0  0.22 0 0  0.23 0 0  0.24 0 0  0.25 0 0  0.26 0 0  0.27 0 0  0.28 0 0  0.29 0 0  0.3 0 0  0.31 0 0  0.32 0 0  0.33 0 0  0.34 0 0  0.35 0 0  0.36 0 0  0.37 0 0  0.38 0 0  0.39 0 0  0.4 0 0  0.41 0 0  0.42 0 0  0.43 0 0  0.44 0 0  0.45 0 0  0.46 0 0  0.47 0 0  0.48 0 0  0.49 0 0  0.5 0 0  0.51 0 0  0.52 0 0  0.53 0 0  0.54 0 0  0.55 0 0  0.5600000000000001 0 0  0.57 0 0  0.58 0 0  0.59 0 0  0.6 0 0  0.61 0 0  0.62 0 0  0.63 0 0  0.64 0 0  0.65 0 0  0.66 0 0  0.67 0 0  0.68 0 0  0.6899999999999999 0 0  0.7 0 0  0.71 0 0  0.72 0 0  0.73 0 0  0.74 0 0  0.75 0 0  0.76 0 0  0.77 0 0  0.78 0 0  0.79 0 0  0.8 0 0  0.8100000000000001 0 0  0.82 0 0  0.83 0 0  0.84 0 0  0.85 0 0  0.86 0 0  0.87 0 0  0.88 0 0  0.89 0 0  0.9 0 0  0.91 0 0  0.92 0 0  0.93 0 0  0.9399999999999999 0 0  0.95 0 0  0.96 0 0  0.97 0 0  0.98 0 0  0.99 0 0  1 0 0  0 0.01 0  0.01 0.01 0  0.02 0.01 0  0.03 0.01 0  0.04 0.01 0  0.05 0.01 0  0.06 0.01 0  0.07000000000000001 0.01 0  0.08 0.01 0  0.09 0.01 0  0.1 0.01 0  0.11 0.01 0  0.12 0.01 0  0.13 0.01 0  0.14 0.01 0  0.15 0.01 0  0.16 0.01 0  0.17 0.01 0  0.18 0.01 0  0.19 0.01 0  0.2 0.01 0  0.21 0.01 0  0.22 0.01 0  0.23 0.01 0  0.24 0.01 0  0.25 0.01 0  0.26 0.01 0  0.27 0.01 0  0.28 0.01 0  0.29 0.01 0  0.3 0.01 0  0.31 0.01 0  0.32 0.01 0  0.33 0.01 0  0.34 0.01 0  0.35 0.01 0  0.36 0.01 0  0.37 0.01 0  0.38 0.01 0  0.39 0.01 0  0.4 0.01 0  0.41 0.01 0  0.42 0.01 0  0.43 0.01 0  0.44 0.01 0  0.45 0.01 0  0.46 0.01 0  0.47 0.01 0  0.48 0.01 0  0.49 0.01 0  0.5 0.01 0  0.51 0.01 0  0.52 0.01 0  0.53 0.01 0  0.54 0.01 0  0.55 0.01 0  0.5600000000000001 0.01 0  0.57 0.01 0  0.58 0.01 0  0.59 0.01 0  0.6 0.01 0  0.61 0.01 0  0.62 0.01 0  0.63 0.01 0  0.64 0.01 0  0.65 0.01 0  0.66 0.01 0  0.67 0.01 0  0.68 0.01 0  0.6899999999999999 0.01 0  0.7 0.01 0  0.71 0.01 0  0.72 0.01 0  0.73 0.01 0  0.74 0.01 0  0.75 0.01 0  0.76 0.01 0  0.77 0.01 0  0.78 0.01 0  0.79 0.01 0  0.8 0.01 0  0.8100000000000001 0.01 0  0.82 0.01 0  0.83 0.01 0  0.84 0.01 0  0.85 0.01 0  0.86 0.01 0  0.87 0.01 0  0.88 0.01 0  0.89 0.01 0  0.9 0.01 0  0.91 0.01 0  0.92 0.01 0  0.93 0.01 0  0.9399999999999999 0.01 0  0.95 0.01 0  0.96 0.01 0  0.97 0.01 0  0.98 0.01 0  0.99 0.01 0  1 0.01 0  0 0.02 0  0.01 0.02 0  0.02 0.02 0  0.03 0.02 0  0.04 0.02 0  0.05 0.02 0  0.06 0.02 0  0.07000000000000001 0.02 0  0.08 0.02 0  0.09 0.02 0  0.1 0.02 0  0.11 0.02 0  0.12 0.02 0  0.13 0.02 0  0.14 0.02 0  0.15 0.02 0  0.16 0.02 0  0.17 0.02 0  0.18 0.02 0  0.19 0.02 0  0.2 0.02 0  0.21 0.02 0  0.22 0.02 0  0.23 0.02 0  0.24 0.02 0  0.25 0.02 0  0.26 0.02 0  0.27 0.02 0  0.28 0.02 0  0.29 0.02 0  0.3 0.02 0  0.31 0.02 0  0.32 0.02 0  0.33 0.02 0  0.34 0.02 0  0.35 0.02 0  0.36 0.02 0  0.37 0.02 0  0.38 0.02 0  0.39 0.02 0  0.4 0.02 0  0.41 0.02 0  0.42 0.02 0  0.43 0.02 0  0.44 0.02 0  0.45 0.02 0  0.46 0.02 0  0.47 0.02 0  0.48 0.02 0  0.49 0.02 0  0.5 0.02 0  0.51 0.02 0  0.52 0.02 0  0.53 0.02 0  0.54 0.02 0  0.55 0.02 0  0.5600000000000001 0.02 0  0.57 0.02 0  0.58 0.02 0  0.59 0.02 0  0.6 0.02 0  0.61 0.02 0  0.62 0.02 0  0.63 0.02 0  0.64 0.02 0  0.65 0.02 0  0.66 0.02 0  0.67 0.02 0  0.68 0.02 0  0.6899999999999999 0.02 0  0.7 0.02 0  0.71 0.02 0  0.72 0.02 0  0.73 0.02 0  0.74 0.02 0  0.75 0.02 0  0.76 0.02 0  0.77 0.02 0  0.78 0.02 0  0.79 0.02 0  0.8 0.02 0  0.8100000000000001 0.02 0  0.82 0.02 0  0.83 0.02 0  0.84 0.02 0  0.85 0.02 0  0.86 0.02 0  0.87 0.02 0  0.88 0.02 0  0.89 0.02 0  0.9 0.02 0  0.91 0.02 0  0.92 0.02 0  0.93 0.02 0  0.9399999999999999 0.02 0  0.95 0.02 0  0.96 0.02 0  0.97 0.02 0  0.98 0.02 0  0.99 0.02 0  1 0.02 0  0 0.03 0  0.01 0.03 0  0.02 0.03 0  0.03 0.03 0  0.04 0.03 0  0.05 0.03 0  0.06 0.03 0  0.07000000000000001 0.03 0  0.08 0.03 0  0.09 0.03 0  0.1 0.03 0  0.11 0.03 0  0.12 0.03 0  0.13 0.03 0  0.14 0.03 0  0.15 0.03 0  0.16 0.03 0  0.17 0.03 0  0.18 0.03 0  0.19 0.03 0  0.2 0.03 0  0.21 0.03 0  0.22 0.03 0  0.23 0.03 0  0.24 0.03 0  0.25 0.03 0  0.26 0.03 0  0.27 0.03 0  0.28 0.03 0  0.29 0.03 0  0.3 0.03 0  0.31 0.03 0  0.32 0.03 0  0.33 0.03 0  0.34 0.03 0  0.35 0.03 0  0.36 0.03 0  0.37 0.03 0  0.38 0.03 0  0.39 0.03 0  0.4 0.03 0  0.41 0.03 0  0.42 0.03 0  0.43 0.03 0  0.44 0.03 0  0.45 0.03 0  0.46 0.03 0  0.47 0.03 0  0.48 0.03 0  0.49 0.03 0  0.5 0.03 0  0.51 0.03 0  0.52 0.03 0  0.53 0.03 0  0.54 0.03 0  0.55 0.03 0  0.5600000000000001 0.03 0  0.57 0.03 0  0.58 0.03 0  0.59 0.03 0  0.6 0.03 0  0.61 0.03 0  0.62 0.03 0  0.63 0.03 0  0.64 0.03 0  0.65 0.03 0  0.66 0.03 0  0.67 0.03 0  0.68 0.03 0  0.6899999999999999 0.03 0  0.7 0.03 0  0.71 0.03 0  0.72 0.03 0  0.73 0.03 0  0.74 0.03 0  0.75 0.03 0  0.76 0.03 0  0.77 0.03 0  0.78 0.03 0  0.79 0.03 0  0.8 0.03 0  0.8100000000000001 0.03 0  0.82 0.03 0  0.83 0.03 0  0.84 0.03 0  0.85 0.03 0  0.86 0.03 0  0.87 0.03 0  0.88 0.03 0  0.89 0.03 0  0.9 0.03 0  0.91 0.03 0  0.92 0.03 0  0.93 0.03 0  0.9399999999999999 0.03 0  0.95 0.03 0  0.96 0.03 0  0.97 0.03 0  0.98 0.03 0  0.99 0.03 0  1 0.03 0  0 0.04 0  0.01 0.04 0  0.02 0.04 0  0.03 0.04 0  0.04 0.04 0  0.05 0.04 0  0.06 0.04 0  0.07000000000000001 0.04 0  0.08 0.04 0  0.09 0.04 0  0.1 0.04 0  0.11 0.04 0  0.12 0.04 0  0.13 0.04 0  0.14 0.04 0  0.15 0.04 0  0.16 0.04 0  0.17 0.04 0  0.18 0.04 0  0.19 0.04 0  0.2 0.04 0  0.21 0.04 0  0.22 0.04 0  0.23 0.04 0  0.24 0.04 0  0.25 0.04 0  0.26 0.04 0  0.27 0.04 0  0.28 0.04 0  0.29 0.04 0  0.3 0.04 0  0.31 0.04 0  0.32 0.04 0  0.33 0.04 0  0.34 0.04 0  0.35 0.04 0  0.36 0.04 0  0.37 0.04 0  0.38 0.04 0  0.39 0.04 0  0.4 0.04 0  0.41 0.04 0  0.42 0.04 0  0.43 0.04 0  0.44 0.04 0  0.45 0.04 0  0.46 0.04 0  0.47 0.04 0  0.48 0.04 0  0.49 0.04 0  0.5 0.04 0  0.51 0.04 0  0.52 0.04 0  0.53 0.04 0  0.54 0.04 0  0.55 0.04 0  0.5600000000000001 0.04 0  0.57 0.04 0  0.58 0.04 0  0.59 0.04 0  0.6 0.04 0  0.61 0.04 0  0.62 0.04 0  0.63 0.04 0  0.64 0.04 0  0.65 0.04 0  0.66 0.04 0  0.67 0.04 0  0.68 0.04 0  0.6899999999999999 0.04 0  0.7 0.04 0  0.71 0.04 0  0.72 0.04 0  0.73 0.04 0  0.74 0.04 0  0.75 0.04 0  0.76 0.04 0  0.77 0.04 0  0.78 0.04 0  0.79 0.04 0  0.8 0.04 0  0.8100000000000001 0.04 0  0.82 0.04 0  0.83 0.04 0  0.84 0.04 0  0.85 0.04 0  0.86 0.04 0  0.87 0.04 0  0.88 0.04 0  0.89 0.04 0  0.9 0.04 0  0.91 0.04 0  0.92 0.04 0  0.93 0.04 0  0.9399999999999999 0.04 0  0.95 0.04 0  0.96 0.04 0  0.97 0.04 0  0.98 0.04 0  0.99 0.04 0  1 0.04 0  0 0.05 0  0.01 0.05 0  0.02 0.05 0  0.03 0.05 0  0.04 0.05 0  0.05 0.05 0  0.06 0.05 0  0.07000000000000001 0.05 0  0.08 0.05 0  0.09 0.05 0  0.1 0.05 0  0.11 0.05 0  0.12 0.05 0  0.13 0.05 0  0.14 0.05 0  0.15 0.05 0  0.16 0.05 0  0.17 0.05 0  0.18 0.05 0  0.19 0.05 0  0.2 0.05 0  0.21 0.05 0  0.22 0.05 0  0.23 0.05 0  0.24 0.05 0  0.25 0.05 0  0.26 0.05 0  0.27 0.05 0  0.28 0.05 0  0.29 0.05 0  0.3 0.05 0  0.31 0.05 0  0.32 0.05 0  0.33 0.05 0  0.34 0.05 0  0.35 0.05 0  0.36 0.05 0  0.37 0.05 0  0.38 0.05 0  0.39 0.05 0  0.4 0.05 0  0.41 0.05 0  0.42 0.05 0  0.43 0.05 0  0.44 0.05 0  0.45 0.05 0  0.46 0.05 0  0.47 0.05 0  0.48 0.05 0  0.49 0.05 0  0.5 0.05 0  0.51 0.05 0  0.52 0.05 0  0.53 0.05 0  0.54 0.05 0  0.55 0.05 0  0.5600000000000001 0.05 0  0.57 0.05 0  0.58 0.05 0  0.59 0.05 0  0.6 0.05 0  0.61 0.05 0  0.62 0.05 0  0.63 0.05 0  0.64 0.05 0  0.65 0.05 0  0.66 0.05 0  0.67 0.05 0  0.68 0.05 0  0.6899999999999999 0.05 0  0.7 0.05 0  0.71 0.05 0  0.72 0.05 0  0.73 0.05 0  0.74 0.05 0  0.75 0.05 0  0.76 0.05 0  0.77 0.05 0  0.78 0.05 0  0.79 0.05 0  0.8 0.05 0  0.8100000000000001 0.05 0  0.82 0.05 0  0.83 0.05 0  0.84 0.05 0  0.85 0.05 0  0.86 0.05 0  0.87 0.05 0  0.88 0.05 0  0.89 0.05 0  0.9 0.05 0  0.91 0.05 0  0.92 0.05 0  0.93 0.05 0  0.9399999999999999 0.05 0  0.95 0.05 0  0.96 0.05 0  0.97 0.05 0  0.98 0.05 0  0.99 0.05 0  1 0.05 0  0 0.06 0  0.01 0.06 0  0.02 0.06 0  0.03 0.06 0  0.04 0.06 0  0.05 0.06 0  0.06 0.06 0  0.07000000000000001 0.06 0  0.08 0.06 0  0.09 0.06 0  0.1 0.06 0  0.11 0.06 0  0.12 0.06 0  0.13 0.06 0  0.14 0.06 0  0.15 0.06 0  0.16 0.06 0  0.17 0.06 0  0.18 0.06 0  0.19 0.06 0  0.2 0.06 0  0.21 0.06 0  0.22 0.06 0  0.23 0.06 0  0.24 0.06 0  0.25 0.06 0  0.26 0.06 0  0.27 0.06 0  0.28 0.06 0  0.29 0.06 0  0.3 0.06 0  0.31 0.06 0  0.32 0.06 0  0.33 0.06 0  0.34 0.06 0  0.35 0.06 0  0.36 0.06 0  0.37 0.06 0  0.38 0.06 0  0.39 0.06 0  0.4 0.06 0  0.41 0.06 0  0.42 0.06 0  0.43 0.06 0  0.44 0.06 0  0.45 0.06 0  0.46 0.06 0  0.47 0.06 0  0.48 0.06 0  0.49 0.06 0  0.5 0.06 0  0.51 0.06 0  0.52 0.06 0  0.53 0.06 0  0.54 0.06 0  0.55 0.06 0  0.5600000000000001 0.06 0  0.57 0.06 0  0.58 0.06 0  0.59 0.06 0  0.6 0.06 0  0.61 0.06 0  0.62 0.06 0  0.63 0.06 0  0.64 0.06 0  0.65 0.06 0  0.66 0.06 0  0.67 0.06 0  0.68 0.06 0  0.6899999999999999 0.06 0  0.7 0.06 0  0.71 0.06 0  0.72 0.06 0  0.73 0.06 0  0.74 0.06 0  0.75 0.06 0  0.76 0.06 0  0.77 0.06 0  0.78 0.06 0  0.79 0.06 0  0.8 0.06 0  0.8100000000000001 0.06 0  0.82 0.06 0  0.83 0.06 0  0.84 0.06 0  0.85 0.06 0  0.86 0.06 0  0.87 0.06 0  0.88 0.06 0  0.89 0.06 0  0.9 0.06 0  0.91 0.06 0  0.92 0.06 0  0.93 0.06 0  0.9399999999999999 0.06 0  0.95 0.06 0  0.96 0.06 0  0.97 0.06 0  0.98 0.06 0  0.99 0.06 0  1 0.06 0  0 0.07000000000000001 0  0.01 0.07000000000000001 0  0.02 0.07000000000000001 0  0.03 0.07000000000000001 0  0.04 0.07000000000000001 0  0.05 0.07000000000000001 0  0.06 0.07000000000000001 0  0.07000000000000001 0.07000000000000001 0  0.08 0.07000000000000001 0  0.09 0.07000000000000001 0  0.1 0.07000000000000001 0  0.11 0.07000000000000001 0  0.12 0.07000000000000001 0  0.13 0.07000000000000001 0  0.14 0.07000000000000001 0  0.15 0.07000000000000001 0  0.16 0.07000000000000001 0  0.17 0.0700
[...]
<PointData  Scalars="Indicator Function"> 
<DataArray  type="Float64"  Name="Indicator Function"  format="ascii">-1.2261737840675660e-18  3.5337580213909177e-17  1.1594701942829844e-16  3.0408829717972253e-18  8.9782969077079946e-17  -1.3923806717859417e-18  -1.2064821540378299e-18  1.0743869280261046e-16  9.4200430215536199e-16  -1.0911642035247649e-18  4.5540989469702195e-16  6.3066891496284352e-16  -3.7013137493345291e-19  -5.1353076833392717e-18  3.4489209633130221e-16  -5.5098307914053889e-18  -1.0815837619865535e-17  8.6007009367393150e-16  -3.8742661647852569e-18  -4.6360701755525353e-18  2.4516018741291081e-15  -4.4263530560535436e-18  -3.6381848175321316e-18  1.7532066160419292e-15  -8.3588329595159927e-19  -3.5191778646384610e-18  -2.0226528531302448e-18  -9.3301934444608935e-19  1.0881541254089835e-15  -1.8683373663324297e-18  -2.5251404587673344e-18  -2.3267144665490420e-18  -2.6957882287441151e-18  -4.7347288622933901e-18  -1.9662209869744278e-17  -2.2556781035429213e-18  -5.9386946600816925e-18  -1.3737069411157122e-17  -1.4998583808408617e-17  -1.5185827181367287e-17  1.6021235289256951e-15  -1.0127853762118796e-18  -5.2569012587557273e-18  -4.4981975246167020e-18  -1.7600591111052757e-18  -1.7312399279554295e-18  3.1271816125644935e-16  -2.0312761440090326e-18  -8.2325836190917740e-21  -1.2200290050337062e-18  -5.4120361265931732e-19  9.6296497219361793e-35  -5.0368991692342328e-19  -1.2245035409621377e-18  0.0000000000000000e+00  -8.8897316588629448e-19  3.0839611981723192e-16  -6.7586778076326433e-19  -5.9486094063634197e-19  -5.3341932045231987e-19  -5.9266615060688442e-20  -7.7220716164361558e-19  -3.3971086769038384e-19  -4.8148248609680896e-35  -3.6550093196121916e-20  -2.7971421936250714e-19  -1.1531753671503856e-19  -1.4866018776591224e-20  4.8194396300349458e-17  -4.8209150367564359e-19  -3.8171668294464030e-20  -4.7317509667121003e-20  -6.6009153540425492e-20  -1.0553757447406983e-18  -1.6071675342426433e-18  -8.7358453128692028e-19  -1.3251557183730018e-19  -4.8188127916068317e-19  -5.3219523001306309e-19  -1.9712540732352442e-19  -1.7878591944306605e-19  2.6966976223498089e-16  -1.6191485064283260e-19  -7.7406314943690006e-19  -7.0460422208214510e-19  -3.1175021045901857e-19  -2.8951678460464173e-20  -1.4977788771551453e-19  -2.1004588402223685e-19  -2.0160380464700840e-20  -2.5574590672505782e-20  -3.0092655381050560e-36  -7.1200551624804891e-20  5.2547965965417400e-17  -3.4403139381962726e-20  -1.4680792393911692e-20  -3.2207604465351191e-21  -1.1896507414290794e-20  -1.1326228333861289e-20  0.0000000000000000e+00  9.0277966143151681e-36  1.5407439555097887e-33  2.2088783188072683e-02  1.0192304850728139e-01  3.1674718149190817e-02  4.1327631653846952e-02  4.1786769684996915e-02  2.5082900298452185e-02  2.1734050317415654e-02  9.6705980058118743e-02  1.0141261763562592e-01  1.9656666801576406e-02  1.5071892959812752e-01  1.3335388177827432e-02  1.3203322832186840e-01  2.6492864915544211e-02  1.6436114320655942e-01  1.4617165125094927e-01  1.2175498347263070e-01  1.3958514924848800e-01  1.6703203132065300e-01  4.9425087808464968e-02  1.5947617579082390e-01  8.6094630608142472e-02  2.2492395850099302e-02  1.5610085624056474e-02  1.2679174495869011e-01  7.2873749085257886e-02  3.3615564575814237e-02  1.8548596969611312e-02  2.0221875388030598e-02  2.3546036173253106e-02  8.3828723236382421e-02  6.9759017673965293e-02  1.3683494612784411e-02  7.8451545253307484e-02  8.1269368532669514e-02  1.0684256387591800e-02  1.0163988403904835e-01  2.4217318790743173e-01  2.4010773390963322e-01  1.5350967558645739e-01  7.2680519887643610e-02  1.8244719371656434e-02  8.5577554514394902e-02  6.3412812455390086e-02  6.2374491955434430e-02  5.7778764902829918e-02  2.0960947799747880e-02  3.6592217940982621e-02  7.6624288444533672e-03  1.8146874267577294e-02  9.7494575532162710e-03  1.8147341777332841e-02  3.4403869835316604e-02  4.8567598455054326e-03  2.8019647140175987e-02  2.8206702419967037e-02  2.4350703084777280e-02  2.1432124084696729e-02  1.9218456422570324e-02  2.1353048440226207e-03  7.7621236281339885e-03  1.0029785727657068e-02  1.1047940847479453e-03  1.3168558887872918e-03  1.7682625866636331e-03  4.1547521230330484e-03  5.3560477298178109e-04  2.6638455290018083e-03  7.0832816685124341e-03  5.1429476309922248e-03  2.5943777435546030e-03  2.3782303943016164e-03  6.5580976192584819e-03  1.9063239630647936e-02  1.9420536618024536e-02  6.7541039515484494e-03  2.3871883197890136e-03  7.4872072371649744e-03  5.8435733397182556e-03  5.5623390087739186e-03  4.3955129634458808e-04  1.1448853005129919e-04  7.8182127003126253e-03  1.0035175695304708e-02  7.9910147863784774e-03  5.1525430195854807e-03  2.8412155870026277e-03  3.6038061061159565e-03  1.9819472069950305e-03  1.7995862632564253e-04  3.7073155492857863e-04  6.7299336018921676e-04  1.2139372424118562e-03  7.4836192988070652e-04  6.3710081649278379e-04  2.3449616223750693e-04  5.8020062187460771e-05  1.8529839433831103e-04  1.1938469797557463e-04  3.3135910120100832e-21  -6.1751492878999734e-19  1.4149266431548990e-02  3.3704778631490476e-02  5.4442584815385560e-02  3.2937495424115802e-02  8.6871134506797537e-02  3.3853284025706344e-02  1.1068877944986033e-01  1.1141221911986380e-02  1.1094962772092022e-01  1.8771012580075461e-01  6.4466867161999453e-02  3.4152950610775001e-02  2.2764345931470911e-01  2.0077689315365321e-01  3.0285635537934003e-01  7.2741753411416712e-02  2.1410022036426277e-01  1.1009656200611648e-02  1.1127763346470035e-01  2.9217403410637159e-02  2.3142666980268800e-01  6.8179409481712583e-02  8.3677085983753619e-02  9.4267986017659053e-02  2.6057268746527147e-02  5.5645867602925397e-03  6.4430306993381314e-02  1.5652210327336141e-02  2.6710482034008321e-02  1.6294751315780340e-01  8.7512336863896464e-02  1.0335015613637427e-01  8.9402692145273743e-02  1.5324960529752846e-01  3.6045007915631443e-02  6.1324418438983626e-02  1.2717553813504787e-01  2.0555852405941558e-01  2.5431064194028635e-01  3.2391563862982820e-01  1.2907451184399707e-01  5.1677910213164667e-02  4.5545834941419512e-02  6.2600582241530173e-02  2.0917896849378038e-02  6.9806548467141931e-04  7.3686196760872087e-03  5.5342765017877112e-02  1.0843073252637368e-02  5.1483211243990364e-02  3.1976141713136966e-02  1.2657189292066100e-02  2.1718129707997053e-02  6.1270206297065082e-02  2.0520111650682103e-03  3.0238410472566311e-03  1.1171181044498204e-03  6.9767328692067537e-03  1.2208842370958681e-02  2.5809925299035637e-02  1.0986882482300904e-02  2.1493803863660725e-02  2.8828221252758658e-03  2.7524276302966661e-04  2.0863663051696592e-03  6.5113650804849415e-03  1.5038847007837694e-03  5.0503628808644082e-04  8.3486468047970167e-03  8.5224073582010704e-03  2.7925416703954028e-03  3.5737128454983555e-03  1.4195149632578851e-03  1.8457851112657821e-02  2.7795725857825779e-02  1.3517949715332633e-02  4.5540680273281235e-04  7.0979299957898328e-03  7.9990158597911636e-03  6.2644955259615331e-03  5.0428591333390666e-03  2.9427056878444120e-03  6.2567149785511473e-03  1.3089949412650199e-02  1.0475989581639035e-02  7.7009107683245039e-03  3.8607806252453037e-03  4.3972585401790545e-03  3.7383650751335162e-03  3.8444347837437895e-04  8.1308446436504788e-04  2.8993553536087847e-04  1.6829578807704406e-03  1.0762882077045583e-03  1.0040322235266210e-03  4.8968192603030436e-04  9.4042016098757383e-05  1.9934251759362392e-04  2.3995398375808066e-04  5.9940548464219440e-20  3.0814879110195774e-33  7.6878945313990463e-02  6.8429799452277354e-02  1.9716197469341321e-01  6.2878871693542560e-02  3.8347787787317345e-03  9.7658091830467267e-02  1.2739713267762437e-01  7.9239339299992897e-02  1.6390349076510527e-01  3.3091443824193806e-01  2.1253098720430119e-01  2.3811317361476661e-01  2.0218083230155046e-01  1.4568392112935546e-01  1.0740561519121762e-01  3.5056343976584620e-01  1.6766327961556907e-01  1.8837071392202936e-01  1.2699015208625836e-01  3.6440102806858599e-01  2.9739747110013398e-01  3.8075196190101029e-01  2.7762737698929507e-01  1.7763315717387013e-02  4.6497904592240118e-02  2.1590255963648261e-01  2.7322535919109708e-01  1.4278549911620853e-01  4.7756801497565227e-02  2.5017580138907234e-02  8.6221741867099744e-02  1.5008420361609490e-01  1.6222231072598434e-01  5.9559989451620575e-02  1.5459016743725149e-01  1.0084267852544063e-01  3.8107770763598246e-02  1.7488640488532017e-01  3.6107103250816969e-01  2.4267172449948535e-01  1.6870617227287157e-01  1.0234406220410712e-01  5.7267617796591647e-02  1.2570875488140584e-01  4.8752936193866066e-02  1.4427691945449592e-01  1.7735319445953796e-01  9.5666927206295369e-02  9.4172708105330821e-02  2.4392322507716190e-02  4.9537835215015917e-02  4.0277348624481672e-02  1.3308589125770376e-02  6.0846429263885081e-02  5.5781863998832495e-03  4.5194367540804546e-02  6.7975060451214583e-02  6.8162394109302429e-02  5.4394043829869461e-02  4.2563321649063408e-02  9.7383755925793385e-03  9.0427788854733106e-03  1.7968825729506074e-02  5.1556023731675902e-03  2.6814538070709403e-03  1.7145429026420617e-03  7.4602658953092328e-03  3.3039320195058521e-03  4.5157503829885834e-03  1.1787733208100367e-02  5.2716867668075379e-03  1.4687230743617760e-03  4.2712553959194672e-03  1.0916805651886493e-02  2.8748862454196968e-02  2.3887766451914174e-02  1.6937572077285426e-03  4.3195425659393587e-03  9.0012933446310308e-03  5.1904812116338244e-03  7.2081203918390379e-03  4.1944359749488509e-04  1.1278315837889871e-03  1.4146940843529722e-02  1.2874644290307127e-02  7.9733380262461857e-03  5.7818640730885927e-03  2.9812232780994968e-03  5.6058290175387210e-03  1.9544014329345456e-03  1.3483554378992833e-03  3.7256603022646088e-04  7.5055500654475267e-04  2.1554614812587742e-03  7.5623257832565561e-04  9.7832358735864817e-04  3.0279149934045604e-04  2.9326732138069205e-05  1.6035304565963044e-04  -9.3287231681256737e-35  -3.2221074011448698e-19  8.1808764317306937e-02  7.1266144210859611e-02  8.8682149041310721e-02  5.3614077166894973e-02  6.0023609212057440e-02  1.1170647535946886e-01  8.5622121703925302e-02  1.2798104955104303e-01  1.9193045141044848e-02  4.6231357137759631e-02  1.3086348785318386e-01  1.2518725923586024e-01  1.2496935879909357e-01  2.5698932721869860e-01  4.6516322143813443e-01  2.1934621579941654e-01  6.8760378532789984e-03  2.4522678654793320e-01  2.3947745028467603e-02  2.4517504775728291e-01  2.5352604357246628e-01  1.4999656542457734e-01  4.2905837205490745e-02  1.9038439826328804e-01  1.5447199974087525e-01  7.9900781977492105e-02  1.2159714139642201e-01  1.4345603484673551e-02  7.1542528492444593e-03  5.7814458020969987e-03  1.9261279996620986e-01  1.7352027657641741e-01  1.6698096517021849e-01  2.6588962888762807e-01  1.1591967081594311e-01  1.3899059589463502e-02  8.9030274660319333e-02  1.5581088219658826e-01  2.0012653734444785e-01  3.1955944955484344e-01  3.5271486366401728e-01  4.7133727164510912e-02  8.0137571498350421e-02  8.5893950048971102e-03  8.1980200369748735e-02  2.7155537052770663e-02  7.5975400798724640e-02  6.7638336965168161e-02  3.1097091618283945e-02  5.7193453425193348e-03  5.2086903632079136e-02  3.7335696147604222e-02  1.4242607752737899e-02  3.9476855475252433e-02  1.0729378581726987e-01  3.1259234422495327e-02  1.1815217469300462e-02  2.6473001641759180e-02  3.9932451549138541e-02  4.1872007763087089e-02  5.2305304447553262e-02  2.9081665638820288e-02  3.1864013420159362e-02  1.3451889858930768e-03  4.6293956442065298e-03  4.5523705063680656e-03  8.4471297650505570e-03  1.8633560873691241e-03  3.2207504952888053e-03  1.1297259416951510e-02  1.0602481651205123e-02  7.9127161155498912e-04  3.7362308142294665e-03  3.9806032283920941e-04  2.2823753120506250e-02  3.3105476460145569e-02  1.0695282486211722e-02  5.1327678858232783e-03  7.8580627471688657e-03  7.4513604563602089e-03  4.5066185442860620e-03  6.0245521907248273e-03  5.9428837538289614e-03  7.3741897750548794e-03  1.7295153556591062e-02  9.8123620071815017e-03  6.2103579491025332e-03  3.0963630287926054e-03  4.6461733192989154e-03  4.6446653236699416e-03  4.5145723412441907e-04  1.6610408430680740e-03  7.9542011948982716e-05  2.0086638762884198e-03  1.4353484123399542e-03  1.0582887566774016e-03  6.5547211876979363e-04  2.0484955562784341e-04  6.0036059602368416e-05  1.0590193559420338e-21  -7.0542385890518462e-18  2.3053371083580154e-01  1.6589564067543280e-01  2.0981861242745460e-02  2.4091157358816265e-01  1.9548110141731137e-01  2.3620020423665216e-02  3.8016467191868887e-02  1.5144655812861677e-01  1.8922341430357761e-01  1.4542105104934538e-01  3.9799007561494548e-01  4.1790624431501422e-01  1.1202642326005847e-01  2.8823174934000478e-01  8.5110061132212214e-02  3.1980673497936110e-02  5.1297476799399000e-01  7.9186766462064184e-02  1.7857333020163463e-01  1.8866474348172475e-02  2.7957549339991866e-01  3.6884899021918532e-01  5.2289464004206121e-01  3.8761430594745189e-01  2.8534818683728366e-02  1.3828543231113891e-01  1.3438005425877866e-01  3.3491429625430574e-01  2.3850306953728481e-01  4.3597741742092168e-02  3.0311887538983198e-02  2.0973221463782701e-01  2.3194762664756605e-01  1.0030379486433819e-01  1.8500869892588579e-02  2.3486861135010226e-01  6.4097730632496006e-02  4.8162237151214655e-02  2.2996172572050283e-01  3.5254914292506301e-01  2.0716868194894919e-01  2.2063494130473424e-01  8.0945401418181614e-02  1.2937107014260682e-01  1.0829903466083218e-01  1.7383510228224191e-02  1.5431669441193660e-01  2.0217012681730356e-01  1.2262115447925698e-01  1.2757885619042131e-01  5.4448971162662389e-02  7.4918072888901566e-02  7.0135352400691131e-02  3.1452183935244270e-03  4.9541159221691347e-02  1.8524441287339509e-02  3.0665849095556957e-02  7.8650593987014475e-02  7.8751811903258903e-02  5.5971352361807149e-02  3.8664279076088201e-02  4.7259951897932840e-04  1.7090764981794123e-03  2.7701829028826737e-02  1.0663665545106725e-02  1.8591270334239007e-03  1.2946023343331299e-04  9.9686561981454820e-03  4.8663891696538999e-03  3.6204254527204245e-03  1.4937010573434191e-02  5.5543454111383877e-03  4.5711696344843852e-04  5.9567482410915560e-03  1.0383039816092052e-02  3.3097632029085992e-02  2.6362991184939826e-02  3.3761633504694943e-03  7.2834885868236872e-03  9.1245345707905243e-03  4.0835258123741777e-03  6.6828502734819642e-03  2.6045210160640563e-04  3.8482821216657558e-03  1.6972083669612427e-02  1.4792659350993895e-02  6.4695168241397042e-03  4.7882845793812742e-03  2.1645798752367653e-03  6.4216579199608556e-03  2.0016024262550247e-03  2.3461649030066972e-03  6.7123092459716335e-04  5.1182127230309238e-04  2.7223389048387325e-03  8.0062324279188814e-04  1.2099802659527731e-03  4.6619663638657082e-04  1.4350502303670667e-04  2.4074124304840448e-35  -1.3491946268039599e-18  2.0304449070422687e-01  9.1128336536912949e-02  6.7540050899499091e-02  2.0747954403841948e-01  7.5566334920762118e-02  5.5316196427801050e-02  6.5755653966104610e-02  1.6705532081170268e-01  5.1882540216847982e-02  2.6740397333462708e-02  3.6969564108189799e-03  5.2392420527769677e-02  6.1455297281802129e-02  2.3604713750772799e-01  5.3498611426502092e-02  4.7914331600271898e-01  3.5409233769575714e-02  6.7450632732043395e-02  2.5865507862655279e-01  1.0155009158814141e-01  1.8369512482335063e-01  4.3547154048400721e-01  4.8588200391778510e-02  8.0310751288324378e-02  3.4398300013571487e-01  1.9174651031490736e-01  7.0425369760038204e-04  1.9442541795785331e-01  1.9204683151274335e-01  4.8163506181317775e-02  2.2900648680365881e-02  1.2418185940902070e-01  1.4671750368850081e-01  1.7642093048890020e-01  3.5564985946191002e-01  2.3405605371435708e-02  1.2888371424231292e-02  1.1004453624488147e-01  1.5114255619855491e-01  2.3670778211026122e-01  3.8369339857553619e-01  2.9902259408026716e-01  1.0526846518602325e-02  5.7749158898430089e-02  2.2215757560081359e-02  1.1079376803451862e-01  1.2541573336420483e-05  1.3710775948731704e-01  1.6049431924555715e-01  2.8283890145676303e-02  3.2500407429511741e-02  2.1765240705181259e-02  1.3653431544067403e-02  1.1792482945320379e-02  3.2306707429746256e-02  1.2135541750912973e-01  4.0841695260544437e-02  1.8085829665382840e-02  5.2261937948691356e-02  7.0229589582851679e-02  6.4474986672114223e-02  6.7061109368510424e-02  3.5982901343722472e-02  3.2227671860088736e-02  5.1049422465956236e-03  1.0024678557239533e-02  5.6936613516904789e-03  8.4576133394230982e-03  3.3403095519781733e-03  5.2680852380825672e-03  1.2400638922013424e-02  1.3105644670307762e-02  5.3983670818117459e-05  2.9512886011571716e-03  2.4151282758461058e-03  2.4554589018657095e-02  3.6994761970720068e-02  9.9668833407486768e-03  1.0791677137085001e-02  8.8284455200864590e-03  6.9253641402493588e-03  3.1229291287316074e-03  6.3820782110877959e-03  6.8195851933246059e-03  6.6251348908643627e-03  2.0903700229107865e-02  9.9013356518927644e-03  4.5757201791026556e-03  2.5347812486149874e-03  4.4675942283906407e-03  5.5798386892033707e-03  9.0955996571668511e-04  2.5303852646610349e-03  1.5994038974805945e-04  2.0378007371910328e-03  1.9943258346646884e-03  1.0979780837203623e-03  9.2820310814179180e-04  3.7105561196175001e-04  1.8055593228630336e-35  5.0074178554068132e-33  9.8312843635063762e-02  8.2259877467133632e-02  4.7413447361474369e-02  1.8448795121905717e-01  1.2681885945788762e-01  2.4504777198161620e-01  7.2427511925215122e-03  5.6492470062824575e-02  8.3357092872292080e-02  2.0869479817399439e-01  1.1025987332009386e-01  3.1070762143088837e-01  3.5835933917529766e-01  2.8595675097137202e-02  1.3398481654343508e-01  1.4588584818839692e-01  1.9097975369551781e-01  4.5496463693729772e-01  2.6216339321680892e-03  1.3537859158553692e-01  2.4042550170246917e-02  1.1751393984617112e-01  1.7472737939394922e-01  4.6356001862926838e-01  3.3109123992475087e-01  5.3370143505295287e-02  1.7061193645227990e-01  6.0026968073283803e-02  2.0748107586827566e-01  1.9720718220022582e-01  1.8444330810469294e-02  4.1978101216518890e-02  2.3675066149562851e-01  3.1504053707418495e-01  1.9635853831428449e-02  1.4308846627606756e-01  2.1958599804197101e-01  2.3658390984687420e-02  5.4112376835823275e-02  2.5185536497181937e-01  3.2026378521885940e-01  2.5202692416649158e-01  2.4612269378461096e-01  1.1851150559047058e-02  1.5913272546671967e-01  7.2666936534658971e-02  1.9915252873051362e-02  1.4229983020479067e-01  1.4001277240784424e-01  5.4954784670121062e-02  9.9666256959406729e-02  4.2405250627301473e-02  6.6540175762919512e-02  6.9043358044994133e-02  1.1499192482645486e-03  3.8294313952146830e-02  5.1002475262846431e-02  2.9495296501265509e-03  6.6326789950906281e-02  5.7021875402084088e-02  2.9052955496495444e-02  1.5558499174206640e-02  1.7596415927371854e-02  1.4495022568829495e-02  3.4330752642350658e-02  1.2425496794229279e-02  1.4101183661279009e-03  1.0865564410512576e-03  1.1057674228515666e-02  4.4902255040323077e-03  2.1616157269902288e-03  1.7116353963535141e-02  6.9542458747446799e-03  1.7595828366167297e-03  6.3131426456695151e-03  8.9042449878327188e-03  3.6243693796432039e-02  2.9134056805464475e-02  6.3759351864823800e-03  1.2136445634102483e-02  9.2448679586597839e-03  3.5203719202942505e-03  5.3833605198459738e-03  3.1166773723119830e-04  5.2934679647264025e-03  1.8088144883343600e-02  1.7944224267704249e-02  5.7012621234731765e-03  3.4371556903611445e-03  1.7881866794718132e-03  6.8187748288296218e-03  2.6186109452678704e-03  2.8860699086842938e-03  1.1826791851625204e-03  2.9658940986123370e-04  2.9170836050400098e-03  1.1624185390592971e-03  1.3204821507705577e-03  6.5431725246446781e-04  -4.7218893035972958e-20  3.8518598887744717e-34  3.9983672255012266e-02  2.1529412966189619e-02  6.8224220998687538e-02  1.3906583002084844e-01  5.6439814850513303e-02  2.2458630190954698e-01  2.0438738436316998e-02  6.0614053860932821e-03  1.3544074402871417e-01  6.1163629102680920e-03  7.3073692522532332e-02  5.7107044743475992e-02  1.0180020380691010e-01  2.4980730562753245e-01  1.2803121580398294e-01  5.6795764831622617e-02  2.8