<?xml version="1.0"?>
<VTKFile type="UnstructuredGrid"  version="0.1"  >
<UnstructuredGrid>
<Piece  NumberOfPoints="10201" NumberOfCells="20000">
<Points>
<DataArray  type="Float64"  NumberOfComponents="3"  format="ascii">0 0 0  0.01 0 0  0.02 0 0  0.03 0 0  0.04 0 0  0.05 0 0  0.06 0 0  0.07000000000000001 0 0  0.08 0 0  0.09 0 0  0.1 0 0  0.11 0 0  0.12 0 0  0.13 0 0  0.14 0 0  0.15 0 0  0.16 0 0  0.17 0 0  0.18 0 0  0.19 0 0  0.2 0 0  0.21 0 0  0.22 0 0  0.23 0 0  0.24 0 0  0.25 0 0  0.26 0 0  0.27 0 0  0.28 0 0  0.29 0 0  0.3 0 0  0.31 0 0  0.32 0 0  0.33 0 0  0.34 0 0  0.35 0 0  0.36 0 0  0.37 0 0  0.38 0 0  0.39 0 0  0.4 0 0  0.41 0 0  0.42 0 0  0.43 0 0  0.44 0 0  0.45 0 0  0.46 0 0  0.47 0 0  0.48 0 0  0.49 0 0  0.5 0 0  0.51 0 0  0.52 0 0  0.53 0 0  0.54 0 0  0.55 0 0  0.5600000000000001 0 0  0.57 0 0  0.58 0 0  0.59 0 0  0.6 0 0  0.61 0 0  0.62 0 0  0.63 0 0  0.64 0 0  0.65 0 0  0.66 0 0  0.67 0 0  0.68 0 0  0.6899999999999999 0 0  0.7 0 0  0.71 0 0  0.72 0 0  0.73 0 0  0.74 0 0  0.75 0 0  0.76 0 0  0.77 0 0  0.78 0 0  0.79 0 0  0.8 0 0  0.8100000000000001 0 0  0.82 0 0  0.83 0 0  0.84 0 0  0.85 0 0  0.86 0 0  0.87 0 0  0.88 0 0  0.89 0 0  0.9 0 0  0.91 0 0  0.92 0 0  0.93 0 0  0.9399999999999999 0 0  0.95 0 0  0.96 0 0  0.97 0 0  0.98 0 0  0.99 0 0  1 0 0  0 0.01 0  0.01 0.01 0  0.02 0.01 0  0.03 0.01 0  0.04 0.01 0  0.05 0.01 0  0.06 0.01 0  0.07000000000000001 0.01 0  0.08 0.01 0  0.09 0.01 0  0.1 0.01 0  0.11 0.01 0  0.12 0.01 0  0.13 0.01 0  0.14 0.01 0  0.15 0.01 0  0.16 0.01 0  0.17 0.01 0  0.18 0.01 0  0.19 0.01 0  0.2 0.01 0  0.21 0.01 0  0.22 0.01 0  0.23 0.01 0  0.24 0.01 0  0.25 0.01 0  0.26 0.01 0  0.27 0.01 0  0.28 0.01 0  0.29 0.01 0  0.3 0.01 0  0.31 0.01 0  0.32 0.01 0  0.33 0.01 0  0.34 0.01 0  0.35 0.01 0  0.36 0.01 0  0.37 0.01 0  0.38 0.01 0  0.39 0.01 0  0.4 0.01 0  0.41 0.01 0  0.42 0.01 0  0.43 0.01 0  0.44 0.01 0  0.45 0.01 0  0.46 0.01 0  0.47 0.01 0  0.48 0.01 0  0.49 0.01 0  0.5 0.01 0  0.51 0.01 0  0.52 0.01 0  0.53 0.01 0  0.54 0.01 0  0.55 0.01 0  0.5600000000000001 0.01 0  0.57 0.01 0  0.58 0.01 0  0.59 0.01 0  0.6 0.01 0  0.61 0.01 0  0.62 0.01 0  0.63 0.01 0  0.64 0.01 0  0.65 0.01 0  0.66 0.01 0  0.67 0.01 0  0.68 0.01 0  0.6899999999999999 0.01 0  0.7 0.01 0  0.71 0.01 0  0.72 0.01 0  0.73 0.01 0  0.74 0.01 0  0.75 0.01 0  0.76 0.01 0  0.77 0.01 0  0.78 0.01 0  0.79 0.01 0  0.8 0.01 0  0.8100000000000001 0.01 0  0.82 0.01 0  0.83 0.01 0  0.84 0.01 0  0.85 0.01 0  0.86 0.01 0  0.87 0.01 0  0.88 0.01 0  0.89 0.01 0  0.9 0.01 0  0.91 0.01 0  0.92 0.01 0  0.93 0.01 0  0.9399999999999999 0.01 0  0.95 0.01 0  0.96 0.01 0  0.97 0.01 0  0.98 0.01 0  0.99 0.01 0  1 0.01 0  0 0.02 0  0.01 0.02 0  0.02 0.02 0  0.03 0.02 0  0.04 0.02 0  0.05 0.02 0  0.06 0.02 0  0.07000000000000001 0.02 0  0.08 0.02 0  0.09 0.02 0  0.1 0.02 0  0.11 0.02 0  0.12 0.02 0  0.13 0.02 0  0.14 0.02 0  0.15 0.02 0  0.16 0.02 0  0.17 0.02 0  0.18 0.02 0  0.19 0.02 0  0.2 0.02 0  0.21 0.02 0  0.22 0.02 0  0.23 0.02 0  0.24 0.02 0  0.25 0.02 0  0.26 0.02 0  0.27 0.02 0  0.28 0.02 0  0.29 0.02 0  0.3 0.02 0  0.31 0.02 0  0.32 0.02 0  0.33 0.02 0  0.34 0.02 0  0.35 0.02 0  0.36 0.02 0  0.37 0.02 0  0.38 0.02 0  0.39 0.02 0  0.4 0.02 0  0.41 0.02 0  0.42 0.02 0  0.43 0.02 0  0.44 0.02 0  0.45 0.02 0  0.46 0.02 0  0.47 0.02 0  0.48 0.02 0  0.49 0.02 0  0.5 0.02 0  0.51 0.02 0  0.52 0.02 0  0.53 0.02 0  0.54 0.02 0  0.55 0.02 0  0.5600000000000001 0.02 0  0.57 0.02 0  0.58 0.02 0  0.59 0.02 0  0.6 0.02 0  0.61 0.02 0  0.62 0.02 0  0.63 0.02 0  0.64 0.02 0  0.65 0.02 0  0.66 0.02 0  0.67 0.02 0  0.68 0.02 0  0.6899999999999999 0.02 0  0.7 0.02 0  0.71 0.02 0  0.72 0.02 0  0.73 0.02 0  0.74 0.02 0  0.75 0.02 0  0.76 0.02 0  0.77 0.02 0  0.78 0.02 0  0.79 0.02 0  0.8 0.02 0  0.8100000000000001 0.02 0  0.82 0.02 0  0.83 0.02 0  0.84 0.02 0  0.85 0.02 0  0.86 0.02 0  0.87 0.02 0  0.88 0.02 0  0.89 0.02 0  0.9 0.02 0  0.91 0.02 0  0.92 0.02 0  0.93 0.02 0  0.9399999999999999 0.02 0  0.95 0.02 0  0.96 0.02 0  0.97 0.02 0  0.98 0.02 0  0.99 0.02 0  1 0.02 0  0 0.03 0  0.01 0.03 0  0.02 0.03 0  0.03 0.03 0  0.04 0.03 0  0.05 0.03 0  0.06 0.03 0  0.07000000000000001 0.03 0  0.08 0.03 0  0.09 0.03 0  0.1 0.03 0  0.11 0.03 0  0.12 0.03 0  0.13 0.03 0  0.14 0.03 0  0.15 0.03 0  0.16 0.03 0  0.17 0.03 0  0.18 0.03 0  0.19 0.03 0  0.2 0.03 0  0.21 0.03 0  0.22 0.03 0  0.23 0.03 0  0.24 0.03 0  0.25 0.03 0  0.26 0.03 0  0.27 0.03 0  0.28 0.03 0  0.29 0.03 0  0.3 0.03 0  0.31 0.03 0  0.32 0.03 0  0.33 0.03 0  0.34 0.03 0  0.35 0.03 0  0.36 0.03 0  0.37 0.03 0  0.38 0.03 0  0.39 0.03 0  0.4 0.03 0  0.41 0.03 0  0.42 0.03 0  0.43 0.03 0  0.44 0.03 0  0.45 0.03 0  0.46 0.03 0  0.47 0.03 0  0.48 0.03 0  0.49 0.03 0  0.5 0.03 0  0.51 0.03 0  0.52 0.03 0  0.53 0.03 0  0.54 0.03 0  0.55 0.03 0  0.5600000000000001 0.03 0  0.57 0.03 0  0.58 0.03 0  0.59 0.03 0  0.6 0.03 0  0.61 0.03 0  0.62 0.03 0  0.63 0.03 0  0.64 0.03 0  0.65 0.03 0  0.66 0.03 0  0.67 0.03 0  0.68 0.03 0  0.6899999999999999 0.03 0  0.7 0.03 0  0.71 0.03 0  0.72 0.03 0  0.73 0.03 0  0.74 0.03 0  0.75 0.03 0  0.76 0.03 0  0.77 0.03 0  0.78 0.03 0  0.79 0.03 0  0.8 0.03 0  0.8100000000000001 0.03 0  0.82 0.03 0  0.83 0.03 0  0.84 0.03 0  0.85 0.03 0  0.86 0.03 0  0.87 0.03 0  0.88 0.03 0  0.89 0.03 0  0.9 0.03 0  0.91 0.03 0  0.92 0.03 0  0.93 0.03 0  0.9399999999999999 0.03 0  0.95 0.03 0  0.96 0.03 0  0.97 0.03 0  0.98 0.03 0  0.99 0.03 0  1 0.03 0  0 0.04 0  0.01 0.04 0  0.02 0.04 0  0.03 0.04 0  0.04 0.04 0  0.05 0.04 0  0.06 0.04 0  0.07000000000000001 0.04 0  0.08 0.04 0  0.09 0.04 0  0.1 0.04 0  0.11 0.04 0  0.12 0.04 0  0.13 0.04 0  0.14 0.04 0  0.15 0.04 0  0.16 0.04 0  0.17 0.04 0  0.18 0.04 0  0.19 0.04 0  0.2 0.04 0  0.21 0.04 0  0.22 0.04 0  0.23 0.04 0  0.24 0.04 0  0.25 0.04 0  0.26 0.04 0  0.27 0.04 0  0.28 0.04 0  0.29 0.04 0  0.3 0.04 0  0.31 0.04 0  0.32 0.04 0  0.33 0.04 0  0.34 0.04 0  0.35 0.04 0  0.36 0.04 0  0.37 0.04 0  0.38 0.04 0  0.39 0.04 0  0.4 0.04 0  0.41 0.04 0  0.42 0.04 0  0.43 0.04 0  0.44 0.04 0  0.45 0.04 0  0.46 0.04 0  0.47 0.04 0  0.48 0.04 0  0.49 0.04 0  0.5 0.04 0  0.51 0.04 0  0.52 0.04 0  0.53 0.04 0  0.54 0.04 0  0.55 0.04 0  0.5600000000000001 0.04 0  0.57 0.04 0  0.58 0.04 0  0.59 0.04 0  0.6 0.04 0  0.61 0.04 0  0.62 0.04 0  0.63 0.04 0  0.64 0.04 0  0.65 0.04 0  0.66 0.04 0  0.67 0.04 0  0.68 0.04 0  0.6899999999999999 0.04 0  0.7 0.04 0  0.71 0.04 0  0.72 0.04 0  0.73 0.04 0  0.74 0.04 0  0.75 0.04 0  0.76 0.04 0  0.77 0.04 0  0.78 0.04 0  0.79 0.04 0  0.8 0.04 0  0.8100000000000001 0.04 0  0.82 0.04 0  0.83 0.04 0  0.84 0.04 0  0.85 0.04 0  0.86 0.04 0  0.87 0.04 0  0.88 0.04 0  0.89 0.04 0  0.9 0.04 0  0.91 0.04 0  0.92 0.04 0  0.93 0.04 0  0.9399999999999999 0.04 0  0.95 0.04 0  0.96 0.04 0  0.97 0.04 0  0.98 0.04 0  0.99 0.04 0  1 0.04 0  0 0.05 0  0.01 0.05 0  0.02 0.05 0  0.03 0.05 0  0.04 0.05 0  0.05 0.05 0  0.06 0.05 0  0.07000000000000001 0.05 0  0.08 0.05 0  0.09 0.05 0  0.1 0.05 0  0.11 0.05 0  0.12 0.05 0  0.13 0.05 0  0.14 0.05 0  0.15 0.05 0  0.16 0.05 0  0.17 0.05 0  0.18 0.05 0  0.19 0.05 0  0.2 0.05 0  0.21 0.05 0  0.22 0.05 0  0.23 0.05 0  0.24 0.05 0  0.25 0.05 0  0.26 0.05 0  0.27 0.05 0  0.28 0.05 0  0.29 0.05 0  0.3 0.05 0  0.31 0.05 0  0.32 0.05 0  0.33 0.05 0  0.34 0.05 0  0.35 0.05 0  0.36 0.05 0  0.37 0.05 0  0.38 0.05 0  0.39 0.05 0  0.4 0.05 0  0.41 0.05 0  0.42 0.05 0  0.43 0.05 0  0.44 0.05 0  0.45 0.05 0  0.46 0.05 0  0.47 0.05 0  0.48 0.05 0  0.49 0.05 0  0.5 0.05 0  0.51 0.05 0  0.52 0.05 0  0.53 0.05 0  0.54 0.05 0  0.55 0.05 0  0.5600000000000001 0.05 0  0.57 0.05 0  0.58 0.05 0  0.59 0.05 0  0.6 0.05 0  0.61 0.05 0  0.62 0.05 0  0.63 0.05 0  0.64 0.05 0  0.65 0.05 0  0.66 0.05 0  0.67 0.05 0  0.68 0.05 0  0.6899999999999999 0.05 0  0.7 0.05 0  0.71 0.05 0  0.72 0.05 0  0.73 0.05 0  0.74 0.05 0  0.75 0.05 0  0.76 0.05 0  0.77 0.05 0  0.78 0.05 0  0.79 0.05 0  0.8 0.05 0  0.8100000000000001 0.05 0  0.82 0.05 0  0.83 0.05 0  0.84 0.05 0  0.85 0.05 0  0.86 0.05 0  0.87 0.05 0  0.88 0.05 0  0.89 0.05 0  0.9 0.05 0  0.91 0.05 0  0.92 0.05 0  0.93 0.05 0  0.9399999999999999 0.05 0  0.95 0.05 0  0.96 0.05 0  0.97 0.05 0  0.98 0.05 0  0.99 0.05 0  1 0.05 0  0 0.06 0  0.01 0.06 0  0.02 0.06 0  0.03 0.06 0  0.04 0.06 0  0.05 0.06 0  0.06 0.06 0  0.07000000000000001 0.06 0  0.08 0.06 0  0.09 0.06 0  0.1 0.06 0  0.11 0.06 0  0.12 0.06 0  0.13 0.06 0  0.14 0.06 0  0.15 0.06 0  0.16 0.06 0  0.17 0.06 0  0.18 0.06 0  0.19 0.06 0  0.2 0.06 0  0.21 0.06 0  0.22 0.06 0  0.23 0.06 0  0.24 0.06 0  0.25 0.06 0  0.26 0.06 0  0.27 0.06 0  0.28 0.06 0  0.29 0.06 0  0.3 0.06 0  0.31 0.06 0  0.32 0.06 0  0.33 0.06 0  0.34 0.06 0  0.35 0.06 0  0.36 0.06 0  0.37 0.06 0  0.38 0.06 0  0.39 0.06 0  0.4 0.06 0  0.41 0.06 0  0.42 0.06 0  0.43 0.06 0  0.44 0.06 0  0.45 0.06 0  0.46 0.06 0  0.47 0.06 0  0.48 0.06 0  0.49 0.06 0  0.5 0.06 0  0.51 0.06 0  0.52 0.06 0  0.53 0.06 0  0.54 0.06 0  0.55 0.06 0  0.5600000000000001 0.06 0  0.57 0.06 0  0.58 0.06 0  0.59 0.06 0  0.6 0.06 0  0.61 0.06 0  0.62 0.06 0  0.63 0.06 0  0.64 0.06 0  0.65 0.06 0  0.66 0.06 0  0.67 0.06 0  0.68 0.06 0  0.6899999999999999 0.06 0  0.7 0.06 0  0.71 0.06 0  0.72 0.06 0  0.73 0.06 0  0.74 0.06 0  0.75 0.06 0  0.76 0.06 0  0.77 0.06 0  0.78 0.06 0  0.79 0.06 0  0.8 0.06 0  0.8100000000000001 0.06 0  0.82 0.06 0  0.83 0.06 0  0.84 0.06 0  0.85 0.06 0  0.86 0.06 0  0.87 0.06 0  0.88 0.06 0  0.89 0.06 0  0.9 0.06 0  0.91 0.06 0  0.92 0.06 0  0.93 0.06 0  0.9399999999999999 0.06 0  0.95 0.06 0  0.96 0.06 0  0.97 0.06 0  0.98 0.06 0  0.99 0.06 0  1 0.06 0  0 0.07000000000000001 0  0.01 0.07000000000000001 0  0.02 0.07000000000000001 0  0.03 0.07000000000000001 0  0.04 0.07000000000000001 0  0.05 0.07000000000000001 0  0.06 0.07000000000000001 0  0.07000000000000001 0.07000000000000001 0  0.08 0.07000000000000001 0  0.09 0.07000000000000001 0  0.1 0.07000000000000001 0  0.11 0.07000000000000001 0  0.12 0.07000000000000001 0  0.13 0.07000000000000001 0  0.14 0.07000000000000001 0  0.15 0.07000000000000001 0  0.16 0.07000000000000001 0  0.17 0.0700
[...]
<PointData  Scalars="Indicator Function"> 
<DataArray  type="Float64"  Name="Indicator Function"  format="ascii">-8.4003865560122470e-19  8.9793944330794323e-18  5.0547268766824698e-17  1.5195923279581239e-18  1.2032317766715314e-16  -3.2027824089509422e-19  -1.7114672529077921e-19  1.0516183588492611e-16  3.0116943012914272e-16  -7.7037197775489434e-34  1.0056176054628114e-16  8.4994028363586337e-17  -6.0060065954553752e-20  -1.7738623019566216e-18  1.9485030217007322e-16  -2.3331498854023895e-18  -4.0572508100204756e-18  3.3595986935250407e-16  -1.3564051444901672e-18  -1.4897651268012986e-18  1.0632731736750034e-15  -2.0192189187464366e-18  -1.2705257265826373e-18  3.1604943235884087e-16  -3.5695384302533733e-19  -1.2259599479735399e-18  -1.3637398187183479e-18  -5.2236229450571299e-19  -6.2022981353747166e-19  -1.5851877450734955e-18  -2.5054168704205459e-18  -1.2527084352102730e-18  -1.5124680504756021e-18  -2.3801087786147658e-18  4.7327314444765293e-17  -6.6697257167937154e-19  -3.2381842088992389e-18  -6.2062479732786571e-18  -5.4128244057508370e-18  -6.7016484506131882e-18  9.3693862651505376e-16  -4.0819169288614349e-19  -2.4416567478793090e-18  -2.2307945544503891e-18  -1.4192639708886426e-18  -7.0963198544429145e-19  1.8541643631284541e-16  -1.0079768083355638e-18  -1.7997929729803453e-19  -6.4753060912502766e-19  -3.2376530456251393e-19  -4.5925325821263101e-19  -1.3942481718084040e-19  -7.2221056714418298e-19  -5.2385044055411331e-19  1.1796320909371820e-33  2.5268200870360534e-31  -1.2107513175890432e-20  -2.1633044259835394e-21  -6.7018611458483545e-21  7.5231638452626401e-37  -8.0122630640301219e-21  -8.8026924347365476e-22  -3.1198925389167494e-21  -8.1779446573303216e-21  -1.4330311097102606e-20  -5.2385922790436530e-20  2.3923661027935195e-34  4.6350273065307713e-17  -1.2997949322171527e-19  -2.7632489792557657e-20  -3.7352114222275775e-21  -1.2700582601263651e-20  -1.3717974526913177e-19  -4.6517518620951592e-19  -2.9602144535302638e-19  -5.2579657170301028e-20  -1.4698889787855106e-19  -1.6791939637125835e-19  -1.0851446760005877e-19  -4.8099723975118712e-20  4.7442374511901351e-18  -5.7585000960395038e-20  -1.0603783559376692e-19  -1.0126232890279802e-19  -6.9824114974227439e-20  -3.9416779882529531e-20  -2.0659612169317513e-20  -1.1139256544063244e-20  -5.1042625512920809e-21  -1.0421123458444719e-21  -6.0250221941083991e-22  -1.4854781869944923e-21  6.9829104102647007e-20  -1.6799789581796724e-21  -1.3433006750420027e-21  -8.4852544741009830e-22  -6.3791130289478973e-22  -8.0840836156983734e-23  -4.0420418078491985e-23  1.8807909613156600e-37  3.8518598887744717e-34  1.5132791105369971e-02  5.0604485557862039e-02  1.6112788631464901e-02  1.2812359055762043e-02  8.5900090331843346e-03  5.7696198654000963e-03  3.0831053129809359e-03  3.4193284915493748e-02  4.2553731316859932e-02  2.0114444966274248e-03  5.7888549949218431e-02  2.1638919252222246e-03  5.0815844846573539e-02  6.5471399851069235e-03  7.7229635974117430e-02  6.7810186793968788e-02  3.9183839547643116e-02  4.8869645626314705e-02  5.3674445359454447e-02  2.4980496659416200e-02  5.4445125133041401e-02  3.6375014280183630e-02  4.7002496151168352e-03  1.2860617555498994e-02  4.4169862118918282e-02  4.9133905115282053e-02  1.8820085079106139e-02  3.6876746052092184e-03  1.4147096234293652e-02  2.1482655634954263e-02  4.5133577936134893e-02  3.5879878418497137e-02  9.3062629848782389e-03  3.8223096541443728e-02  2.9921169019251112e-02  1.1299894172755814e-02  5.2683993699844632e-02  1.0556132372130100e-01  9.6532157098546387e-02  7.2460087310525181e-02  3.5432725208583815e-02  7.3533278239110798e-03  4.3917481350492456e-02  1.8227681421405382e-02  2.5567186761737842e-02  3.4933557380933206e-02  8.3801539600697993e-04  1.7739088215669097e-02  3.2422187849833286e-03  1.1664874439865859e-02  6.4997255452114138e-03  5.0233084376146570e-03  2.1268201911595957e-03  1.1946778868714510e-02  3.4634611611522414e-03  2.3919853227244783e-03  8.3134033413573142e-04  1.6288628169727534e-04  1.1808418205528987e-04  6.1687906408880821e-05  1.5090910166660116e-05  1.5394369666954410e-04  2.3393719564462198e-06  5.5033301524582740e-05  1.4732075404563747e-04  6.7157399523245967e-04  6.0791389181764801e-04  2.7423606884059877e-04  1.8136868132869412e-03  1.4346589823130208e-03  1.3457517415435305e-04  4.5758671256351341e-04  7.7148565347902190e-04  4.6637549263132995e-03  6.0479737179440591e-03  2.3086614249702296e-03  9.4719089775774476e-04  2.1743211339748970e-03  2.1292578844787627e-03  1.6811282940225678e-03  6.9979616054869959e-04  7.3753330721849030e-04  1.1567746979287892e-03  1.4085880252914039e-03  1.3420735819100645e-03  1.0225560257749091e-03  6.7462716941924102e-04  4.0473477489952418e-04  2.2212607979127264e-04  9.9404542790848427e-05  2.6479865549728385e-05  1.0853715083314212e-05  2.8021168585264538e-05  3.4356367700773978e-05  3.2800355852319946e-05  2.6702160505224240e-05  1.9579107652233021e-05  1.0216052804635241e-05  1.4562990383716451e-06  4.0420418078492267e-23  -5.9908873786137572e-19  8.9879376150724215e-03  9.5767841141945562e-03  1.8013243370942515e-02  1.9597124508885119e-02  4.5705174431057899e-02  1.1359841815836989e-03  3.9268796095492900e-02  1.7584733676579072e-02  3.1109663758169759e-02  6.6271022405563360e-02  5.5509369803656658e-02  1.1841021620299996e-02  8.1419672777556101e-02  9.6385582630356390e-02  1.0754869242433591e-01  3.5000009368795708e-02  9.8893372430947757e-02  5.6895834186242262e-03  2.9601230626615446e-02  5.1659678937643832e-05  7.6832805801091586e-02  5.2485691015132271e-02  1.2187154873469460e-02  8.6928196714917527e-05  1.3359123401195633e-02  7.0554892405224681e-03  1.7730088481015965e-03  1.7989934674038244e-02  4.5522703216355487e-03  8.0972171274543481e-02  5.2960737696342054e-02  2.9540595929273099e-02  4.3301535655248663e-02  5.5509084129945166e-02  3.9424607877720549e-02  2.3644515141643999e-03  5.5936262069449481e-02  9.4742138060071535e-02  1.0235091752309661e-01  1.4834747694674927e-01  5.6379402943869665e-02  1.9028984528494431e-02  1.8932014436154644e-02  3.8500430621081487e-02  1.1604332271952036e-02  2.0384066102715544e-02  2.9561772908094758e-03  3.8973981498104666e-02  1.6670612342851197e-02  2.0943223106059724e-02  3.6163049203417211e-03  4.7054495113714899e-03  8.0293325667845483e-03  1.8792956622333212e-02  5.9036091142109122e-03  2.4814497463490929e-03  2.4470791056989795e-03  6.1255970706208037e-04  1.4854574313663394e-04  1.1047137592669375e-04  1.7560584504908221e-05  1.6467099338082100e-04  4.1017746078274834e-05  1.1386120104280111e-04  1.3229748770453501e-04  3.4926775613243320e-04  1.3021828666760352e-03  4.4628902748992823e-06  1.3969860541980744e-03  2.7685544980448418e-03  2.1879396888761706e-04  1.6698441222889589e-04  6.0682193778284043e-04  3.6537168130672580e-03  8.1727016419741155e-03  5.1046581691264435e-03  3.2630754580963872e-04  2.3189778557436351e-03  2.4968416194224526e-03  2.4450359266867797e-03  1.3789698130555086e-03  6.8851964536381768e-04  1.3718289987688585e-03  1.6984232646005462e-03  1.7436556098052443e-03  1.4427440720105613e-03  1.0109113899110641e-03  6.3345751769607929e-04  3.6621505067648805e-04  1.8070464522809210e-04  6.0642640199801788e-05  3.8794954020348308e-06  3.4527789696542570e-05  4.8023685013224778e-05  5.0726632671722312e-05  4.5349917932602815e-05  3.5629956594652361e-05  2.6542726111165512e-05  8.2897657444588658e-06  -2.2503288759131349e-21  1.1555579666323415e-33  3.7681872907257580e-02  2.6255605861958357e-02  8.6329511914416249e-02  2.9860662885457398e-02  9.5384369741620227e-03  1.4763984427118924e-02  3.2347490024035731e-02  2.0044752038872946e-02  5.2998112890418343e-02  1.2655651032920090e-01  6.7327491738249409e-02  8.6408083096075561e-02  7.3830930449721624e-02  5.2892178727929839e-02  3.6337275896925252e-02  1.6202055447571972e-01  7.0665993720563092e-02  5.1486655074117892e-02  5.6600797251922262e-02  1.1724907141385113e-01  1.0967880730021971e-01  1.4011737083238798e-01  1.2234046299835906e-01  2.9731368696781023e-02  8.6684752664491754e-03  8.0798324325369472e-02  1.3469589293011983e-01  6.9717411810574906e-02  8.8682543032939133e-03  9.4177824947702347e-03  5.6654595383911849e-02  9.6437256551348202e-02  9.0842135335757454e-02  1.9375366102666020e-02  6.5136969259316418e-02  4.3018098118337032e-02  3.0365341388246467e-02  8.4717658324170650e-02  1.5448516168590701e-01  9.1475875163114923e-02  9.4374150296853615e-02  4.5064648907225537e-02  2.7986970444315244e-02  6.4586973868067096e-02  6.3744734303075520e-03  5.9617763266168022e-02  9.6399903457198441e-02  3.2817062359793647e-02  4.2890995837990033e-02  2.3260568197078748e-02  3.1960878282128423e-02  2.0175565983526836e-02  2.3399264732649589e-03  3.8123041445113936e-03  2.2238432763507329e-02  2.9320590610282331e-03  3.5423143966025602e-03  1.9270219420650927e-03  3.1184822628714867e-04  2.8237034266594363e-04  1.3555122120509445e-04  1.9889916301302939e-05  3.3188964833903120e-04  6.3901405830412905e-05  1.6412029474920892e-04  2.5221273477015344e-04  9.2964409495239618e-04  9.5382143765646206e-04  1.3258937644415996e-04  3.0256637614565060e-03  1.9881250893365454e-03  1.1686529067179629e-03  9.1088786414659107e-04  8.6116392143277792e-04  7.3729880648817428e-03  8.5363980554900350e-03  1.1985622762897953e-03  2.3596998290521649e-03  2.5471679641873254e-03  2.2451046009397649e-03  2.1358703451153978e-03  6.5417892086510514e-04  1.0771236140173759e-03  1.8398674613798250e-03  1.8759907353333560e-03  1.6651767484523331e-03  1.2349420790969045e-03  8.2141622855008559e-04  5.0572834207773289e-04  2.8401601883005091e-04  1.2487301497800910e-04  3.0295117197264203e-05  1.7410727248343114e-05  4.0573257498627224e-05  5.0722031672044680e-05  5.0055344443544333e-05  4.3555705964784046e-05  3.5639359308061123e-05  2.3839180060091406e-05  -3.3083508238623013e-21  -3.8258301384562155e-19  3.2848932206636594e-02  3.2646834367592713e-02  4.5183012042121468e-02  1.3441841852502955e-02  2.8740138826645400e-02  4.4893188715886941e-02  4.6574042165473457e-02  4.8036807117441967e-02  3.3833105161332491e-02  4.7928938653910048e-03  3.9681029548107788e-02  8.8903689037031497e-02  9.0171300746370336e-02  8.1367306968619171e-02  1.9507298175051532e-01  6.2065521283399393e-02  2.4247793763648294e-02  1.2143378913297577e-01  9.6253017540505106e-03  7.2330334302796020e-02  6.1791337897958119e-02  4.9040231510582205e-02  3.9752946501621492e-02  1.1027991345396119e-02  5.1348073366055123e-04  2.8479238456589527e-02  4.7512824226518605e-02  4.2984827226000187e-02  3.9597675078891365e-02  2.5284230558855914e-02  9.5896852976818658e-02  8.7748646003655062e-02  5.7909179513768234e-02  1.1734092797039673e-01  3.7718153303931072e-02  3.0177350322740354e-02  6.2153190452420778e-03  5.9807299802667462e-02  9.5489421146276940e-02  1.2784325193873741e-01  1.6092754225984165e-01  2.6719280695408874e-02  3.0331509431788788e-02  6.6567535710861615e-03  5.5178089740774559e-02  2.4410626015242128e-02  3.3087985794782033e-04  3.4447589427572034e-02  3.0758612829692233e-02  2.2026749721473570e-02  2.1986536494841773e-02  2.1248274640413433e-03  1.2014930265379030e-02  8.1444210794063398e-03  2.7012649054109456e-02  6.5444141404750137e-03  2.4812195901267316e-03  3.7585940247282668e-03  1.1255289050903468e-03  2.8215390407371709e-04  2.8375111434076602e-04  1.3394608892293861e-04  2.5572056416872478e-04  1.7706265481329202e-04  1.5560463486176938e-04  5.0303659823089263e-05  3.3037288417498686e-04  1.5835233296255464e-03  2.5139207713041173e-04  1.2571852965474154e-03  3.7152518469840581e-03  1.3036154670856615e-04  8.7581968083483980e-04  1.4469073857811536e-03  4.0940082956585277e-03  1.0237421091093268e-02  5.5000655647998269e-03  2.1966245768399784e-03  3.0702018547442713e-03  2.2147401364629852e-03  2.2203060938034481e-03  1.3334423557659401e-03  4.0935801709028960e-04  1.6560641712127574e-03  2.0367579880694714e-03  1.8439462372151591e-03  1.4470921426896503e-03  9.9597520567367499e-04  6.3800884905886469e-04  3.8832691627423052e-04  2.0386590037712571e-04  7.8029130995387803e-05  1.1227061123093602e-05  2.1162432030258711e-05  3.7882028014371497e-05  4.3924141265359993e-05  4.0565086933617350e-05  3.2748052763742579e-05  2.5649745851615686e-05  6.4073111445556455e-21  -2.6323936738563431e-18  8.8911137042801347e-02  6.8984104860584247e-02  1.3846720855271017e-02  9.9388149758727881e-02  8.2662004623270585e-02  1.7008916922744102e-02  1.4051731484913928e-02  2.7611791400593961e-02  5.7973039956304408e-02  3.8782399013247142e-02  1.3429916396806660e-01  1.4089184520187403e-01  2.8279309733737771e-02  8.5013064069873329e-02  2.4104078787957280e-02  3.1145759357425681e-03  2.0821977523607396e-01  3.3813916297679061e-02  5.9088538502995280e-02  2.3508170740650699e-02  9.9715089840920965e-02  1.3474776470306224e-01  1.8561091971599142e-01  1.7320564982594647e-01  6.7830097090333788e-02  6.2144221407546708e-03  5.6424562665189013e-02  1.5219454536208440e-01  9.9830790179046308e-02  7.7067000322886903e-03  2.3826794153285352e-02  1.0570966833929500e-01  1.4549267851819209e-01  8.2077790248684404e-02  5.0967603875059081e-03  8.9232680811655807e-02  4.4273212359525208e-02  5.0666784921520047e-02  1.0124208509360656e-01  1.5060465367372602e-01  7.3911013112524585e-02  1.2554777576172751e-01  3.2314941367782048e-02  5.8733654746781244e-02  5.7948658097263017e-02  1.6229856384239233e-03  7.4082794149798001e-02  1.1808562706384119e-01  4.7536238009211584e-02  5.9337874448773739e-02  4.3234747214318442e-02  4.5976598769413554e-02  2.7060496561839925e-02  2.4051732412462027e-03  2.1246050315544347e-03  3.1487695226108010e-02  7.8726299456401434e-03  2.0923325253126060e-03  3.0087697892300464e-03  4.5948665334298491e-04  3.9976079339550954e-04  2.1827288598041611e-04  1.1518472559874462e-04  4.6155363820989196e-04  9.2943960810164629e-06  2.9462176149549943e-04  2.0119787160544252e-04  9.0052093563276379e-04  1.1374787846409175e-03  5.7808744859138401e-04  3.2837047824929304e-03  2.5301546177049702e-03  1.8499403890496991e-03  8.1035800462263654e-04  1.9251295918052775e-04  8.2641892705148309e-03  1.0072197388712885e-02  6.5148155514816635e-04  3.7811616510860951e-03  2.7540188768451377e-03  1.9124069150915940e-03  2.0483150211948473e-03  4.9886858398300363e-04  9.0460815095689520e-04  2.1123922135860406e-03  2.0341702996145732e-03  1.6534484648992457e-03  1.1876257502415868e-03  7.8615761360611340e-04  4.9631878271781671e-04  2.8975722819941317e-04  1.3329262931474772e-04  4.0283836600884530e-05  4.3620122168043333e-06  2.5834378432996555e-05  3.6163390323633989e-05  3.6138943705248825e-05  2.9704982742917492e-05  2.0230710596485887e-05  -1.1230300354373359e-21  -9.3391321581146149e-19  6.9863837962289718e-02  2.7756973074976123e-02  2.2264227239090946e-02  8.8614017009796292e-02  3.9352172266070427e-02  2.4667159196584167e-02  2.1190094587144586e-02  6.7125475151994587e-02  2.9059535462293867e-02  1.9926247668117448e-02  1.8045299372473348e-02  2.1996620261175843e-02  2.1155030004714061e-02  1.3099093303784629e-01  1.4777370006785659e-02  1.9564726161139773e-01  4.3582615363915393e-03  6.2232195017077788e-02  1.1624490511335681e-01  1.5633259762126268e-03  6.2905030831965650e-02  1.1433703767932026e-01  7.8258263822562173e-03  9.4374526331063475e-03  7.7629339796830746e-02  2.5731773414502019e-02  9.4106034565563934e-03  7.6011481816710552e-02  1.0977450409807096e-01  6.4049221118832989e-02  2.4804783223941782e-02  8.1064431578626264e-02  7.3164704114650245e-02  7.8890410874756581e-02  1.6380388408687369e-01  3.7555248225605211e-03  3.5640472532834942e-02  5.4849264010800869e-03  6.1407207913455560e-02  1.1043295024562788e-01  1.5246450155550206e-01  1.3582449156921150e-01  2.2129015848900611e-02  2.4340373845964457e-02  1.6757756370466323e-02  6.7779845120990598e-02  3.8931657986742252e-02  2.3549679614142692e-02  7.7687626153776349e-02  4.2719320304719210e-03  8.1095263939496356e-03  7.7359929500499846e-03  1.5518058491809322e-02  2.2447612225616021e-02  5.6048805805494024e-03  2.8290937970901518e-02  1.1635605580687195e-02  8.5953490961883910e-03  4.3248852609823838e-03  1.8384923122087493e-03  3.5178679029709522e-04  3.6238821894225820e-04  1.6407101375068555e-04  3.0453004438517231e-04  2.7263693513629380e-04  1.8598426009438807e-04  7.4529885227348988e-05  3.4264267330273994e-04  1.5660811134568136e-03  2.2427932700032693e-04  9.5762586727514767e-04  4.1542718431534413e-03  1.9555705161188750e-05  1.4816114433009941e-03  1.7106602871980192e-03  4.0013408330034630e-03  1.1421587159730092e-02  6.2675269121277161e-03  3.3046743123935156e-03  3.9458570798561561e-03  2.0588069409630608e-03  1.8897427947190387e-03  1.3078460253906851e-03  2.6478228017830658e-04  1.6872644822675867e-03  2.3302000997286565e-03  1.9109836592845991e-03  1.3914818536231808e-03  9.4150671436076937e-04  6.1296081820432456e-04  3.8637185902470444e-04  2.0680260632020958e-04  7.9394852333505552e-05  1.3687179905772720e-05  1.6218227220965895e-05  3.1170595323891646e-05  3.5731585872748184e-05  3.0328110681421841e-05  1.8804881896096905e-05  -1.0438806428201744e-21  -6.4289521944669537e-20  2.7735011080572542e-02  3.1476861253920282e-02  5.5330397440188396e-03  7.1026622699774569e-02  4.9760666936690838e-02  1.0019798512522861e-01  1.8588341753453170e-03  4.4507412465242667e-02  4.0359483817509149e-03  6.7166694609416613e-02  2.4943280179072540e-02  9.5391047753972752e-02  1.1350597365288986e-01  7.6208988689245773e-03  1.9477990737970810e-02  3.8082239113386547e-02  7.6195815007407380e-02  1.7545187382153402e-01  2.3564126738585264e-02  5.4754737516668192e-02  6.8358942121350529e-03  5.4036005066460426e-02  8.3738784316039622e-02  1.6242679756598943e-01  1.4470998352910650e-01  5.0570857661168048e-02  1.1007013995224711e-02  3.2794606575452349e-02  1.0139098171652539e-01  7.8950376707204464e-02  2.8254028129521484e-02  5.8000411691614816e-02  1.1469525753109490e-01  1.7596249412063142e-01  4.9244963493402606e-02  5.6504860756356197e-02  8.3588762826975083e-02  3.5548327290407106e-02  6.4169730875282285e-02  1.0594212436406228e-01  1.3916687180293388e-01  9.1124612700642316e-02  1.3618975853867174e-01  8.5046946818734762e-03  7.0987514998660461e-02  4.7548853812733383e-02  2.7416557071299479e-03  7.8045849726700645e-02  1.0074939206981656e-01  1.9536268751021785e-02  4.7361390268961842e-02  4.2635462047280061e-02  4.3829767490968966e-02  2.1677431214785350e-02  9.0157382615230607e-03  3.6578648402501336e-03  3.6136503292127455e-02  7.6861399396590058e-03  2.2382707638236780e-03  4.0074345510189265e-03  7.3517175590191697e-04  4.5731911809033637e-04  2.3741337742564178e-04  1.5042224352310762e-04  4.5282687789711663e-04  7.0474922932086512e-05  2.8836143961545163e-04  1.4592575885810906e-04  9.7036321001481751e-04  1.1207330570065217e-03  5.7635389945751752e-04  3.1664967241005287e-03  2.9049701940433476e-03  1.9577998503082332e-03  4.0288806691424553e-04  1.0237133564600799e-04  8.6571701271115509e-03  1.1150073158130937e-02  8.0254781820379283e-04  5.0258944989966386e-03  3.2498588000910650e-03  1.6785620744835085e-03  1.7443562602593593e-03  4.7755586282163467e-04  7.6108156775631368e-04  2.2770731381382440e-03  2.3066728747169175e-03  1.6834963697544348e-03  1.1356825453389481e-03  7.4235265393674909e-04  4.8265132992932812e-04  2.9316347638573054e-04  1.3810402694784492e-04  4.3035223262547654e-05  1.9747812924945733e-06  2.3226915113833548e-05  3.3262990484708298e-05  3.2020071858355998e-05  2.1459801516240906e-05  -2.5586890565165714e-21  -4.1212388389014111e-19  1.1581370682953625e-03  1.4586066812778700e-02  2.5731699540224778e-02  4.5391473077362403e-02  3.0434558685353549e-02  8.8330250971184854e-02  8.8748907741956345e-03  3.5732731891827060e-03  5.4612508070311205e-02  1.7908999317217341e-02  8.4891482569254880e-03  1.0749599786091460e-02  2.3914352126751873e-02  4.4212056207448273e-02  8.4867876895915920e-02  9.3179944816683923e-03