<?xml version="1.0"?>
<VTKFile type="UnstructuredGrid"  version="0.1"  >
<UnstructuredGrid>
<Piece  NumberOfPoints="10201" NumberOfCells="20000">
<Points>
<DataArray  type="Float64"  NumberOfComponents="3"  format="ascii">0 0 0  0.01 0 0  0.02 0 0  0.03 0 0  0.04 0 0  0.05 0 0  0.06 0 0  0.07000000000000001 0 0  0.08 0 0  0.09 0 0  0.1 0 0  0.11 0 0  0.12 0 0  0.13 0 0  0.14 0 0  0.15 0 0  0.16 0 0  0.17 0 0  0.18 0 0  0.19 0 0  0.2 0 0  0.21 0 0  0.22 0 0  0.23 0 0  0.24 0 0  0.25 0 0  0.26 0 0  0.27 0 0  0.28 0 0  0.29 0 0  0.3 0 0  0.31 0 0  0.32 0 0  0.33 0 0  0.34 0 0  0.35 0 0  0.36 0 0  0.37 0 0  0.38 0 0  0.39 0 0  0.4 0 0  0.41 0 0  0.42 0 0  0.43 0 0  0.44 0 0  0.45 0 0  0.46 0 0  0.47 0 0  0.48 0 0  0.49 0 0  0.5 0 0  0.51 0 0  0.52 0 0  0.53 0 0  0.54 0 0  0.55 0 0  0.5600000000000001 0 0  0.57 0 0  0.58 0 0  0.59 0 0  0.6 0 0  0.61 0 0  0.62 0 0  0.63 0 0  0.64 0 0  0.65 0 0  0.66 0 0  0.67 0 0  0.68 0 0  0.6899999999999999 0 0  0.7 0 0  0.71 0 0  0.72 0 0  0.73 0 0  0.74 0 0  0.75 0 0  0.76 0 0  0.77 0 0  0.78 0 0  0.79 0 0  0.8 0 0  0.8100000000000001 0 0  0.82 0 0  0.83 0 0  0.84 0 0  0.85 0 0  0.86 0 0  0.87 0 0  0.88 0 0  0.89 0 0  0.9 0 0  0.91 0 0  0.92 0 0  0.93 0 0  0.9399999999999999 0 0  0.95 0 0  0.96 0 0  0.97 0 0  0.98 0 0  0.99 0 0  1 0 0  0 0.01 0  0.01 0.01 0  0.02 0.01 0  0.03 0.01 0  0.04 0.01 0  0.05 0.01 0  0.06 0.01 0  0.07000000000000001 0.01 0  0.08 0.01 0  0.09 0.01 0  0.1 0.01 0  0.11 0.01 0  0.12 0.01 0  0.13 0.01 0  0.14 0.01 0  0.15 0.01 0  0.16 0.01 0  0.17 0.01 0  0.18 0.01 0  0.19 0.01 0  0.2 0.01 0  0.21 0.01 0  0.22 0.01 0  0.23 0.01 0  0.24 0.01 0  0.25 0.01 0  0.26 0.01 0  0.27 0.01 0  0.28 0.01 0  0.29 0.01 0  0.3 0.01 0  0.31 0.01 0  0.32 0.01 0  0.33 0.01 0  0.34 0.01 0  0.35 0.01 0  0.36 0.01 0  0.37 0.01 0  0.38 0.01 0  0.39 0.01 0  0.4 0.01 0  0.41 0.01 0  0.42 0.01 0  0.43 0.01 0  0.44 0.01 0  0.45 0.01 0  0.46 0.01 0  0.47 0.01 0  0.48 0.01 0  0.49 0.01 0  0.5 0.01 0  0.51 0.01 0  0.52 0.01 0  0.53 0.01 0  0.54 0.01 0  0.55 0.01 0  0.5600000000000001 0.01 0  0.57 0.01 0  0.58 0.01 0  0.59 0.01 0  0.6 0.01 0  0.61 0.01 0  0.62 0.01 0  0.63 0.01 0  0.64 0.01 0  0.65 0.01 0  0.66 0.01 0  0.67 0.01 0  0.68 0.01 0  0.6899999999999999 0.01 0  0.7 0.01 0  0.71 0.01 0  0.72 0.01 0  0.73 0.01 0  0.74 0.01 0  0.75 0.01 0  0.76 0.01 0  0.77 0.01 0  0.78 0.01 0  0.79 0.01 0  0.8 0.01 0  0.8100000000000001 0.01 0  0.82 0.01 0  0.83 0.01 0  0.84 0.01 0  0.85 0.01 0  0.86 0.01 0  0.87 0.01 0  0.88 0.01 0  0.89 0.01 0  0.9 0.01 0  0.91 0.01 0  0.92 0.01 0  0.93 0.01 0  0.9399999999999999 0.01 0  0.95 0.01 0  0.96 0.01 0  0.97 0.01 0  0.98 0.01 0  0.99 0.01 0  1 0.01 0  0 0.02 0  0.01 0.02 0  0.02 0.02 0  0.03 0.02 0  0.04 0.02 0  0.05 0.02 0  0.06 0.02 0  0.07000000000000001 0.02 0  0.08 0.02 0  0.09 0.02 0  0.1 0.02 0  0.11 0.02 0  0.12 0.02 0  0.13 0.02 0  0.14 0.02 0  0.15 0.02 0  0.16 0.02 0  0.17 0.02 0  0.18 0.02 0  0.19 0.02 0  0.2 0.02 0  0.21 0.02 0  0.22 0.02 0  0.23 0.02 0  0.24 0.02 0  0.25 0.02 0  0.26 0.02 0  0.27 0.02 0  0.28 0.02 0  0.29 0.02 0  0.3 0.02 0  0.31 0.02 0  0.32 0.02 0  0.33 0.02 0  0.34 0.02 0  0.35 0.02 0  0.36 0.02 0  0.37 0.02 0  0.38 0.02 0  0.39 0.02 0  0.4 0.02 0  0.41 0.02 0  0.42 0.02 0  0.43 0.02 0  0.44 0.02 0  0.45 0.02 0  0.46 0.02 0  0.47 0.02 0  0.48 0.02 0  0.49 0.02 0  0.5 0.02 0  0.51 0.02 0  0.52 0.02 0  0.53 0.02 0  0.54 0.02 0  0.55 0.02 0  0.5600000000000001 0.02 0  0.57 0.02 0  0.58 0.02 0  0.59 0.02 0  0.6 0.02 0  0.61 0.02 0  0.62 0.02 0  0.63 0.02 0  0.64 0.02 0  0.65 0.02 0  0.66 0.02 0  0.67 0.02 0  0.68 0.02 0  0.6899999999999999 0.02 0  0.7 0.02 0  0.71 0.02 0  0.72 0.02 0  0.73 0.02 0  0.74 0.02 0  0.75 0.02 0  0.76 0.02 0  0.77 0.02 0  0.78 0.02 0  0.79 0.02 0  0.8 0.02 0  0.8100000000000001 0.02 0  0.82 0.02 0  0.83 0.02 0  0.84 0.02 0  0.85 0.02 0  0.86 0.02 0  0.87 0.02 0  0.88 0.02 0  0.89 0.02 0  0.9 0.02 0  0.91 0.02 0  0.92 0.02 0  0.93 0.02 0  0.9399999999999999 0.02 0  0.95 0.02 0  0.96 0.02 0  0.97 0.02 0  0.98 0.02 0  0.99 0.02 0  1 0.02 0  0 0.03 0  0.01 0.03 0  0.02 0.03 0  0.03 0.03 0  0.04 0.03 0  0.05 0.03 0  0.06 0.03 0  0.07000000000000001 0.03 0  0.08 0.03 0  0.09 0.03 0  0.1 0.03 0  0.11 0.03 0  0.12 0.03 0  0.13 0.03 0  0.14 0.03 0  0.15 0.03 0  0.16 0.03 0  0.17 0.03 0  0.18 0.03 0  0.19 0.03 0  0.2 0.03 0  0.21 0.03 0  0.22 0.03 0  0.23 0.03 0  0.24 0.03 0  0.25 0.03 0  0.26 0.03 0  0.27 0.03 0  0.28 0.03 0  0.29 0.03 0  0.3 0.03 0  0.31 0.03 0  0.32 0.03 0  0.33 0.03 0  0.34 0.03 0  0.35 0.03 0  0.36 0.03 0  0.37 0.03 0  0.38 0.03 0  0.39 0.03 0  0.4 0.03 0  0.41 0.03 0  0.42 0.03 0  0.43 0.03 0  0.44 0.03 0  0.45 0.03 0  0.46 0.03 0  0.47 0.03 0  0.48 0.03 0  0.49 0.03 0  0.5 0.03 0  0.51 0.03 0  0.52 0.03 0  0.53 0.03 0  0.54 0.03 0  0.55 0.03 0  0.5600000000000001 0.03 0  0.57 0.03 0  0.58 0.03 0  0.59 0.03 0  0.6 0.03 0  0.61 0.03 0  0.62 0.03 0  0.63 0.03 0  0.64 0.03 0  0.65 0.03 0  0.66 0.03 0  0.67 0.03 0  0.68 0.03 0  0.6899999999999999 0.03 0  0.7 0.03 0  0.71 0.03 0  0.72 0.03 0  0.73 0.03 0  0.74 0.03 0  0.75 0.03 0  0.76 0.03 0  0.77 0.03 0  0.78 0.03 0  0.79 0.03 0  0.8 0.03 0  0.8100000000000001 0.03 0  0.82 0.03 0  0.83 0.03 0  0.84 0.03 0  0.85 0.03 0  0.86 0.03 0  0.87 0.03 0  0.88 0.03 0  0.89 0.03 0  0.9 0.03 0  0.91 0.03 0  0.92 0.03 0  0.93 0.03 0  0.9399999999999999 0.03 0  0.95 0.03 0  0.96 0.03 0  0.97 0.03 0  0.98 0.03 0  0.99 0.03 0  1 0.03 0  0 0.04 0  0.01 0.04 0  0.02 0.04 0  0.03 0.04 0  0.04 0.04 0  0.05 0.04 0  0.06 0.04 0  0.07000000000000001 0.04 0  0.08 0.04 0  0.09 0.04 0  0.1 0.04 0  0.11 0.04 0  0.12 0.04 0  0.13 0.04 0  0.14 0.04 0  0.15 0.04 0  0.16 0.04 0  0.17 0.04 0  0.18 0.04 0  0.19 0.04 0  0.2 0.04 0  0.21 0.04 0  0.22 0.04 0  0.23 0.04 0  0.24 0.04 0  0.25 0.04 0  0.26 0.04 0  0.27 0.04 0  0.28 0.04 0  0.29 0.04 0  0.3 0.04 0  0.31 0.04 0  0.32 0.04 0  0.33 0.04 0  0.34 0.04 0  0.35 0.04 0  0.36 0.04 0  0.37 0.04 0  0.38 0.04 0  0.39 0.04 0  0.4 0.04 0  0.41 0.04 0  0.42 0.04 0  0.43 0.04 0  0.44 0.04 0  0.45 0.04 0  0.46 0.04 0  0.47 0.04 0  0.48 0.04 0  0.49 0.04 0  0.5 0.04 0  0.51 0.04 0  0.52 0.04 0  0.53 0.04 0  0.54 0.04 0  0.55 0.04 0  0.5600000000000001 0.04 0  0.57 0.04 0  0.58 0.04 0  0.59 0.04 0  0.6 0.04 0  0.61 0.04 0  0.62 0.04 0  0.63 0.04 0  0.64 0.04 0  0.65 0.04 0  0.66 0.04 0  0.67 0.04 0  0.68 0.04 0  0.6899999999999999 0.04 0  0.7 0.04 0  0.71 0.04 0  0.72 0.04 0  0.73 0.04 0  0.74 0.04 0  0.75 0.04 0  0.76 0.04 0  0.77 0.04 0  0.78 0.04 0  0.79 0.04 0  0.8 0.04 0  0.8100000000000001 0.04 0  0.82 0.04 0  0.83 0.04 0  0.84 0.04 0  0.85 0.04 0  0.86 0.04 0  0.87 0.04 0  0.88 0.04 0  0.89 0.04 0  0.9 0.04 0  0.91 0.04 0  0.92 0.04 0  0.93 0.04 0  0.9399999999999999 0.04 0  0.95 0.04 0  0.96 0.04 0  0.97 0.04 0  0.98 0.04 0  0.99 0.04 0  1 0.04 0  0 0.05 0  0.01 0.05 0  0.02 0.05 0  0.03 0.05 0  0.04 0.05 0  0.05 0.05 0  0.06 0.05 0  0.07000000000000001 0.05 0  0.08 0.05 0  0.09 0.05 0  0.1 0.05 0  0.11 0.05 0  0.12 0.05 0  0.13 0.05 0  0.14 0.05 0  0.15 0.05 0  0.16 0.05 0  0.17 0.05 0  0.18 0.05 0  0.19 0.05 0  0.2 0.05 0  0.21 0.05 0  0.22 0.05 0  0.23 0.05 0  0.24 0.05 0  0.25 0.05 0  0.26 0.05 0  0.27 0.05 0  0.28 0.05 0  0.29 0.05 0  0.3 0.05 0  0.31 0.05 0  0.32 0.05 0  0.33 0.05 0  0.34 0.05 0  0.35 0.05 0  0.36 0.05 0  0.37 0.05 0  0.38 0.05 0  0.39 0.05 0  0.4 0.05 0  0.41 0.05 0  0.42 0.05 0  0.43 0.05 0  0.44 0.05 0  0.45 0.05 0  0.46 0.05 0  0.47 0.05 0  0.48 0.05 0  0.49 0.05 0  0.5 0.05 0  0.51 0.05 0  0.52 0.05 0  0.53 0.05 0  0.54 0.05 0  0.55 0.05 0  0.5600000000000001 0.05 0  0.57 0.05 0  0.58 0.05 0  0.59 0.05 0  0.6 0.05 0  0.61 0.05 0  0.62 0.05 0  0.63 0.05 0  0.64 0.05 0  0.65 0.05 0  0.66 0.05 0  0.67 0.05 0  0.68 0.05 0  0.6899999999999999 0.05 0  0.7 0.05 0  0.71 0.05 0  0.72 0.05 0  0.73 0.05 0  0.74 0.05 0  0.75 0.05 0  0.76 0.05 0  0.77 0.05 0  0.78 0.05 0  0.79 0.05 0  0.8 0.05 0  0.8100000000000001 0.05 0  0.82 0.05 0  0.83 0.05 0  0.84 0.05 0  0.85 0.05 0  0.86 0.05 0  0.87 0.05 0  0.88 0.05 0  0.89 0.05 0  0.9 0.05 0  0.91 0.05 0  0.92 0.05 0  0.93 0.05 0  0.9399999999999999 0.05 0  0.95 0.05 0  0.96 0.05 0  0.97 0.05 0  0.98 0.05 0  0.99 0.05 0  1 0.05 0  0 0.06 0  0.01 0.06 0  0.02 0.06 0  0.03 0.06 0  0.04 0.06 0  0.05 0.06 0  0.06 0.06 0  0.07000000000000001 0.06 0  0.08 0.06 0  0.09 0.06 0  0.1 0.06 0  0.11 0.06 0  0.12 0.06 0  0.13 0.06 0  0.14 0.06 0  0.15 0.06 0  0.16 0.06 0  0.17 0.06 0  0.18 0.06 0  0.19 0.06 0  0.2 0.06 0  0.21 0.06 0  0.22 0.06 0  0.23 0.06 0  0.24 0.06 0  0.25 0.06 0  0.26 0.06 0  0.27 0.06 0  0.28 0.06 0  0.29 0.06 0  0.3 0.06 0  0.31 0.06 0  0.32 0.06 0  0.33 0.06 0  0.34 0.06 0  0.35 0.06 0  0.36 0.06 0  0.37 0.06 0  0.38 0.06 0  0.39 0.06 0  0.4 0.06 0  0.41 0.06 0  0.42 0.06 0  0.43 0.06 0  0.44 0.06 0  0.45 0.06 0  0.46 0.06 0  0.47 0.06 0  0.48 0.06 0  0.49 0.06 0  0.5 0.06 0  0.51 0.06 0  0.52 0.06 0  0.53 0.06 0  0.54 0.06 0  0.55 0.06 0  0.5600000000000001 0.06 0  0.57 0.06 0  0.58 0.06 0  0.59 0.06 0  0.6 0.06 0  0.61 0.06 0  0.62 0.06 0  0.63 0.06 0  0.64 0.06 0  0.65 0.06 0  0.66 0.06 0  0.67 0.06 0  0.68 0.06 0  0.6899999999999999 0.06 0  0.7 0.06 0  0.71 0.06 0  0.72 0.06 0  0.73 0.06 0  0.74 0.06 0  0.75 0.06 0  0.76 0.06 0  0.77 0.06 0  0.78 0.06 0  0.79 0.06 0  0.8 0.06 0  0.8100000000000001 0.06 0  0.82 0.06 0  0.83 0.06 0  0.84 0.06 0  0.85 0.06 0  0.86 0.06 0  0.87 0.06 0  0.88 0.06 0  0.89 0.06 0  0.9 0.06 0  0.91 0.06 0  0.92 0.06 0  0.93 0.06 0  0.9399999999999999 0.06 0  0.95 0.06 0  0.96 0.06 0  0.97 0.06 0  0.98 0.06 0  0.99 0.06 0  1 0.06 0  0 0.07000000000000001 0  0.01 0.07000000000000001 0  0.02 0.07000000000000001 0  0.03 0.07000000000000001 0  0.04 0.07000000000000001 0  0.05 0.07000000000000001 0  0.06 0.07000000000000001 0  0.07000000000000001 0.07000000000000001 0  0.08 0.07000000000000001 0  0.09 0.07000000000000001 0  0.1 0.07000000000000001 0  0.11 0.07000000000000001 0  0.12 0.07000000000000001 0  0.13 0.07000000000000001 0  0.14 0.07000000000000001 0  0.15 0.07000000000000001 0  0.16 0.07000000000000001 0  0.17 0.0700
[...]
<PointData  Scalars="Indicator Function"> 
<DataArray  type="Float64"  Name="Indicator Function"  format="ascii">-6.5695978729885897e-19  3.0420099342465802e-18  3.1935440935955869e-17  1.2218686171034127e-18  7.6797432942656039e-17  -8.3827926455745803e-20  -3.5316417941943922e-19  4.3371157283918275e-17  1.7324162059741004e-16  -2.3789918749603106e-20  6.3068852060924080e-17  5.2034865422875289e-17  -1.8641595866362262e-19  -1.1139557593967388e-18  3.1833294368644059e-16  -3.2331624957219242e-19  -2.7897101586976497e-18  2.8685517001658992e-16  -8.1748295603249791e-19  -1.0732962686373583e-18  7.5538331644928545e-16  -1.5770335886216042e-18  -3.7796375158599504e-33  1.5184689073225157e-17  -2.0092654347834592e-19  -8.8262263472849881e-19  -9.2821236854933042e-19  -6.4746139387152886e-19  6.6395633076876208e-17  -1.6872973217989007e-18  -2.3592436664887024e-18  -1.1796218332443514e-18  -1.0980012114744878e-18  -1.7070940113508591e-18  4.6804780812909595e-17  -6.4499156396551079e-19  -2.6894888931845358e-18  -3.6651305720010778e-18  -2.9450257833884021e-18  -4.8579087929224351e-18  4.9724498997449125e-16  -6.5624031675626809e-19  -1.1145908243037116e-18  -1.8043175749197418e-18  -1.4620898377900311e-18  -7.3104491889499492e-19  1.1319558165133294e-16  -8.7814814006542268e-19  -2.5941050346984910e-19  -4.3706132590277642e-19  -2.1853066295138836e-19  -4.2261492782710881e-19  -1.8422934543770842e-19  -6.1708031651329919e-19  -4.2032816566754885e-19  9.8703909649845837e-34  -5.2918370720825106e-19  1.1284745767893960e-36  -1.3353615825341186e-35  4.7019774032891500e-36  -1.4840908817500342e-22  1.5046327690525280e-36  -1.1621924599267791e-22  -9.4039548065783001e-37  -2.4675249184013150e-21  -1.8945356069266348e-21  -1.8159233998436984e-20  -5.7952429060500948e-21  1.0120629868183262e-17  -5.3381580834870031e-20  -2.6239629928712046e-20  -1.0117835273121941e-20  5.2662146916838480e-36  -2.1189338785691861e-20  -1.4985584316601608e-19  -1.4278951125631610e-19  -3.7228711704675393e-20  -1.0236640519058577e-19  -6.6386177536413349e-20  -2.7708032084098143e-20  -1.7100759221047305e-20  9.6517112953425603e-18  -5.9212026752241951e-21  -3.7404546358946665e-20  -3.5287770315582350e-20  -2.0849123243005047e-20  -9.6454881831306022e-21  -3.7697370827663651e-21  -1.2711771467746746e-21  -1.8417535068245081e-22  -3.5387603791504934e-22  -5.4456711218055438e-22  -5.6889752892013245e-22  -1.6534546281112278e-20  -4.7255939075317653e-22  -3.9361710793417756e-22  -2.8855451385476903e-22  -2.2356214006483235e-22  -9.6325622108260049e-23  1.3224311446750734e-38  8.2284604557560126e-38  1.9259299443872359e-34  1.1834735413106180e-02  3.5824878148830952e-02  1.0237171988787019e-02  6.9303186790732945e-03  3.2657205174237572e-03  1.5101096733973515e-03  6.3620402673359800e-03  2.6119285474974181e-02  3.1548342752202405e-02  4.2856107686352286e-04  4.0810758050400346e-02  6.7163427357872368e-03  2.6099685990340751e-02  7.0173999765350322e-03  6.4016803171075540e-02  5.0384096214231476e-02  2.5062902417614021e-02  2.9452927489357513e-02  3.8669573403946396e-02  1.3395011818303805e-02  4.6157444289857304e-02  2.8409311528268050e-02  3.0645038989661538e-03  7.2391416507033663e-03  3.1799831750976254e-02  3.3442375016955593e-02  9.4874152687057303e-03  6.9199199343535659e-03  9.5329964447508041e-03  2.5629148136491656e-02  4.2500355589098891e-02  1.5000048711182865e-02  1.2279807031803985e-02  3.4873543585830939e-02  2.6691797088109211e-02  1.1619135068528746e-02  5.2339382675583121e-02  9.3633880821507795e-02  8.7406019471658644e-02  6.8479473798898224e-02  3.1537375988800201e-02  1.1821774584036094e-02  4.0228845494484432e-02  1.9156728298846768e-02  2.6338668994613491e-02  2.2405046979203841e-02  1.7249604355743992e-03  1.4956830327711720e-02  4.6731241870512207e-03  7.8733968978951969e-03  5.3081752853475729e-03  6.3346513140956767e-03  1.5145518880805585e-04  1.1116330734027848e-02  4.1893037702368597e-03  1.2106311567776638e-03  4.7904151690336020e-05  1.2014329791542962e-04  4.1794026238506288e-05  7.0210309976491717e-07  2.6735004568133819e-06  3.0741620721256834e-05  8.4891361932775736e-06  1.9851114284985416e-05  4.4450977212158283e-05  1.3715820445377953e-04  2.8827534348438102e-04  1.1466037394443124e-05  4.5374488738104545e-04  8.4407114647736513e-04  5.3511857720442234e-05  1.8226671666331216e-04  2.3510248573084175e-04  1.7465712450224122e-03  3.1377697836303211e-03  1.7004662974564628e-03  6.7065284864263868e-04  1.5954510199020818e-03  1.2652224287015368e-03  7.8169498235046680e-04  1.9465551498065026e-04  5.9589007622416453e-05  3.6339219289153671e-04  6.8866460167151553e-04  6.6607015489277715e-04  4.5827585994037511e-04  2.4329103804140667e-04  1.0274839961715920e-04  3.0855474744927339e-05  3.8294990766192640e-07  1.1714971542305466e-05  1.4401178297952052e-05  1.3884749053711535e-05  1.2486348973967589e-05  1.0819215837656271e-05  8.9260339009171083e-06  6.8824458957118267e-06  4.8214977218385906e-06  1.6657725927345030e-06  -9.3846240766459944e-23  -3.7207880238017912e-19  4.5538553820827776e-03  3.2726230874279578e-03  6.3267880812975640e-03  1.2303378135790327e-02  3.0975811260650472e-02  3.7344934962464915e-04  2.6258758044564276e-02  6.9390957478115498e-03  1.5155230087023588e-02  3.5136736605224220e-02  3.5264633189331672e-02  1.7160992835863632e-02  5.8654243531602514e-02  6.4656802079001763e-02  6.3895901938018071e-02  2.4390537301961550e-02  7.4412091693410690e-02  1.0851421616061817e-03  1.2244784574883391e-02  1.1770112948449717e-02  4.3544387426936108e-02  2.7460587784126415e-02  1.3242397739581250e-02  7.2364257063459352e-03  8.1795543456744824e-03  7.1936073455873628e-03  1.2287252232942403e-02  2.2542025761803870e-02  8.4804759985837000e-04  5.6608162730911106e-02  3.3715071153357278e-02  3.3872645415066009e-02  2.7303511206775741e-02  4.0083568136419903e-02  3.5117557037311842e-02  1.7858319902255722e-03  4.3730811398619965e-02  7.8667314101272243e-02  8.8174550991536690e-02  1.1438352830173623e-01  5.0850677164432201e-02  1.2781453699062277e-02  2.0671322174980536e-02  3.6933151139764593e-02  8.7846478259760996e-03  2.0635410401117810e-03  4.3074917310317821e-03  2.5925698281997697e-02  9.9055588104439950e-03  1.0803757070699553e-02  1.8288037747877012e-03  5.5757490392427216e-03  8.2651585865113324e-03  1.2402231019784812e-02  7.1721543901487744e-03  2.0151035294881420e-03  8.1599386182001205e-04  1.8312317193815443e-04  9.5108079417489822e-05  2.7309956029436032e-05  1.5906088441895012e-05  1.3921320456146226e-05  3.6112770924599416e-05  2.1054341352992461e-05  1.3075135550646231e-05  6.2551935652837656e-05  3.2473331436658155e-04  1.3576031596402059e-04  7.0705605338686412e-05  9.9992975578227865e-04  5.6544282066755733e-04  3.5341434340700913e-04  1.1925357489861413e-05  9.2569959871998742e-04  3.2017263499679806e-03  3.1387901700796173e-03  1.8451135055355512e-04  1.6060705763227053e-03  1.6548301171898066e-03  1.0857311331927092e-03  5.8383674922880629e-04  8.6196532780238993e-05  1.6113717234492441e-04  7.0233465072540497e-04  7.9738006687978056e-04  6.2593797412137788e-04  3.7684699735005000e-04  1.8059963950863009e-04  6.8150295472339199e-05  1.4588884152156375e-05  7.1310152864706511e-06  1.3963762311816619e-05  1.4819948438455065e-05  1.3819199519822202e-05  1.2453380997726817e-05  1.0753005199235734e-05  8.6814201219554490e-06  6.9429192776372868e-06  3.9014493372332874e-06  6.9182062874969063e-22  9.6296497219361793e-34  2.3229352260208950e-02  1.1795856246589940e-02  5.3569624552811647e-02  1.9662681690863552e-02  7.7568330832382274e-03  4.4491864825778743e-03  1.8173559087203497e-02  1.3713184263521128e-02  3.7425638720273526e-02  8.0909810096272725e-02  4.0995467749653992e-02  5.4326377413325008e-02  3.8809676983793805e-02  1.9497553484380137e-02  2.1633153201560000e-02  1.1435084878882987e-01  3.9100064125392367e-02  2.7571125052587544e-02  3.9511217118241189e-02  7.3132810638192561e-02  6.0019180659238079e-02  9.8340181073931596e-02  8.4913400701328995e-02  2.4821958116552613e-02  7.7193691134049480e-03  5.0397679726633123e-02  7.9801125558845193e-02  3.6584039331345339e-02  8.0927333404590268e-03  7.0821346079708103e-03  4.8232826796448018e-02  7.5455995850970556e-02  4.6895269529603878e-02  9.1111764265351652e-03  4.9199815810355339e-02  3.4853319661598887e-02  1.9253486391028845e-02  6.5380488110767951e-02  1.1372356612315725e-01  7.7697783797820649e-02  7.7343080738606115e-02  3.8358588564143918e-02  2.3718227655944318e-02  5.0821941961963643e-02  1.2362179221011170e-02  4.8286021535005365e-02  5.8832593792495995e-02  2.2395323739013342e-02  3.0996246874699478e-02  1.7500951683730313e-02  1.9754206699430930e-02  1.3670227768093604e-02  4.4517021771569402e-03  7.3461676065086421e-05  1.6431661784530965e-02  2.3461841138325981e-04  2.0041345104607890e-03  3.2595320462738071e-04  1.1400390284403936e-04  3.7181335438921530e-06  3.4963356235429851e-05  3.1862446377856039e-05  6.9260722555672044e-05  2.1340258390626420e-05  5.2360676858509128e-05  5.2632790441550606e-05  1.3442732559114468e-04  4.0050459563288198e-04  1.4605320466107934e-04  5.8848491991823177e-04  1.1418048135552652e-03  1.4520142347432589e-04  2.2642879207372346e-04  4.8085833767143446e-05  2.1816828049378116e-03  3.9351397521778892e-03  1.6526626449143039e-03  1.2153311226299262e-03  1.8246808870456654e-03  1.2690591985016206e-03  8.5185843592306440e-04  1.8640917269018191e-04  1.2175966997281182e-04  5.4501903964010738e-04  8.4839365774169230e-04  7.2657824053831395e-04  4.9279057775324586e-04  2.6946998513554843e-04  1.2289809072191018e-04  4.4898355216635792e-05  8.6678501395166538e-06  5.6956168756205241e-06  1.0150037993063815e-05  1.0849563707723787e-05  1.0425248119827070e-05  9.5587316898289011e-06  8.2975686376458241e-06  6.6952014618576429e-06  5.0835134337342408e-06  -1.0344350287236130e-36  -2.3423673708636734e-19  1.5488111892731657e-02  1.6625606648278363e-02  2.7494470678509426e-02  1.3373962968974058e-03  1.7402279410661609e-02  2.7166749526342324e-02  2.9058751987648308e-02  3.1420000203892337e-02  1.7345667517522565e-02  7.2844787109269515e-03  1.8079211704865695e-02  5.6283409503869786e-02  6.3893528598189919e-02  5.7696369718782350e-02  1.1781537276886862e-01  2.8453846592070335e-02  2.3280503867902914e-02  9.1082530815887117e-02  1.6845180417405587e-02  3.7702933779839014e-02  4.1606381633458277e-02  2.3360245534792486e-02  1.3403225627199530e-02  1.4576062545967150e-03  1.3216046672353007e-02  1.4399858336528622e-02  3.9766323378702999e-02  4.0596856084802679e-02  3.6045224941152192e-02  1.4166193294831601e-02  6.1374975188623566e-02  5.1810455150678607e-02  4.8324337757971618e-02  6.7744896416552958e-02  2.6516215992978653e-02  3.0016806172108203e-02  7.4935643288539578e-04  4.1476508489589239e-02  7.5003554137041337e-02  9.8692330544488421e-02  1.1936380135253699e-01  3.2898188588672203e-02  1.6970804487537256e-02  1.0891763517580947e-02  4.6947817379474753e-02  1.4954181523707942e-02  1.0941180196583484e-02  2.2627152849465187e-02  1.9244460246603205e-02  1.2300969483579090e-02  1.1526119256382594e-02  1.1880187616580466e-03  9.5216432028921421e-03  8.2825704060075656e-03  1.6416912374262557e-02  7.0696459505903888e-03  5.8542438892725322e-04  1.7643459843086459e-03  2.7322669181622618e-05  2.1925516415587614e-05  5.0474667918721177e-05  9.0329612858711759e-05  6.8384428626353419e-05  9.5395932779962974e-05  5.3888522288899294e-05  2.3953753426840189e-05  4.3503685812685389e-05  3.4812057843500236e-04  1.3534765864353402e-04  4.0848074591164455e-05  1.2009756466874694e-03  6.2727590402672582e-04  5.6437892883398556e-04  1.6350042067074345e-04  8.4491532483102515e-04  3.6184460093870844e-03  3.4356205543874486e-03  2.2257627868941751e-04  1.9280000601091488e-03  1.6268349706999197e-03  9.7668126475056183e-04  5.8693423249075831e-04  1.7045251277326498e-04  1.7300748062627126e-04  8.4098574539200586e-04  8.4330154413658255e-04  6.1388237061549657e-04  3.6965457877978264e-04  1.8625550550220910e-04  8.0596827209527560e-05  2.7715847518296633e-05  4.4151696593718812e-06  4.1687685963286960e-06  6.6433320434625569e-06  7.1414956623131107e-06  7.0982739634140805e-06  6.4588369517858914e-06  5.2868792815544685e-06  4.2494396035543654e-06  5.9780200468738752e-22  -1.7489326440794889e-18  5.3145291518686834e-02  4.3354938807659886e-02  8.2664877664780662e-03  5.6524731926854907e-02  4.9698881923873402e-02  9.9798610970003344e-03  1.3017281883162821e-02  1.3716282567501294e-02  3.5701078163079943e-02  3.1285132504022296e-02  8.1992863944749708e-02  8.2963513204508579e-02  1.8045137220800825e-02  4.4208252669627260e-02  2.6027169258448713e-02  2.7888941392109176e-03  1.3466343702326486e-01  1.2235841696765804e-02  4.1338839316899044e-02  2.2717876950389522e-02  6.7232848934570197e-02  7.0727351420196011e-02  1.1762271759915173e-01  1.1328485838315171e-01  5.6135829715900171e-02  1.5149914458448826e-02  3.6367387402999260e-02  8.4563542586092860e-02  4.9682213371121185e-02  2.1212979131663021e-02  1.9662742364085380e-02  7.3085126871835937e-02  1.0425283844838942e-01  4.5242137300741378e-02  3.8985514117754624e-03  6.1508024833969076e-02  3.5838637996453794e-02  3.0930327037879613e-02  7.3536530038627743e-02  1.0958382467397740e-01  6.7518914483142609e-02  9.5646737474068128e-02  3.2934333967872008e-02  4.0743489137053265e-02  4.5457263347397095e-02  8.5259666320980278e-03  5.4772721514499474e-02  7.1222726667317340e-02  3.2625033360983068e-02  4.0897534416136243e-02  2.8758837724844541e-02  2.7948173341958787e-02  1.8021137911642265e-02  3.9491592119160071e-03  1.2160948058599155e-03  2.1091556740228976e-02  2.6496884032621497e-03  1.6654947533610365e-03  9.7243998043040100e-04  1.0834987391283198e-04  2.0429661737470210e-05  7.2089235756103273e-05  7.9739860815915907e-05  1.1762212941476552e-04  6.4433355766343480e-05  9.0478860871210956e-05  2.9603366475789739e-05  1.2520178021896951e-04  4.3885667517479737e-04  2.0696555265389596e-04  6.0768375533378578e-04  1.3107421706124334e-03  2.2931632061974746e-04  3.1618152126420868e-04  8.5404999500739265e-05  2.3349242226085934e-03  4.3534239542295950e-03  1.6663509580505276e-03  1.6071688163651684e-03  2.0005561750039199e-03  1.2406198133278429e-03  8.3132379078922026e-04  1.8421000369464824e-04  1.7528710618253473e-04  6.1387143916189098e-04  9.4669839123148411e-04  7.4732999967102925e-04  4.8846506589561751e-04  2.7023580722995846e-04  1.2858611903273417e-04  5.1782312367271914e-05  1.4991873210299384e-05  1.8112732852991641e-07  4.4521777644396657e-06  5.3994921910124657e-06  5.4111145749149035e-06  5.0849549167067380e-06  4.2954426144363408e-06  2.8929064151107131e-06  -1.6058856550708630e-22  -4.8888563634368658e-19  3.7439890881066112e-02  1.3496799819293954e-02  1.3667037423975275e-02  5.0038367550346012e-02  2.5352437469794046e-02  1.2621649135174598e-02  1.1364543428751841e-02  3.9963705703199806e-02  2.0862392651473393e-02  1.1429170746806168e-02  1.5875798071049472e-02  1.4641515642362581e-02  1.6837545561555405e-02  8.6216094217642258e-02  1.9143923432846981e-02  1.1430494483700611e-01  2.2215283373669559e-03  4.9862850161550662e-02  7.9672098901413954e-02  1.3772776615669981e-02  3.8456613989581716e-02  6.6230137290404903e-02  2.1205992171652545e-03  1.5794181064461579e-02  3.9299508739467692e-02  6.3670017441272595e-03  4.8982661584984176e-03  5.1844641673513422e-02  7.2839262534015153e-02  4.6155380861455757e-02  1.1032146629009922e-02  5.3145454076513728e-02  4.3252080048173928e-02  5.9313561365289279e-02  9.4056877087994081e-02  5.4047593945125766e-03  3.1464676977761445e-02  6.4222442942589424e-03  4.2131489058024919e-02  8.4326193583606601e-02  1.1186674527388506e-01  1.0611821606587983e-01  3.0123493526009678e-02  1.0945360493427220e-02  1.5647050425524157e-02  5.3709211336279969e-02  2.2134887113414544e-02  2.3150841299916108e-02  4.7086928559319230e-02  2.3029359534558957e-03  3.7318333727730225e-03  3.7048165136446538e-03  8.3186157841701348e-03  1.5515578179646793e-02  6.3945215700075067e-03  1.6803095218155359e-02  9.2237632172117237e-03  3.8279024534655088e-03  2.4020264189257017e-03  2.7069232292647880e-04  7.1806866737655710e-05  1.0567598177110286e-05  6.0980956329700864e-05  5.3734130415614720e-05  9.1550900185925573e-05  5.1645591068414873e-05  2.4554815040983759e-05  5.6540349604206950e-05  3.8013995179007339e-04  1.4750306366770308e-04  5.0358920936818492e-05  1.3099231756865542e-03  6.7424938926001910e-04  6.7084402944870408e-04  1.6719929737681215e-04  8.7569474171604773e-04  3.9237110212376304e-03  3.6403258753343912e-03  4.4560979220626903e-04  2.2193983932183112e-03  1.6746142950479017e-03  9.4784612501388761e-04  5.9087009104591306e-04  1.6590890814138716e-04  1.9860882379690284e-04  9.4054692215580235e-04  9.0711605528671761e-04  6.1853849562206029e-04  3.6841314715088826e-04  1.9241571714046909e-04  8.8520727927616512e-05  3.3440378517143856e-05  7.7616041402846155e-06  1.8893714425201143e-06  4.5432989978331931e-06  4.9505747001084183e-06  4.8021784644030972e-06  4.0786838634320249e-06  2.6390880513591596e-06  -1.4649881593160341e-22  -5.0501741194915704e-19  8.8069806786568797e-03  1.9951149489169102e-02  2.4225524898746137e-03  3.8960844154281936e-02  3.1333410227411845e-02  5.7484462735880225e-02  1.0166659480168661e-03  2.8019602193705345e-02  1.6240360734565300e-04  4.1649852448005890e-02  2.3486204235318275e-02  5.8613272521032315e-02  6.6113774512960161e-02  3.1600408366804704e-03  7.7057476132382143e-03  3.1727806978851560e-02  4.0189497815510712e-02  1.1079705066835456e-01  1.3853466970795552e-02  4.3087230109797085e-02  6.6665072060136058e-03  4.4298807238011065e-02  4.6285650579086228e-02  9.9805614887367486e-02  9.0026170089081245e-02  4.7111331780301954e-02  2.1852003789545736e-02  2.6671641454632862e-02  5.8398255482024188e-02  3.9158600762521333e-02  3.2772092253962486e-02  4.1515429008315181e-02  7.2425994729747076e-02  1.1854755456329071e-01  2.9986767207582359e-02  2.7599795840231114e-02  5.7463968971930082e-02  3.0323039937254711e-02  4.0621051267441047e-02  7.5931837881282369e-02  1.0339575581877948e-01  7.6935662294692383e-02  1.0203145935283062e-01  1.9948408017015400e-02  4.6262641200978560e-02  3.8572462326096055e-02  1.0282575473114347e-02  5.4647668388612007e-02  6.1496265393417439e-02  1.7050365046803916e-02  3.2525973051137302e-02  2.7419757859151971e-02  2.6528426239669878e-02  1.5539318052906068e-02  7.4694016232603891e-03  3.4918037287813957e-05  2.2989613656971088e-02  3.0279568230091847e-03  4.3930943635167477e-04  1.5874658173236592e-03  1.2635264632520374e-04  7.9318995792101733e-05  1.6049797502956514e-05  7.1504967221048453e-07  5.1330511562784556e-05  6.9682274493350578e-06  3.6606795046400759e-05  7.5987610891318057e-05  1.9878527250256984e-04  4.8406788252940169e-04  1.8097817974773199e-04  6.9353892347609610e-04  1.3998280114983130e-03  2.5715483429139009e-04  3.5276959204488947e-04  6.9139515353318942e-05  2.5334741419832767e-03  4.6218442863188627e-03  1.6311125391936388e-03  1.9038386001287346e-03  2.1950244022855511e-03  1.2442705457022683e-03  8.0167937873301123e-04  1.6853898336275795e-04  1.4934026074370633e-04  6.7964282580342515e-04  1.0428273844851335e-03  7.9122604083785547e-04  4.8939211242156084e-04  2.7040862270306926e-04  1.3484909223006799e-04  5.9507155377203174e-05  2.0968489444387485e-05  4.0172017457322762e-06  2.0131974630895041e-06  3.7083744987989104e-06  4.1067832793558303e-06  3.9163176111382499e-06  2.8730513430349726e-06  -3.7169994998628174e-23  -6.0247293583734419e-19  9.0975849130793453e-03  9.7269999751303914e-03  1.2686138903653305e-02  2.5022869810054603e-02  1.9608595769876808e-02  4.9124706173165021e-02  7.0890857579702891e-03  1.6914929880652181e-03  3.3344727510620467e-02  1.4911046613024038e-02  7.7808832122052670e-03  2.1412218283848846e-04  1.1587804636299480e-02  1.8730162246485611e-02  5.8898825039315858e-02  5.3547088530012570e-03  