<?xml version="1.0"?>
<VTKFile type="UnstructuredGrid"  version="0.1"  >
<UnstructuredGrid>
<Piece  NumberOfPoints="10201" NumberOfCells="20000">
<Points>
<DataArray  type="Float64"  NumberOfComponents="3"  format="ascii">0 0 0  0.01 0 0  0.02 0 0  0.03 0 0  0.04 0 0  0.05 0 0  0.06 0 0  0.07000000000000001 0 0  0.08 0 0  0.09 0 0  0.1 0 0  0.11 0 0  0.12 0 0  0.13 0 0  0.14 0 0  0.15 0 0  0.16 0 0  0.17 0 0  0.18 0 0  0.19 0 0  0.2 0 0  0.21 0 0  0.22 0 0  0.23 0 0  0.24 0 0  0.25 0 0  0.26 0 0  0.27 0 0  0.28 0 0  0.29 0 0  0.3 0 0  0.31 0 0  0.32 0 0  0.33 0 0  0.34 0 0  0.35 0 0  0.36 0 0  0.37 0 0  0.38 0 0  0.39 0 0  0.4 0 0  0.41 0 0  0.42 0 0  0.43 0 0  0.44 0 0  0.45 0 0  0.46 0 0  0.47 0 0  0.48 0 0  0.49 0 0  0.5 0 0  0.51 0 0  0.52 0 0  0.53 0 0  0.54 0 0  0.55 0 0  0.5600000000000001 0 0  0.57 0 0  0.58 0 0  0.59 0 0  0.6 0 0  0.61 0 0  0.62 0 0  0.63 0 0  0.64 0 0  0.65 0 0  0.66 0 0  0.67 0 0  0.68 0 0  0.6899999999999999 0 0  0.7 0 0  0.71 0 0  0.72 0 0  0.73 0 0  0.74 0 0  0.75 0 0  0.76 0 0  0.77 0 0  0.78 0 0  0.79 0 0  0.8 0 0  0.8100000000000001 0 0  0.82 0 0  0.83 0 0  0.84 0 0  0.85 0 0  0.86 0 0  0.87 0 0  0.88 0 0  0.89 0 0  0.9 0 0  0.91 0 0  0.92 0 0  0.93 0 0  0.9399999999999999 0 0  0.95 0 0  0.96 0 0  0.97 0 0  0.98 0 0  0.99 0 0  1 0 0  0 0.01 0  0.01 0.01 0  0.02 0.01 0  0.03 0.01 0  0.04 0.01 0  0.05 0.01 0  0.06 0.01 0  0.07000000000000001 0.01 0  0.08 0.01 0  0.09 0.01 0  0.1 0.01 0  0.11 0.01 0  0.12 0.01 0  0.13 0.01 0  0.14 0.01 0  0.15 0.01 0  0.16 0.01 0  0.17 0.01 0  0.18 0.01 0  0.19 0.01 0  0.2 0.01 0  0.21 0.01 0  0.22 0.01 0  0.23 0.01 0  0.24 0.01 0  0.25 0.01 0  0.26 0.01 0  0.27 0.01 0  0.28 0.01 0  0.29 0.01 0  0.3 0.01 0  0.31 0.01 0  0.32 0.01 0  0.33 0.01 0  0.34 0.01 0  0.35 0.01 0  0.36 0.01 0  0.37 0.01 0  0.38 0.01 0  0.39 0.01 0  0.4 0.01 0  0.41 0.01 0  0.42 0.01 0  0.43 0.01 0  0.44 0.01 0  0.45 0.01 0  0.46 0.01 0  0.47 0.01 0  0.48 0.01 0  0.49 0.01 0  0.5 0.01 0  0.51 0.01 0  0.52 0.01 0  0.53 0.01 0  0.54 0.01 0  0.55 0.01 0  0.5600000000000001 0.01 0  0.57 0.01 0  0.58 0.01 0  0.59 0.01 0  0.6 0.01 0  0.61 0.01 0  0.62 0.01 0  0.63 0.01 0  0.64 0.01 0  0.65 0.01 0  0.66 0.01 0  0.67 0.01 0  0.68 0.01 0  0.6899999999999999 0.01 0  0.7 0.01 0  0.71 0.01 0  0.72 0.01 0  0.73 0.01 0  0.74 0.01 0  0.75 0.01 0  0.76 0.01 0  0.77 0.01 0  0.78 0.01 0  0.79 0.01 0  0.8 0.01 0  0.8100000000000001 0.01 0  0.82 0.01 0  0.83 0.01 0  0.84 0.01 0  0.85 0.01 0  0.86 0.01 0  0.87 0.01 0  0.88 0.01 0  0.89 0.01 0  0.9 0.01 0  0.91 0.01 0  0.92 0.01 0  0.93 0.01 0  0.9399999999999999 0.01 0  0.95 0.01 0  0.96 0.01 0  0.97 0.01 0  0.98 0.01 0  0.99 0.01 0  1 0.01 0  0 0.02 0  0.01 0.02 0  0.02 0.02 0  0.03 0.02 0  0.04 0.02 0  0.05 0.02 0  0.06 0.02 0  0.07000000000000001 0.02 0  0.08 0.02 0  0.09 0.02 0  0.1 0.02 0  0.11 0.02 0  0.12 0.02 0  0.13 0.02 0  0.14 0.02 0  0.15 0.02 0  0.16 0.02 0  0.17 0.02 0  0.18 0.02 0  0.19 0.02 0  0.2 0.02 0  0.21 0.02 0  0.22 0.02 0  0.23 0.02 0  0.24 0.02 0  0.25 0.02 0  0.26 0.02 0  0.27 0.02 0  0.28 0.02 0  0.29 0.02 0  0.3 0.02 0  0.31 0.02 0  0.32 0.02 0  0.33 0.02 0  0.34 0.02 0  0.35 0.02 0  0.36 0.02 0  0.37 0.02 0  0.38 0.02 0  0.39 0.02 0  0.4 0.02 0  0.41 0.02 0  0.42 0.02 0  0.43 0.02 0  0.44 0.02 0  0.45 0.02 0  0.46 0.02 0  0.47 0.02 0  0.48 0.02 0  0.49 0.02 0  0.5 0.02 0  0.51 0.02 0  0.52 0.02 0  0.53 0.02 0  0.54 0.02 0  0.55 0.02 0  0.5600000000000001 0.02 0  0.57 0.02 0  0.58 0.02 0  0.59 0.02 0  0.6 0.02 0  0.61 0.02 0  0.62 0.02 0  0.63 0.02 0  0.64 0.02 0  0.65 0.02 0  0.66 0.02 0  0.67 0.02 0  0.68 0.02 0  0.6899999999999999 0.02 0  0.7 0.02 0  0.71 0.02 0  0.72 0.02 0  0.73 0.02 0  0.74 0.02 0  0.75 0.02 0  0.76 0.02 0  0.77 0.02 0  0.78 0.02 0  0.79 0.02 0  0.8 0.02 0  0.8100000000000001 0.02 0  0.82 0.02 0  0.83 0.02 0  0.84 0.02 0  0.85 0.02 0  0.86 0.02 0  0.87 0.02 0  0.88 0.02 0  0.89 0.02 0  0.9 0.02 0  0.91 0.02 0  0.92 0.02 0  0.93 0.02 0  0.9399999999999999 0.02 0  0.95 0.02 0  0.96 0.02 0  0.97 0.02 0  0.98 0.02 0  0.99 0.02 0  1 0.02 0  0 0.03 0  0.01 0.03 0  0.02 0.03 0  0.03 0.03 0  0.04 0.03 0  0.05 0.03 0  0.06 0.03 0  0.07000000000000001 0.03 0  0.08 0.03 0  0.09 0.03 0  0.1 0.03 0  0.11 0.03 0  0.12 0.03 0  0.13 0.03 0  0.14 0.03 0  0.15 0.03 0  0.16 0.03 0  0.17 0.03 0  0.18 0.03 0  0.19 0.03 0  0.2 0.03 0  0.21 0.03 0  0.22 0.03 0  0.23 0.03 0  0.24 0.03 0  0.25 0.03 0  0.26 0.03 0  0.27 0.03 0  0.28 0.03 0  0.29 0.03 0  0.3 0.03 0  0.31 0.03 0  0.32 0.03 0  0.33 0.03 0  0.34 0.03 0  0.35 0.03 0  0.36 0.03 0  0.37 0.03 0  0.38 0.03 0  0.39 0.03 0  0.4 0.03 0  0.41 0.03 0  0.42 0.03 0  0.43 0.03 0  0.44 0.03 0  0.45 0.03 0  0.46 0.03 0  0.47 0.03 0  0.48 0.03 0  0.49 0.03 0  0.5 0.03 0  0.51 0.03 0  0.52 0.03 0  0.53 0.03 0  0.54 0.03 0  0.55 0.03 0  0.5600000000000001 0.03 0  0.57 0.03 0  0.58 0.03 0  0.59 0.03 0  0.6 0.03 0  0.61 0.03 0  0.62 0.03 0  0.63 0.03 0  0.64 0.03 0  0.65 0.03 0  0.66 0.03 0  0.67 0.03 0  0.68 0.03 0  0.6899999999999999 0.03 0  0.7 0.03 0  0.71 0.03 0  0.72 0.03 0  0.73 0.03 0  0.74 0.03 0  0.75 0.03 0  0.76 0.03 0  0.77 0.03 0  0.78 0.03 0  0.79 0.03 0  0.8 0.03 0  0.8100000000000001 0.03 0  0.82 0.03 0  0.83 0.03 0  0.84 0.03 0  0.85 0.03 0  0.86 0.03 0  0.87 0.03 0  0.88 0.03 0  0.89 0.03 0  0.9 0.03 0  0.91 0.03 0  0.92 0.03 0  0.93 0.03 0  0.9399999999999999 0.03 0  0.95 0.03 0  0.96 0.03 0  0.97 0.03 0  0.98 0.03 0  0.99 0.03 0  1 0.03 0  0 0.04 0  0.01 0.04 0  0.02 0.04 0  0.03 0.04 0  0.04 0.04 0  0.05 0.04 0  0.06 0.04 0  0.07000000000000001 0.04 0  0.08 0.04 0  0.09 0.04 0  0.1 0.04 0  0.11 0.04 0  0.12 0.04 0  0.13 0.04 0  0.14 0.04 0  0.15 0.04 0  0.16 0.04 0  0.17 0.04 0  0.18 0.04 0  0.19 0.04 0  0.2 0.04 0  0.21 0.04 0  0.22 0.04 0  0.23 0.04 0  0.24 0.04 0  0.25 0.04 0  0.26 0.04 0  0.27 0.04 0  0.28 0.04 0  0.29 0.04 0  0.3 0.04 0  0.31 0.04 0  0.32 0.04 0  0.33 0.04 0  0.34 0.04 0  0.35 0.04 0  0.36 0.04 0  0.37 0.04 0  0.38 0.04 0  0.39 0.04 0  0.4 0.04 0  0.41 0.04 0  0.42 0.04 0  0.43 0.04 0  0.44 0.04 0  0.45 0.04 0  0.46 0.04 0  0.47 0.04 0  0.48 0.04 0  0.49 0.04 0  0.5 0.04 0  0.51 0.04 0  0.52 0.04 0  0.53 0.04 0  0.54 0.04 0  0.55 0.04 0  0.5600000000000001 0.04 0  0.57 0.04 0  0.58 0.04 0  0.59 0.04 0  0.6 0.04 0  0.61 0.04 0  0.62 0.04 0  0.63 0.04 0  0.64 0.04 0  0.65 0.04 0  0.66 0.04 0  0.67 0.04 0  0.68 0.04 0  0.6899999999999999 0.04 0  0.7 0.04 0  0.71 0.04 0  0.72 0.04 0  0.73 0.04 0  0.74 0.04 0  0.75 0.04 0  0.76 0.04 0  0.77 0.04 0  0.78 0.04 0  0.79 0.04 0  0.8 0.04 0  0.8100000000000001 0.04 0  0.82 0.04 0  0.83 0.04 0  0.84 0.04 0  0.85 0.04 0  0.86 0.04 0  0.87 0.04 0  0.88 0.04 0  0.89 0.04 0  0.9 0.04 0  0.91 0.04 0  0.92 0.04 0  0.93 0.04 0  0.9399999999999999 0.04 0  0.95 0.04 0  0.96 0.04 0  0.97 0.04 0  0.98 0.04 0  0.99 0.04 0  1 0.04 0  0 0.05 0  0.01 0.05 0  0.02 0.05 0  0.03 0.05 0  0.04 0.05 0  0.05 0.05 0  0.06 0.05 0  0.07000000000000001 0.05 0  0.08 0.05 0  0.09 0.05 0  0.1 0.05 0  0.11 0.05 0  0.12 0.05 0  0.13 0.05 0  0.14 0.05 0  0.15 0.05 0  0.16 0.05 0  0.17 0.05 0  0.18 0.05 0  0.19 0.05 0  0.2 0.05 0  0.21 0.05 0  0.22 0.05 0  0.23 0.05 0  0.24 0.05 0  0.25 0.05 0  0.26 0.05 0  0.27 0.05 0  0.28 0.05 0  0.29 0.05 0  0.3 0.05 0  0.31 0.05 0  0.32 0.05 0  0.33 0.05 0  0.34 0.05 0  0.35 0.05 0  0.36 0.05 0  0.37 0.05 0  0.38 0.05 0  0.39 0.05 0  0.4 0.05 0  0.41 0.05 0  0.42 0.05 0  0.43 0.05 0  0.44 0.05 0  0.45 0.05 0  0.46 0.05 0  0.47 0.05 0  0.48 0.05 0  0.49 0.05 0  0.5 0.05 0  0.51 0.05 0  0.52 0.05 0  0.53 0.05 0  0.54 0.05 0  0.55 0.05 0  0.5600000000000001 0.05 0  0.57 0.05 0  0.58 0.05 0  0.59 0.05 0  0.6 0.05 0  0.61 0.05 0  0.62 0.05 0  0.63 0.05 0  0.64 0.05 0  0.65 0.05 0  0.66 0.05 0  0.67 0.05 0  0.68 0.05 0  0.6899999999999999 0.05 0  0.7 0.05 0  0.71 0.05 0  0.72 0.05 0  0.73 0.05 0  0.74 0.05 0  0.75 0.05 0  0.76 0.05 0  0.77 0.05 0  0.78 0.05 0  0.79 0.05 0  0.8 0.05 0  0.8100000000000001 0.05 0  0.82 0.05 0  0.83 0.05 0  0.84 0.05 0  0.85 0.05 0  0.86 0.05 0  0.87 0.05 0  0.88 0.05 0  0.89 0.05 0  0.9 0.05 0  0.91 0.05 0  0.92 0.05 0  0.93 0.05 0  0.9399999999999999 0.05 0  0.95 0.05 0  0.96 0.05 0  0.97 0.05 0  0.98 0.05 0  0.99 0.05 0  1 0.05 0  0 0.06 0  0.01 0.06 0  0.02 0.06 0  0.03 0.06 0  0.04 0.06 0  0.05 0.06 0  0.06 0.06 0  0.07000000000000001 0.06 0  0.08 0.06 0  0.09 0.06 0  0.1 0.06 0  0.11 0.06 0  0.12 0.06 0  0.13 0.06 0  0.14 0.06 0  0.15 0.06 0  0.16 0.06 0  0.17 0.06 0  0.18 0.06 0  0.19 0.06 0  0.2 0.06 0  0.21 0.06 0  0.22 0.06 0  0.23 0.06 0  0.24 0.06 0  0.25 0.06 0  0.26 0.06 0  0.27 0.06 0  0.28 0.06 0  0.29 0.06 0  0.3 0.06 0  0.31 0.06 0  0.32 0.06 0  0.33 0.06 0  0.34 0.06 0  0.35 0.06 0  0.36 0.06 0  0.37 0.06 0  0.38 0.06 0  0.39 0.06 0  0.4 0.06 0  0.41 0.06 0  0.42 0.06 0  0.43 0.06 0  0.44 0.06 0  0.45 0.06 0  0.46 0.06 0  0.47 0.06 0  0.48 0.06 0  0.49 0.06 0  0.5 0.06 0  0.51 0.06 0  0.52 0.06 0  0.53 0.06 0  0.54 0.06 0  0.55 0.06 0  0.5600000000000001 0.06 0  0.57 0.06 0  0.58 0.06 0  0.59 0.06 0  0.6 0.06 0  0.61 0.06 0  0.62 0.06 0  0.63 0.06 0  0.64 0.06 0  0.65 0.06 0  0.66 0.06 0  0.67 0.06 0  0.68 0.06 0  0.6899999999999999 0.06 0  0.7 0.06 0  0.71 0.06 0  0.72 0.06 0  0.73 0.06 0  0.74 0.06 0  0.75 0.06 0  0.76 0.06 0  0.77 0.06 0  0.78 0.06 0  0.79 0.06 0  0.8 0.06 0  0.8100000000000001 0.06 0  0.82 0.06 0  0.83 0.06 0  0.84 0.06 0  0.85 0.06 0  0.86 0.06 0  0.87 0.06 0  0.88 0.06 0  0.89 0.06 0  0.9 0.06 0  0.91 0.06 0  0.92 0.06 0  0.93 0.06 0  0.9399999999999999 0.06 0  0.95 0.06 0  0.96 0.06 0  0.97 0.06 0  0.98 0.06 0  0.99 0.06 0  1 0.06 0  0 0.07000000000000001 0  0.01 0.07000000000000001 0  0.02 0.07000000000000001 0  0.03 0.07000000000000001 0  0.04 0.07000000000000001 0  0.05 0.07000000000000001 0  0.06 0.07000000000000001 0  0.07000000000000001 0.07000000000000001 0  0.08 0.07000000000000001 0  0.09 0.07000000000000001 0  0.1 0.07000000000000001 0  0.11 0.07000000000000001 0  0.12 0.07000000000000001 0  0.13 0.07000000000000001 0  0.14 0.07000000000000001 0  0.15 0.07000000000000001 0  0.16 0.07000000000000001 0  0.17 0.0700
[...]
<PointData  Scalars="u"> 
<DataArray  type="Float64"  Name="u"  format="ascii">0.0000000000000000e+00  0.0000000000000000e+00  0.0000000000000000e+00  0.0000000000000000e+00  0.0000000000000000e+00  0.0000000000000000e+00  0.0000000000000000e+00  0.0000000000000000e+00  0.0000000000000000e+00  0.0000000000000000e+00  0.0000000000000000e+00  0.0000000000000000e+00  0.0000000000000000e+00  0.0000000000000000e+00  0.0000000000000000e+00  0.0000000000000000e+00  0.0000000000000000e+00  0.0000000000000000e+00  0.0000000000000000e+00  0.0000000000000000e+00  0.0000000000000000e+00  0.0000000000000000e+00  0.0000000000000000e+00  0.0000000000000000e+00  0.0000000000000000e+00  0.0000000000000000e+00  0.0000000000000000e+00  0.0000000000000000e+00  0.0000000000000000e+00  0.0000000000000000e+00  0.0000000000000000e+00  0.0000000000000000e+00  0.0000000000000000e+00  0.0000000000000000e+00  0.0000000000000000e+00  0.0000000000000000e+00  0.0000000000000000e+00  0.0000000000000000e+00  0.0000000000000000e+00  0.0000000000000000e+00  0.0000000000000000e+00  0.0000000000000000e+00  0.0000000000000000e+00  0.0000000000000000e+00  0.0000000000000000e+00  0.0000000000000000e+00  0.0000000000000000e+00  0.0000000000000000e+00  0.0000000000000000e+00  0.0000000000000000e+00  0.0000000000000000e+00  0.0000000000000000e+00  0.0000000000000000e+00  0.0000000000000000e+00  0.0000000000000000e+00  0.0000000000000000e+00  0.0000000000000000e+00  0.0000000000000000e+00  0.0000000000000000e+00  0.0000000000000000e+00  0.0000000000000000e+00  0.0000000000000000e+00  0.0000000000000000e+00  0.0000000000000000e+00  0.0000000000000000e+00  0.0000000000000000e+00  0.0000000000000000e+00  0.0000000000000000e+00  0.0000000000000000e+00  0.0000000000000000e+00  0.0000000000000000e+00  0.0000000000000000e+00  0.0000000000000000e+00  0.0000000000000000e+00  0.0000000000000000e+00  0.0000000000000000e+00  0.0000000000000000e+00  0.0000000000000000e+00  0.0000000000000000e+00  0.0000000000000000e+00  0.0000000000000000e+00  0.0000000000000000e+00  0.0000000000000000e+00  0.0000000000000000e+00  0.0000000000000000e+00  0.0000000000000000e+00  0.0000000000000000e+00  0.0000000000000000e+00  0.0000000000000000e+00  0.0000000000000000e+00  0.0000000000000000e+00  0.0000000000000000e+00  0.0000000000000000e+00  0.0000000000000000e+00  0.0000000000000000e+00  0.0000000000000000e+00  0.0000000000000000e+00  0.0000000000000000e+00  0.0000000000000000e+00  0.0000000000000000e+00  0.0000000000000000e+00  0.0000000000000000e+00  -1.6903825422785221e-02  -6.6507745124549919e-02  -2.1499504769912293e-02  -1.9786409939470433e-02  1.8144489929805184e-02  -1.5965251337956291e-02  -1.5157112038295027e-02  3.7053235107279731e-02  -5.8181035785465796e-02  -3.4732423131715105e-03  7.1995491261874239e-02  -2.2533083803958447e-02  -8.8601464599398730e-02  4.4148559666366542e-02  -1.9269470309435120e-02  -4.7122948994511079e-03  9.7559719427652777e-03  -3.6802315209543975e-02  9.7206939475036502e-02  -6.1810981075429629e-02  5.2528025349030359e-02  -6.5414727014054083e-02  2.1125067717898526e-02  -1.1531880022586689e-02  6.0658445779500282e-02  -6.6163394208721762e-02  3.7421790603635145e-02  -1.8657801390868447e-02  -9.5417395393875646e-03  6.0733027648245761e-03  5.1406396405378772e-02  -7.3002477916420672e-02  1.4641550778663493e-02  7.8597969036452164e-04  7.9980375452249513e-04  1.8528455978655673e-02  1.4478863928255531e-02  4.3633551794250984e-02  5.1974062843325834e-03  -2.7754921644836450e-02  -1.8110608801471619e-02  -8.9550966607001136e-03  -2.1109618460225514e-02  1.0569226400052914e-02  3.7137692370973106e-02  -4.4049273574778516e-02  2.0498105947841322e-02  -6.3130998078477531e-03  9.6438246542295304e-03  -9.8726625828436752e-03  9.7673593124677979e-03  2.4108111421747925e-03  -8.7046629981946001e-03  -2.4235104405893456e-03  3.7307176223746056e-03  5.7115576991334438e-03  -5.4464043687283805e-03  3.6164105790279081e-03  -1.5321468642034914e-03  1.0607110548830113e-03  -8.2164004994646894e-04  -4.0410173860158752e-04  2.4829261678830815e-04  -1.0399491241644770e-04  3.4809845732917738e-04  4.2679928862674366e-04  -1.6207676323812674e-04  3.1267879867498616e-04  1.1839826195911892e-03  -5.7652706346531554e-04  -5.8643831251196552e-04  8.9739441832056410e-04  -1.5880921679444784e-03  -3.6248037154081626e-03  -3.6551231957507080e-04  3.1573016629452199e-03  1.9162028705674680e-03  3.1939219786893114e-04  -1.2459415512391245e-04  -1.3272468209891064e-04  -2.9468946195844074e-04  3.0989487234497540e-04  8.2648781979873269e-04  4.6859637840309884e-04  -1.0935900729654527e-04  -2.4032744280807708e-04  -1.9026071172616646e-04  7.3462835892194216e-05  -3.5981192662354738e-05  -1.0766530863718331e-04  -6.7753778225473484e-05  -2.8310213483540285e-05  -1.7768950070860698e-05  5.4332705926049960e-06  1.1734394597671116e-05  1.3193586904165059e-05  1.3468601008882615e-05  1.2929197267016344e-05  1.0650355068559303e-05  0.0000000000000000e+00  0.0000000000000000e+00  -1.2126493487609373e-02  -1.8870901344468820e-02  5.2658915743619417e-02  -3.3271738188454844e-02  -6.2883697594102214e-02  -1.2726864032977476e-02  5.0532360880116936e-02  -3.5748509146732478e-02  -8.2681093275394829e-02  1.3498113412135176e-01  -9.6039402100184509e-02  -2.8455315582934952e-02  1.1299307596850754e-01  -1.1033120979426525e-01  -9.9265858261195064e-02  7.7049441334014701e-02  -4.3138478177517078e-02  7.1094219975594383e-02  -2.0844776039693598e-02  -1.6599093898706365e-02  1.0458990424929299e-01  -1.1161832260159679e-01  3.1017872517557056e-03  5.8015108815491767e-02  -2.6488267946707798e-02  -2.9246489517190402e-02  4.1692465457786120e-02  5.1470464298919742e-03  1.3522605503846410e-03  -9.5984305113887863e-02  9.4569679468791440e-02  2.6981657203739240e-02  -6.1698155701659541e-02  -4.1851716115765415e-02  2.0414233580813044e-02  2.7100824946292866e-02  5.8166139562200819e-02  3.0595656420372756e-02  2.5378444704576039e-03  4.8860709822443261e-02  -4.6135220054099570e-02  -7.6644897659145755e-02  2.9833684589934906e-04  4.0081932395635220e-03  4.1015825801109934e-02  -3.2207805662930133e-02  2.1656072948371352e-02  -3.4688967497910402e-02  4.3667237375470958e-02  -2.7812824062039478e-02  1.6146905280706378e-02  -1.1214946787442624e-04  8.1641985633266970e-03  -2.5563148566526042e-02  8.7606386397986076e-03  9.0143575210241047e-03  -1.0555166564456218e-04  -3.7061481695956585e-03  4.2825124479695543e-03  -2.2898569865132529e-03  1.8661581334189741e-03  -2.4002375393088046e-03  5.8028191419869936e-04  -1.5088453554366516e-04  2.1306624797983419e-04  7.2779134669536283e-04  5.1587812239979527e-04  -5.0945843293601079e-04  1.8563507805534946e-03  1.0838602096731056e-03  -2.0808667684763553e-03  6.3215621580324651e-04  4.8786588861091730e-04  -5.4536151808574377e-03  -5.0639285633320525e-03  3.2855827154745347e-03  5.4205870291063347e-03  1.6688517324658016e-03  -1.4292031374754378e-04  -1.9751631307135477e-04  -3.8642512050596499e-04  -1.7588391732943414e-04  1.2009240054899990e-03  1.4260843044585660e-03  2.7185063011169770e-04  -3.0107795163723236e-04  -4.6541568696141923e-04  -4.1898860397567589e-05  1.2745624556852897e-04  -1.4410350733123128e-04  -1.6634581803175129e-04  -7.9307232147018546e-05  -4.7902507814353837e-05  -2.4917066701516545e-05  8.1164102704662816e-06  5.4006406409151349e-06  9.4612871177562515e-06  1.0978411597780246e-05  1.9079951743807735e-05  0.0000000000000000e+00  0.0000000000000000e+00  5.2019807932289164e-02  5.0525955580384405e-02  -1.3634713506626875e-01  5.7113885518098650e-02  1.4057462967566908e-02  3.3628517501831746e-02  -6.4940837447473934e-02  1.3403358651893066e-02  7.7669309403717912e-02  -2.1908418522899370e-01  1.2618564274052543e-01  1.2759260736221203e-01  -1.6086762464557117e-01  -1.0898873908795723e-01  1.3115057299520222e-01  -1.4071818511707335e-01  1.5658804060519789e-02  -5.6598279254617394e-03  -2.4164671909348172e-02  2.3284991038554209e-01  -2.1913586374402177e-01  2.0075932258096957e-01  -2.2796903304749855e-01  6.8421327853222552e-02  2.3135041836894819e-02  1.2700365780111839e-01  -2.1832442908377578e-01  1.3082389532502536e-01  -3.7519363260885077e-02  6.8933210728903795e-03  -4.7544268987038334e-02  1.3738896013701274e-01  -1.5864301078902882e-01  5.4878253125942231e-02  -3.1750941771762325e-02  -4.5549086068208886e-03  5.1417712450121694e-02  6.6349754969756841e-02  1.1216790746399628e-01  -2.7273144055715733e-02  -3.6446133680717141e-02  -3.0930159222839419e-02  -5.5862670584951472e-02  -4.9977106046118887e-02  4.2423709620043555e-02  1.0543964049199399e-01  -1.3876896710686157e-01  8.0887912434083498e-02  -4.2334528485777519e-02  4.7258323264921687e-02  -4.0532735679519476e-02  3.3869104761882166e-02  2.2533080359473658e-04  -1.4366095390563690e-02  -1.5715338077013526e-02  1.3398311036250048e-02  1.5564004643767951e-02  -1.3543075873835336e-02  7.4195791312354400e-03  -2.4681602486845656e-03  1.6730158726800662e-03  -1.1544705109384238e-03  -1.6580470024515838e-03  9.1800610761449150e-04  -3.8799137707408281e-04  8.1978056372322737e-04  1.1496884399543081e-03  -2.5873559094828462e-04  4.1357688711461319e-04  3.3552734127656608e-03  -1.0023188772406437e-03  -2.2111946527594009e-03  2.4379534124088905e-03  -3.2022999690589113e-03  -9.7810034818903661e-03  -2.1611409560545352e-03  8.4959399871648352e-03  5.6727040333098208e-03  6.1356336332623153e-04  -6.8054456667465907e-04  -4.6589805434711694e-04  -7.8579971441845961e-04  6.4814788080768705e-04  2.2404899137131152e-03  1.4334769350922497e-03  -2.4036019217686734e-04  -5.9434299759398689e-04  -5.2199868436855962e-04  2.2595112837774510e-04  1.6074515021002363e-05  -2.4441246713032287e-04  -1.6800730154565514e-04  -6.8869740709845450e-05  -5.4424143230311827e-05  -8.1063120978520482e-06  9.3371297746760506e-06  3.2860108026972428e-06  -4.0720967275506087e-07  -2.2631145846211762e-06  0.0000000000000000e+00  0.0000000000000000e+00  -6.3509326018433773e-02  -5.7309974293713824e-02  7.0152669433234172e-02  4.5354628350961705e-02  -5.0586362492475438e-02  -6.3966382849142758e-02  6.5048782708425693e-02  7.0025041738635038e-02  -5.7928711056535784e-02  -3.3660266368055212e-02  9.1434400190842813e-02  -1.4048043856996406e-01  1.0644248061749292e-01  1.1042511236272896e-01  -3.0490204362772072e-01  -4.4378605740349346e-02  1.0924447493944707e-01  -6.7206364871419913e-02  8.7219672920779326e-02  -8.8608284796975287e-02  1.2610093295305172e-01  5.8252390178201961e-02  -9.1946116939501471e-02  -7.8927785592531940e-02  8.6991885447994161e-02  -4.8052008396809898e-02  6.4557508463865709e-02  -3.2572814497525207e-02  3.7000473306611520e-02  -3.3444347708773851e-02  -1.2650915169289120e-01  1.5682454439216759e-01  8.9853250790930414e-02  -1.9959843310533804e-01  -2.6911395679922710e-02  4.7585071471683310e-02  3.8381823461823207e-02  8.7757062229372143e-02  5.0654992127505329e-02  6.7992223421396839e-02  6.7031943868616994e-02  -1.1577936870682093e-01  -1.1872513953780582e-01  5.0919116961536262e-03  -2.1406373837048662e-02  6.9750239974976716e-02  1.0928255096976541e-02  -3.0691406286089167e-02  -1.9604169282805482e-02  5.3833213325508118e-02  -2.6328121344805458e-02  8.9586615346403647e-03  1.2788731883210207e-02  1.2091325392111803e-02  -4.5530136947388097e-02  9.5074914643251407e-03  1.7897820959990453e-02  5.0476351503540556e-03  -1.0641073084445722e-02  9.1955417282865437e-03  -4.7859618429126069e-03  3.4721639759448825e-03  -4.2072339508557226e-03  5.0198481285062700e-04  2.8851983911643700e-05  1.5148700433928475e-04  1.3311167979879782e-03  1.1306957038283029e-03  -1.0223401661891640e-03  2.9013387750017150e-03  2.7428992014806291e-03  -3.6379820645327395e-03  1.9227827846087178e-04  1.7328576689993392e-03  -9.2459641121798598e-03  -1.0856188286933672e-02  4.5920672151825801e-03  1.1281925627678874e-02  4.2178380833260316e-03  -3.3129485832479296e-04  -7.8044914195873709e-04  -9.4923701397599443e-04  -6.6381486568789993e-04  1.9526468539888707e-03  2.8028269240508077e-03  7.6691343528334662e-04  -6.2909097744348944e-04  -9.1987916801531430e-04  -2.4452131266745414e-04  2.7662219461716887e-04  -1.9021618910228878e-04  -2.9671118906940939e-04  -1.4166026374632444e-04  -7.1045203894830675e-05  -4.2016262144173988e-05  1.3144739640306836e-05  8.5334048261750604e-06  5.9979610479538623e-06  -1.4676825060250910e-06  0.0000000000000000e+00  0.0000000000000000e+00  1.4372256544459835e-01  1.0266135190077902e-01  -1.8414134281165045e-02  -1.6652180175196918e-01  1.5184484734923179e-01  2.5240755130686916e-02  -1.1157180837809949e-02  -6.0080984733298155e-02  8.5622012855492563e-02  6.1902048311397152e-02  -2.5733047212134874e-01  2.6630248592040845e-01  3.9125244510639368e-02  -1.8854166716719734e-01  1.3892083834724660e-02  4.9414514057754905e-02  -2.5060560313570196e-01  7.6979586285670143e-02  -7.9488238526410817e-03  4.9724741251554051e-02  2.0941061248950948e-01  -2.5407659848183245e-01  2.9311129199005626e-01  -3.2278355675737314e-01  9.2746074190123345e-02  6.6633922563668013e-02  8.6607304455636844e-02  -2.5720427103072391e-01  1.9114240065985097e-01  -2.1117888664922892e-02  -1.0014790760373524e-02  -1.3776423380902869e-01  2.2325503028504665e-01  -1.3058955668649305e-01  1.0384743902705426e-02  -8.2971632786931315e-02  7.3652302460184187e-03  9.4819686250218679e-02  1.2580650492972431e-01  1.3204788142425650e-01  -3.5488034807711073e-02  7.7563273525909160e-03  -7.2765110616985623e-02  -1.3076170997386061e-01  -5.1741899224737632e-02  5.9781746958589177e-02  1.3993966382741602e-01  -1.7121000473922929e-01  1.0420112592774179e-01  -6.9247327340267645e-02  8.3694678665584998e-02  -6.2784413105201206e-02  4.8143727792037454e-02  1.4674910855291105e-03  -1.1546569016169173e-02  -3.5945926156820227e-02  2.1465632923563342e-02  2.3555283345345845e-02  -1.5165383863016458e-02  6.1514376272916579e-03  -5.3102786463172049e-04  5.8301977772437952e-04  -4.6276914614212740e-04  -3.3603664493746252e-03  1.3146087889145469e-03  -5.9274482957333394e-04  9.6896327659860002e-04  1.7776201706783887e-03  -3.2727119201305782e-05  1.0058878806441230e-04  5.0139992487691449e-03  -4.2729219669143746e-04  -4.0351137645201806e-03  3.0426962042802469e-03  -3.3582766465354505e-03  -1.4821239117612749e-02  -5.9810001718896633e-03  1.2001894922487821e-02  1.0468419104829443e-02  1.9767015988348671e-03  -9.3350410396396888e-04  -8.4248787330774247e-04  -1.3200261077215756e-03  5.0602141058849750e-04  3.2611015422316261e-03  2.5020362665716129e-03  -1.3612273651473705e-04  -9.7391549630109788e-04  -9.4523733004644290e-04  1.4572975592932146e-04  6.7053286913493909e-05  -3.6628373599424294e-04  -2.9187579903282480e-04  -1.2334234116527943e-04  -8.1468470967396633e-05  -1.6229861601107450e-05  2.1013657481649508e-05  1.1155188498143122e-05  3.5984361876357963e-06  0.0000000000000000e+00  0.0000000000000000e+00  -1.2956582723479515e-01  -5.9767340485157139e-02  3.3528342188280255e-02  1.4713185929092792e-01  -5.1712565287918455e-02  -3.7675666389434620e-02  -2.6779710040144580e-02  1.0294073185805697e-01  3.8186640038982422e-02  -2.7626259074867734e-02  -3.8343769758742668e-03  -3.1800534008131265e-02  -8.2919388738103162e-03  1.8583446645299281e-01  -1.6535919437283237e-02  -3.3287907677121964e-01  4.8720672908412171e-02  3.7871495917285232e-02  -6.4487982611102335e-02  5.5959833623560377e-02  -4.9489140660711833e-02  2.5285917329125462e-01  -5.0108514012591317e-02  -2.7941834956250414e-03  -2.1272906197529368e-01  1.2292835191576137e-01  6.1243335983235002e-03  1.2063818476025703e-01  -1.6088782748379918e-01  8.8619351710682651e-02  -4.3217009698529346e-02  -9.8967911432668712e-02  1.3157962080238372e-01  1.3447391282830340e-01  -2.8233195625278629e-01  1.4539380483040423e-02  3.6051146643009867e-02  2.9550068512671623e-02  1.0867966189618652e-01  1.0574796213494191e-01  1.3829815139094465e-01  3.4694547932154901e-02  -1.3670440378760382e-01  -1.3165049510004712e-01  -3.2757330036943817e-02  -5.0557478589913170e-02  1.0051015634413293e-01  6.3211020427313663e-02  -1.0536320695488580e-01  2.4905504264495438e-02  3.0684507607114747e-02  2.3000872565252170e-03  -1.3947902306845681e-02  3.3341714279295928e-02  9.5403497890951226e-03  -5.1375241652936270e-02  -1.5986956669049948e-03  2.8558761926691816e-02  1.0291274371175090e-02  -1.4943005229819692e-02  1.1206570797978987e-02  -5.1115669212255799e-03  3.6950768960136472e-03  -4.6799213820753411e-03  -3.2601920481140008e-04  3.7603242560975810e-04  -4.5090020862997579e-05  1.6418411885935212e-03  1.7066122433328362e-03  -1.2594309777710193e-03  3.2252990931610696e-03  4.3936533958879248e-03  -4.1560894978885914e-03  -1.0670278546168240e-03  2.6423232735554034e-03  -1.1325715418148696e-02  -1.6193280244233187e-02  3.5913119330582086e-03  1.6099600117528572e-02  7.6070457174123741e-03  -1.0077478162130989e-05  -1.1534900468581732e-03  -1.3180688557245218e-03  -1.0251065978026329e-03  2.3443001173094067e-03  3.9950289818521867e-03  1.4693308235848653e-03  -7.9859057690630513e-04  -1.3200324347061672e-03  -5.4659335313509555e-04  2.8221045697252164e-04  -2.2201538811345012e-04  -4.4609377141519702e-04  -2.4937998442631627e-04  -1.2549538755259518e-04  -7.5738744545764193e-05  3.3168711473718619e-06  1.5479198372815145e-05  1.1579292208308991e-05  0.0000000000000000e+00  0.0000000000000000e+00  6.1977344063373296e-02  4.7786098764246644e-02  -2.9861914928216847e-02  -1.2351406597478905e-01  -8.1942131171831800e-02  1.7974165717532653e-01  2.7607040907206750e-03  -6.2204685873897672e-02  -1.7380414606770766e-02  1.0585681743509311e-01  3.8667931156679838e-02  -1.9604009835369060e-01  2.2079486493305886e-01  -1.1401210794376159e-02  -6.7570726106255502e-02  3.3959968766702375e-02  -1.1299533265150544e-01  -2.1791030511257875e-01  1.0477076533874236e-01  1.2969980725902781e-02  6.9513457679399468e-02  1.3112531033854752e-01  -1.3014932766080992e-01  2.5984106687991987e-01  -2.8140777873854561e-01  2.9165033692359753e-02  7.9326009001906006e-02  5.1382666936912624e-02  -1.6598254732632012e-01  1.4904124277216443e-01  1.5528554144406424e-02  -6.9031663738156321e-02  -1.6292873309559019e-01  2.8275455776033925e-01  -6.1402146131901529e-02  -1.1248008276664291e-01  -8.6248891035835829e-02  2.8522031558289109e-02  1.2663203733115130e-01  1.5818044908562814e-01  1.3927925324167248e-01  1.8621904811354534e-02  2.8209318444843295e-02  -1.3210559742951289e-01  -1.7525440433792058e-01  -5.0542881984070989e-02  4.8637758461923614e-02  1.5689268501437204e-01  -1.3423882197079676e-01  5.4282624046113885e-02  -5.0206708260150446e-02  8.5925876080845634e-02  -5.6787071794522997e-02  3.9546493917757455e-02  1.5004624335796378e-02  -1.2518723908710836e-02  -4.9954205618305880e-02  2.1042223964551417e-02  3.2600895745948745e-02  -1.2768942159317861e-02  2.7998352139861956e-03  1.9019879495369455e-03  -3.6950569442804605e-04  1.3890518118376928e-04  -4.3899162633957442e-03  1.2570450967359752e-03  -4.3974565547832912e-04  9.7674787478541298e-04  2.2386577277580416e-03  4.3608895840207456e-04  -2.6063663661498980e-04  5.9407122760095190e-03  7.2850958960207746e-04  -5.2532294069189012e-03  2.5870939195757050e-03  -2.9121803248696575e-03  -1.8323738786349977e-02  -1.0592008293808863e-02  1.3370060001359565e-02  1.5460016081655556e-02  4.2364426979411606e-03  -1.0773232908800382e-03  -1.2864952396502557e-03  -1.7879281017495025e-03  3.2066126364544670e-04  4.0289828042486759e-03  3.6549146687468253e-03  2.8592597672547770e-04  -1.2665805795500562e-03  -1.3103552080868386e-03  -5.2115774196515021e-05  9.4390915798944975e-05  -4.4355331357444865e-04  -4.2761181796536146e-04  -2.0888685739541579e-04  -1.2983850649723281e-04  -4.9283331657811202e-05  7.5156554094357995e-06  7.5109028824201008e-06  0.0000000000000000e+00  0.0000000000000000e+00  -1.6559348287620897e-02  2.0183566663758784e-02  4.1078163138307422e-02  7.5949751336223587e-02  4.4346762865597883e-02  -1.4498294042211424e-01  -4.8099157213917386e-