<?xml version="1.0"?>
<VTKFile type="UnstructuredGrid"  version="0.1"  >
<UnstructuredGrid>
<Piece  NumberOfPoints="10201" NumberOfCells="20000">
<Points>
<DataArray  type="Float64"  NumberOfComponents="3"  format="ascii">0 0 0  0.01 0 0  0.02 0 0  0.03 0 0  0.04 0 0  0.05 0 0  0.06 0 0  0.07000000000000001 0 0  0.08 0 0  0.09 0 0  0.1 0 0  0.11 0 0  0.12 0 0  0.13 0 0  0.14 0 0  0.15 0 0  0.16 0 0  0.17 0 0  0.18 0 0  0.19 0 0  0.2 0 0  0.21 0 0  0.22 0 0  0.23 0 0  0.24 0 0  0.25 0 0  0.26 0 0  0.27 0 0  0.28 0 0  0.29 0 0  0.3 0 0  0.31 0 0  0.32 0 0  0.33 0 0  0.34 0 0  0.35 0 0  0.36 0 0  0.37 0 0  0.38 0 0  0.39 0 0  0.4 0 0  0.41 0 0  0.42 0 0  0.43 0 0  0.44 0 0  0.45 0 0  0.46 0 0  0.47 0 0  0.48 0 0  0.49 0 0  0.5 0 0  0.51 0 0  0.52 0 0  0.53 0 0  0.54 0 0  0.55 0 0  0.5600000000000001 0 0  0.57 0 0  0.58 0 0  0.59 0 0  0.6 0 0  0.61 0 0  0.62 0 0  0.63 0 0  0.64 0 0  0.65 0 0  0.66 0 0  0.67 0 0  0.68 0 0  0.6899999999999999 0 0  0.7 0 0  0.71 0 0  0.72 0 0  0.73 0 0  0.74 0 0  0.75 0 0  0.76 0 0  0.77 0 0  0.78 0 0  0.79 0 0  0.8 0 0  0.8100000000000001 0 0  0.82 0 0  0.83 0 0  0.84 0 0  0.85 0 0  0.86 0 0  0.87 0 0  0.88 0 0  0.89 0 0  0.9 0 0  0.91 0 0  0.92 0 0  0.93 0 0  0.9399999999999999 0 0  0.95 0 0  0.96 0 0  0.97 0 0  0.98 0 0  0.99 0 0  1 0 0  0 0.01 0  0.01 0.01 0  0.02 0.01 0  0.03 0.01 0  0.04 0.01 0  0.05 0.01 0  0.06 0.01 0  0.07000000000000001 0.01 0  0.08 0.01 0  0.09 0.01 0  0.1 0.01 0  0.11 0.01 0  0.12 0.01 0  0.13 0.01 0  0.14 0.01 0  0.15 0.01 0  0.16 0.01 0  0.17 0.01 0  0.18 0.01 0  0.19 0.01 0  0.2 0.01 0  0.21 0.01 0  0.22 0.01 0  0.23 0.01 0  0.24 0.01 0  0.25 0.01 0  0.26 0.01 0  0.27 0.01 0  0.28 0.01 0  0.29 0.01 0  0.3 0.01 0  0.31 0.01 0  0.32 0.01 0  0.33 0.01 0  0.34 0.01 0  0.35 0.01 0  0.36 0.01 0  0.37 0.01 0  0.38 0.01 0  0.39 0.01 0  0.4 0.01 0  0.41 0.01 0  0.42 0.01 0  0.43 0.01 0  0.44 0.01 0  0.45 0.01 0  0.46 0.01 0  0.47 0.01 0  0.48 0.01 0  0.49 0.01 0  0.5 0.01 0  0.51 0.01 0  0.52 0.01 0  0.53 0.01 0  0.54 0.01 0  0.55 0.01 0  0.5600000000000001 0.01 0  0.57 0.01 0  0.58 0.01 0  0.59 0.01 0  0.6 0.01 0  0.61 0.01 0  0.62 0.01 0  0.63 0.01 0  0.64 0.01 0  0.65 0.01 0  0.66 0.01 0  0.67 0.01 0  0.68 0.01 0  0.6899999999999999 0.01 0  0.7 0.01 0  0.71 0.01 0  0.72 0.01 0  0.73 0.01 0  0.74 0.01 0  0.75 0.01 0  0.76 0.01 0  0.77 0.01 0  0.78 0.01 0  0.79 0.01 0  0.8 0.01 0  0.8100000000000001 0.01 0  0.82 0.01 0  0.83 0.01 0  0.84 0.01 0  0.85 0.01 0  0.86 0.01 0  0.87 0.01 0  0.88 0.01 0  0.89 0.01 0  0.9 0.01 0  0.91 0.01 0  0.92 0.01 0  0.93 0.01 0  0.9399999999999999 0.01 0  0.95 0.01 0  0.96 0.01 0  0.97 0.01 0  0.98 0.01 0  0.99 0.01 0  1 0.01 0  0 0.02 0  0.01 0.02 0  0.02 0.02 0  0.03 0.02 0  0.04 0.02 0  0.05 0.02 0  0.06 0.02 0  0.07000000000000001 0.02 0  0.08 0.02 0  0.09 0.02 0  0.1 0.02 0  0.11 0.02 0  0.12 0.02 0  0.13 0.02 0  0.14 0.02 0  0.15 0.02 0  0.16 0.02 0  0.17 0.02 0  0.18 0.02 0  0.19 0.02 0  0.2 0.02 0  0.21 0.02 0  0.22 0.02 0  0.23 0.02 0  0.24 0.02 0  0.25 0.02 0  0.26 0.02 0  0.27 0.02 0  0.28 0.02 0  0.29 0.02 0  0.3 0.02 0  0.31 0.02 0  0.32 0.02 0  0.33 0.02 0  0.34 0.02 0  0.35 0.02 0  0.36 0.02 0  0.37 0.02 0  0.38 0.02 0  0.39 0.02 0  0.4 0.02 0  0.41 0.02 0  0.42 0.02 0  0.43 0.02 0  0.44 0.02 0  0.45 0.02 0  0.46 0.02 0  0.47 0.02 0  0.48 0.02 0  0.49 0.02 0  0.5 0.02 0  0.51 0.02 0  0.52 0.02 0  0.53 0.02 0  0.54 0.02 0  0.55 0.02 0  0.5600000000000001 0.02 0  0.57 0.02 0  0.58 0.02 0  0.59 0.02 0  0.6 0.02 0  0.61 0.02 0  0.62 0.02 0  0.63 0.02 0  0.64 0.02 0  0.65 0.02 0  0.66 0.02 0  0.67 0.02 0  0.68 0.02 0  0.6899999999999999 0.02 0  0.7 0.02 0  0.71 0.02 0  0.72 0.02 0  0.73 0.02 0  0.74 0.02 0  0.75 0.02 0  0.76 0.02 0  0.77 0.02 0  0.78 0.02 0  0.79 0.02 0  0.8 0.02 0  0.8100000000000001 0.02 0  0.82 0.02 0  0.83 0.02 0  0.84 0.02 0  0.85 0.02 0  0.86 0.02 0  0.87 0.02 0  0.88 0.02 0  0.89 0.02 0  0.9 0.02 0  0.91 0.02 0  0.92 0.02 0  0.93 0.02 0  0.9399999999999999 0.02 0  0.95 0.02 0  0.96 0.02 0  0.97 0.02 0  0.98 0.02 0  0.99 0.02 0  1 0.02 0  0 0.03 0  0.01 0.03 0  0.02 0.03 0  0.03 0.03 0  0.04 0.03 0  0.05 0.03 0  0.06 0.03 0  0.07000000000000001 0.03 0  0.08 0.03 0  0.09 0.03 0  0.1 0.03 0  0.11 0.03 0  0.12 0.03 0  0.13 0.03 0  0.14 0.03 0  0.15 0.03 0  0.16 0.03 0  0.17 0.03 0  0.18 0.03 0  0.19 0.03 0  0.2 0.03 0  0.21 0.03 0  0.22 0.03 0  0.23 0.03 0  0.24 0.03 0  0.25 0.03 0  0.26 0.03 0  0.27 0.03 0  0.28 0.03 0  0.29 0.03 0  0.3 0.03 0  0.31 0.03 0  0.32 0.03 0  0.33 0.03 0  0.34 0.03 0  0.35 0.03 0  0.36 0.03 0  0.37 0.03 0  0.38 0.03 0  0.39 0.03 0  0.4 0.03 0  0.41 0.03 0  0.42 0.03 0  0.43 0.03 0  0.44 0.03 0  0.45 0.03 0  0.46 0.03 0  0.47 0.03 0  0.48 0.03 0  0.49 0.03 0  0.5 0.03 0  0.51 0.03 0  0.52 0.03 0  0.53 0.03 0  0.54 0.03 0  0.55 0.03 0  0.5600000000000001 0.03 0  0.57 0.03 0  0.58 0.03 0  0.59 0.03 0  0.6 0.03 0  0.61 0.03 0  0.62 0.03 0  0.63 0.03 0  0.64 0.03 0  0.65 0.03 0  0.66 0.03 0  0.67 0.03 0  0.68 0.03 0  0.6899999999999999 0.03 0  0.7 0.03 0  0.71 0.03 0  0.72 0.03 0  0.73 0.03 0  0.74 0.03 0  0.75 0.03 0  0.76 0.03 0  0.77 0.03 0  0.78 0.03 0  0.79 0.03 0  0.8 0.03 0  0.8100000000000001 0.03 0  0.82 0.03 0  0.83 0.03 0  0.84 0.03 0  0.85 0.03 0  0.86 0.03 0  0.87 0.03 0  0.88 0.03 0  0.89 0.03 0  0.9 0.03 0  0.91 0.03 0  0.92 0.03 0  0.93 0.03 0  0.9399999999999999 0.03 0  0.95 0.03 0  0.96 0.03 0  0.97 0.03 0  0.98 0.03 0  0.99 0.03 0  1 0.03 0  0 0.04 0  0.01 0.04 0  0.02 0.04 0  0.03 0.04 0  0.04 0.04 0  0.05 0.04 0  0.06 0.04 0  0.07000000000000001 0.04 0  0.08 0.04 0  0.09 0.04 0  0.1 0.04 0  0.11 0.04 0  0.12 0.04 0  0.13 0.04 0  0.14 0.04 0  0.15 0.04 0  0.16 0.04 0  0.17 0.04 0  0.18 0.04 0  0.19 0.04 0  0.2 0.04 0  0.21 0.04 0  0.22 0.04 0  0.23 0.04 0  0.24 0.04 0  0.25 0.04 0  0.26 0.04 0  0.27 0.04 0  0.28 0.04 0  0.29 0.04 0  0.3 0.04 0  0.31 0.04 0  0.32 0.04 0  0.33 0.04 0  0.34 0.04 0  0.35 0.04 0  0.36 0.04 0  0.37 0.04 0  0.38 0.04 0  0.39 0.04 0  0.4 0.04 0  0.41 0.04 0  0.42 0.04 0  0.43 0.04 0  0.44 0.04 0  0.45 0.04 0  0.46 0.04 0  0.47 0.04 0  0.48 0.04 0  0.49 0.04 0  0.5 0.04 0  0.51 0.04 0  0.52 0.04 0  0.53 0.04 0  0.54 0.04 0  0.55 0.04 0  0.5600000000000001 0.04 0  0.57 0.04 0  0.58 0.04 0  0.59 0.04 0  0.6 0.04 0  0.61 0.04 0  0.62 0.04 0  0.63 0.04 0  0.64 0.04 0  0.65 0.04 0  0.66 0.04 0  0.67 0.04 0  0.68 0.04 0  0.6899999999999999 0.04 0  0.7 0.04 0  0.71 0.04 0  0.72 0.04 0  0.73 0.04 0  0.74 0.04 0  0.75 0.04 0  0.76 0.04 0  0.77 0.04 0  0.78 0.04 0  0.79 0.04 0  0.8 0.04 0  0.8100000000000001 0.04 0  0.82 0.04 0  0.83 0.04 0  0.84 0.04 0  0.85 0.04 0  0.86 0.04 0  0.87 0.04 0  0.88 0.04 0  0.89 0.04 0  0.9 0.04 0  0.91 0.04 0  0.92 0.04 0  0.93 0.04 0  0.9399999999999999 0.04 0  0.95 0.04 0  0.96 0.04 0  0.97 0.04 0  0.98 0.04 0  0.99 0.04 0  1 0.04 0  0 0.05 0  0.01 0.05 0  0.02 0.05 0  0.03 0.05 0  0.04 0.05 0  0.05 0.05 0  0.06 0.05 0  0.07000000000000001 0.05 0  0.08 0.05 0  0.09 0.05 0  0.1 0.05 0  0.11 0.05 0  0.12 0.05 0  0.13 0.05 0  0.14 0.05 0  0.15 0.05 0  0.16 0.05 0  0.17 0.05 0  0.18 0.05 0  0.19 0.05 0  0.2 0.05 0  0.21 0.05 0  0.22 0.05 0  0.23 0.05 0  0.24 0.05 0  0.25 0.05 0  0.26 0.05 0  0.27 0.05 0  0.28 0.05 0  0.29 0.05 0  0.3 0.05 0  0.31 0.05 0  0.32 0.05 0  0.33 0.05 0  0.34 0.05 0  0.35 0.05 0  0.36 0.05 0  0.37 0.05 0  0.38 0.05 0  0.39 0.05 0  0.4 0.05 0  0.41 0.05 0  0.42 0.05 0  0.43 0.05 0  0.44 0.05 0  0.45 0.05 0  0.46 0.05 0  0.47 0.05 0  0.48 0.05 0  0.49 0.05 0  0.5 0.05 0  0.51 0.05 0  0.52 0.05 0  0.53 0.05 0  0.54 0.05 0  0.55 0.05 0  0.5600000000000001 0.05 0  0.57 0.05 0  0.58 0.05 0  0.59 0.05 0  0.6 0.05 0  0.61 0.05 0  0.62 0.05 0  0.63 0.05 0  0.64 0.05 0  0.65 0.05 0  0.66 0.05 0  0.67 0.05 0  0.68 0.05 0  0.6899999999999999 0.05 0  0.7 0.05 0  0.71 0.05 0  0.72 0.05 0  0.73 0.05 0  0.74 0.05 0  0.75 0.05 0  0.76 0.05 0  0.77 0.05 0  0.78 0.05 0  0.79 0.05 0  0.8 0.05 0  0.8100000000000001 0.05 0  0.82 0.05 0  0.83 0.05 0  0.84 0.05 0  0.85 0.05 0  0.86 0.05 0  0.87 0.05 0  0.88 0.05 0  0.89 0.05 0  0.9 0.05 0  0.91 0.05 0  0.92 0.05 0  0.93 0.05 0  0.9399999999999999 0.05 0  0.95 0.05 0  0.96 0.05 0  0.97 0.05 0  0.98 0.05 0  0.99 0.05 0  1 0.05 0  0 0.06 0  0.01 0.06 0  0.02 0.06 0  0.03 0.06 0  0.04 0.06 0  0.05 0.06 0  0.06 0.06 0  0.07000000000000001 0.06 0  0.08 0.06 0  0.09 0.06 0  0.1 0.06 0  0.11 0.06 0  0.12 0.06 0  0.13 0.06 0  0.14 0.06 0  0.15 0.06 0  0.16 0.06 0  0.17 0.06 0  0.18 0.06 0  0.19 0.06 0  0.2 0.06 0  0.21 0.06 0  0.22 0.06 0  0.23 0.06 0  0.24 0.06 0  0.25 0.06 0  0.26 0.06 0  0.27 0.06 0  0.28 0.06 0  0.29 0.06 0  0.3 0.06 0  0.31 0.06 0  0.32 0.06 0  0.33 0.06 0  0.34 0.06 0  0.35 0.06 0  0.36 0.06 0  0.37 0.06 0  0.38 0.06 0  0.39 0.06 0  0.4 0.06 0  0.41 0.06 0  0.42 0.06 0  0.43 0.06 0  0.44 0.06 0  0.45 0.06 0  0.46 0.06 0  0.47 0.06 0  0.48 0.06 0  0.49 0.06 0  0.5 0.06 0  0.51 0.06 0  0.52 0.06 0  0.53 0.06 0  0.54 0.06 0  0.55 0.06 0  0.5600000000000001 0.06 0  0.57 0.06 0  0.58 0.06 0  0.59 0.06 0  0.6 0.06 0  0.61 0.06 0  0.62 0.06 0  0.63 0.06 0  0.64 0.06 0  0.65 0.06 0  0.66 0.06 0  0.67 0.06 0  0.68 0.06 0  0.6899999999999999 0.06 0  0.7 0.06 0  0.71 0.06 0  0.72 0.06 0  0.73 0.06 0  0.74 0.06 0  0.75 0.06 0  0.76 0.06 0  0.77 0.06 0  0.78 0.06 0  0.79 0.06 0  0.8 0.06 0  0.8100000000000001 0.06 0  0.82 0.06 0  0.83 0.06 0  0.84 0.06 0  0.85 0.06 0  0.86 0.06 0  0.87 0.06 0  0.88 0.06 0  0.89 0.06 0  0.9 0.06 0  0.91 0.06 0  0.92 0.06 0  0.93 0.06 0  0.9399999999999999 0.06 0  0.95 0.06 0  0.96 0.06 0  0.97 0.06 0  0.98 0.06 0  0.99 0.06 0  1 0.06 0  0 0.07000000000000001 0  0.01 0.07000000000000001 0  0.02 0.07000000000000001 0  0.03 0.07000000000000001 0  0.04 0.07000000000000001 0  0.05 0.07000000000000001 0  0.06 0.07000000000000001 0  0.07000000000000001 0.07000000000000001 0  0.08 0.07000000000000001 0  0.09 0.07000000000000001 0  0.1 0.07000000000000001 0  0.11 0.07000000000000001 0  0.12 0.07000000000000001 0  0.13 0.07000000000000001 0  0.14 0.07000000000000001 0  0.15 0.07000000000000001 0  0.16 0.07000000000000001 0  0.17 0.0700
[...]
<PointData  Scalars="Indicator Function"> 
<DataArray  type="Float64"  Name="Indicator Function"  format="ascii">-3.9041146264156276e-23  3.8409480791260504e-22  5.6119250111464501e-23  6.5074706082962656e-22  4.2754694228386916e-21  -1.9565311866620605e-23  -1.4348673560610175e-23  5.1251972029638989e-22  7.6172370312821930e-20  -1.5046327690525280e-36  -4.5041067203192746e-22  9.8746274566125190e-21  -1.1043175384190631e-22  -1.8807909613156600e-36  1.9555811461141955e-20  -2.2427262933241786e-22  -5.3360750556787062e-22  1.4436649170135063e-19  -2.9628778846630884e-22  -3.6675423745655370e-36  -1.4386352128596331e-20  -6.2956551971597358e-23  -1.0542072421621505e-22  1.9276619383709596e-19  -6.6137956356583671e-22  -1.1948273066737874e-21  -1.5743644699000263e-21  -7.8718223495002379e-22  1.5907813983317238e-20  -7.0375521090217963e-22  -1.1669025340752178e-21  -1.7532786919689359e-21  -1.2629796514447830e-21  -7.8783891689379507e-22  3.7575966117994911e-19  -2.6052679088382869e-21  -1.8146305149510519e-21  -2.8040929199614899e-22  8.2284604557560126e-38  -2.2620149146813560e-22  9.4277083469343816e-20  -2.4589460886915538e-21  -1.1919354997712672e-21  -5.4275501100019939e-22  -8.9243069838630522e-22  -5.2849807850318821e-22  4.5000386132991301e-19  -1.7398578340354944e-22  2.3509887016445750e-38  -9.3453450834949615e-23  -2.8518393023066331e-22  -3.2930251721633351e-22  -4.1412597953497375e-22  -5.2840321158068954e-23  -5.2106915040619853e-23  -2.6073576082200201e-23  7.2674963871844023e-22  -1.1807366115210275e-23  -8.5306739361989353e-24  -7.1661331245992596e-24  -5.8630797246599001e-24  -4.3115667442406209e-24  -2.6550587142921529e-24  -1.3243828823139111e-24  -3.0436081638005701e-25  7.1631687003233145e-39  4.2244328232675957e-39  -1.3591653431382699e-38  1.3486006539566026e-21  3.6734198463196485e-40  5.1427877848475078e-39  -1.4826519820142252e-25  -4.1130546607501890e-25  -7.9531830002020157e-25  -9.4241346077651272e-25  -1.1277026535269840e-24  -1.3272944776156476e-24  -1.2191548901691285e-24  -1.1792067393787173e-24  -1.3963778621346725e-24  -1.5587307858609146e-24  1.2091590769540562e-21  -1.9197389390190456e-24  -2.3827597507561688e-24  -2.3018838799205480e-24  -1.9080011598821237e-24  -1.5507485991243156e-24  -1.3016606797170772e-24  -1.1115893296030943e-24  -9.3579434956397062e-25  -7.5326620223283926e-25  -5.5791174790219400e-25  -3.5134116163488923e-25  8.4057997279101513e-23  -3.6734198463196485e-40  9.1835496157991212e-40  -4.7726737374182957e-26  -2.0679457493798497e-25  -2.6792954778258853e-25  -8.8231972328571024e-26  0.0000000000000000e+00  -5.8774717541114375e-39  7.0330276706948517e-07  3.5773596867556654e-07  7.4009533711118656e-07  1.4570097534242772e-06  7.0491464985520057e-07  5.1696544720657662e-07  1.7266640916140662e-07  6.0789968090161555e-08  3.2733984265878234e-06  1.4027231198004409e-06  4.4553106370913888e-06  6.7789431107501954e-06  1.9893616218091189e-06  4.4900869501315574e-07  8.0802730391270258e-06  4.2194143009020143e-06  1.0093877359679279e-05  1.5815819827747682e-06  5.3374462949251873e-06  4.7891428504119069e-06  2.2682488319985396e-06  3.7981818743784166e-06  4.3469730429190793e-06  2.2324900566846988e-06  1.0798109995759902e-05  2.1524095252432643e-05  2.8361228959948425e-05  1.0380711164305844e-05  1.4036693160422270e-05  2.8788125141973030e-05  6.6269846995688317e-06  3.1584261055311714e-05  8.4254126575667594e-06  1.7232645798271190e-05  4.3018171496118081e-05  4.4215471048306476e-05  2.7561170020235804e-05  8.0274850410194200e-06  2.0612091428572822e-06  1.7262345455531706e-05  3.5318947362032690e-05  4.4090178703407364e-05  1.9554810122351739e-05  2.2859246128292839e-05  4.6469791786797967e-06  9.5205749976519331e-06  5.6939240414937466e-06  2.8728721646908239e-07  3.3670154108541301e-06  1.2993585266492358e-06  4.4877377043508544e-06  5.9321867753105838e-06  4.6644934329711545e-06  6.3429605015864077e-07  6.2152670756212611e-07  4.6969979011205294e-07  3.9233891895489436e-07  2.3025505701909613e-07  1.4630751399927282e-07  9.8107749134470712e-08  6.7161075658680662e-08  4.4089743701639881e-08  2.5784413894511791e-08  1.0965754073883269e-08  1.1229055044619074e-09  1.1016932562084488e-08  1.9079986079299709e-08  2.5797875039762301e-08  3.1096483713959731e-08  3.4758683227947507e-08  3.8161250080343861e-08  4.1660162854680360e-08  4.6613129744975780e-08  5.1048460766926093e-08  5.3049136452082922e-08  5.6023336053674671e-08  5.5733387725443877e-08  5.3279771806340056e-08  5.3101500273040754e-08  5.5485442701410645e-08  5.5806686797288427e-08  5.8284433988606375e-08  6.5863409503707703e-08  6.9598105347038368e-08  6.5507615851355621e-08  5.7754369978828465e-08  5.0312384788842284e-08  4.4266955952963904e-08  3.9200899081644876e-08  3.4479261080737038e-08  2.9684853045087729e-08  2.4635519754818762e-08  1.9311922024033530e-08  1.3811376709461697e-08  8.3452972433527229e-09  3.2713756035796094e-09  8.5976846661593600e-10  3.2953956492238203e-09  3.1788918216089294e-09  -7.5842994084996314e-25  -1.4659987178975210e-23  2.9774441446096152e-06  7.1479815432611276e-07  1.0288237072662122e-06  2.6860258945444286e-06  1.8884985023196862e-06  6.4873685350348789e-06  6.8941009128746442e-06  4.9176228411412591e-06  9.4277038635076528e-06  1.1833730517651663e-05  1.3117206132485630e-05  3.2973092375242775e-06  3.8901393263175907e-06  8.8794351711427130e-06  4.6347155234829836e-06  8.3555701715559369e-06  4.0665245625076572e-06  3.9279127379424580e-06  1.7565940981531073e-05  1.2095207697976001e-05  2.2970859314619128e-05  2.4746429375418775e-05  2.5729166518415969e-05  2.4767877820572083e-05  2.7936657951300981e-05  2.3512002934662500e-05  1.3560120676313056e-05  1.2902192841728789e-05  2.1745647675943428e-05  3.6408800818112587e-06  4.2572049295832361e-05  3.0518257439252453e-05  2.8122007899847442e-05  5.2259473723978892e-06  3.9031104641181258e-05  5.9398757286599256e-05  4.6106413237180723e-05  1.6251407735199506e-05  3.3441596951457292e-06  8.6180828027527063e-06  3.4760706039080464e-05  5.3576790270702702e-05  3.6986894449712336e-05  1.1331637289046977e-05  5.5145467474504922e-05  3.9426477146986715e-05  1.4848312540239016e-05  1.8435215363969531e-06  3.9308183435167120e-06  1.1453738388753046e-05  1.3896308581156828e-05  5.4024817091802460e-06  7.4254881099758381e-06  2.0403694276117303e-06  1.9144583782525645e-06  3.5569581934393817e-07  6.7529353450052147e-07  3.4989931592437757e-07  2.4116780792530035e-07  1.6721380262269249e-07  1.2230574361284827e-07  9.0219886876497643e-08  6.5120271725280491e-08  4.4772651375504288e-08  2.8035216316256942e-08  1.4236461778275285e-08  2.7392269463697228e-09  6.7595418295596079e-09  1.4936414141647690e-08  2.0905085059254721e-08  2.5752372512565048e-08  3.0717149093744711e-08  3.6422019371467586e-08  4.4016653778925749e-08  4.8068346167795171e-08  5.1955937634031394e-08  5.5389907382104022e-08  5.3451465306167265e-08  5.2234089217481680e-08  5.5353453369181667e-08  5.8472054909089916e-08  5.9370977613277687e-08  6.7647071074458328e-08  7.7413181807235516e-08  7.7528441520520198e-08  7.0122423963818048e-08  6.1527166002003073e-08  5.4492737886373302e-08  4.8967887200328506e-08  4.4153101943540388e-08  3.9398675295870276e-08  3.4358253886232739e-08  2.8916344655134731e-08  2.3112946608241412e-08  1.7119869634655855e-08  1.1264046890002545e-08  6.0645186699215172e-09  2.1917390901663584e-09  1.3331519687513111e-10  -4.3127280807933964e-24  -2.1705918653241575e-23  2.6409085118595676e-07  1.7276765434097273e-06  8.1823941233243913e-07  3.0889225558870593e-07  2.1028977006950603e-06  4.2954199916128113e-07  1.1040717600250228e-06  2.7680568460487064e-07  1.1774242568911952e-06  8.5513361115695102e-06  3.3235905060269724e-06  6.3674683720250354e-06  1.4648484042958103e-05  8.3787398117981012e-06  1.2794060442579157e-06  1.1945101999365092e-05  9.8995183912341285e-06  1.9925015522401381e-05  9.8654963983963120e-06  1.3121504666105257e-05  1.9882985516521307e-06  3.1657368978224416e-07  1.0191165914297109e-06  3.0282219559475099e-06  1.3535725474871181e-07  2.2494830482059060e-05  4.4466641570582607e-05  5.5015009566468048e-05  2.3520383983886142e-05  2.2327465008032190e-05  4.6989968758141977e-05  8.9011194157872036e-06  5.2960256340242382e-05  6.6224742025491314e-06  2.4192989221097832e-05  5.8497926099294344e-05  5.7499659850911615e-05  3.4632767693920644e-05  6.8165956449976498e-06  3.4529828759748548e-07  2.3498607057744741e-05  4.8210443307493288e-05  6.1521287492039055e-05  2.0977821665436000e-05  3.2824098523403550e-05  9.8860259398032888e-06  2.2600796594555693e-05  1.3307141074149805e-05  5.8555070744721399e-07  3.2829064385150136e-06  1.6046677003013086e-07  8.9879063656963111e-06  1.0549198523468615e-05  6.1047054560665265e-06  2.0073630826947294e-06  8.1534987766004665e-07  9.7692054206073999e-07  5.1506834649361565e-07  2.9575120585301603e-07  2.1960678113181748e-07  1.6120540831718328e-07  1.2201926303782884e-07  9.1991312507952688e-08  6.7783866284729196e-08  4.7918290572915992e-08  3.1439505748046844e-08  1.7702987104022196e-08  6.2514631640725314e-09  3.5541551743312242e-09  1.1625456978785148e-08  1.7382556501658828e-08  2.3096708398256424e-08  2.8892285360646422e-08  3.6905723603692472e-08  4.4319891665686989e-08  4.7633186375651774e-08  5.3533984322637096e-08  5.4381616622909373e-08  5.2108188498746915e-08  5.3666908707473394e-08  5.9091707161223728e-08  6.0561414433571061e-08  6.5112935456175389e-08  7.7990661636818561e-08  8.4549249543102876e-08  7.9867030116889329e-08  7.1123964862803573e-08  6.3470831354548307e-08  5.7731540489027242e-08  5.3127720600490807e-08  4.8833214191955109e-08  4.4344211849728452e-08  3.9441200745875839e-08  3.4097199160186879e-08  2.8435837326971504e-08  2.2745063620180315e-08  1.7496460311458400e-08  1.3169674710655658e-08  9.1770790235722524e-09  -1.2735755538468071e-24  -8.2284604557560126e-38  3.9101906863389264e-07  2.8140547753233216e-06  2.8406672971870277e-07  1.0325719188412022e-06  3.5063888559541127e-06  1.7253467809743762e-06  8.2787337739298648e-06  1.0276675131490392e-05  7.8960377432128167e-06  1.1078970609309232e-05  1.4402951679431919e-05  1.9499657983275959e-05  9.5036717824673365e-06  2.5438446603649635e-06  1.1710078792494583e-05  8.0473056121831764e-06  1.3008374945971447e-05  9.9095440845318096e-07  2.8885526218408841e-06  2.1289482407894829e-05  1.7333586879958217e-05  3.1113932499234119e-05  3.4860590633573396e-05  3.7294144386516455e-05  3.6960232618404707e-05  3.8844568077998673e-05  2.9655663893949980e-05  1.3283418973377193e-05  2.1584078545122912e-05  3.1983129823994168e-05  3.0781219328000105e-06  5.9369177728130458e-05  4.2250249141170344e-05  3.6918949950789656e-05  8.5955954218567100e-06  4.7328011276420957e-05  7.0788110996571445e-05  5.1018352567413244e-05  1.4962061039901366e-05  1.9024818911589960e-06  8.6425478319375031e-06  4.1295791835018029e-05  6.2897969648864827e-05  4.4032418979261951e-05  1.1194658506234448e-05  7.5110035287855866e-05  5.8856436179596334e-05  2.2515579423851737e-05  1.3330531513607280e-06  5.9253310623364763e-06  1.5816379686221912e-05  1.9553289393639763e-05  7.6412430223193909e-06  9.4370687347811009e-06  1.8671152916084129e-06  3.0287967957894246e-06  6.8074509884444432e-07  9.1908196928851577e-07  3.5704507504331114e-07  2.6490501881743416e-07  1.9560443058248087e-07  1.4811652562250103e-07  1.1285501312567806e-07  8.4751623712584637e-08  6.1736598337263694e-08  4.2642727412707383e-08  2.6758372010266545e-08  1.3370560440308771e-08  2.1934105737773422e-09  7.6462323072156014e-09  1.4884223129352416e-08  2.0864639031905858e-08  2.7172169875334304e-08  3.4333304191197073e-08  4.4094677069795712e-08  4.9171448369694585e-08  5.4219502150199328e-08  5.9387737121486224e-08  5.7389744699245210e-08  5.6702204940906928e-08  6.1726356815383125e-08  6.6498224040492856e-08  6.7738223296644857e-08  7.8827209190901214e-08  9.1988156430758327e-08  9.2616237826374435e-08  8.4521502324789120e-08  7.5898165721592012e-08  6.9498737550439958e-08  6.4831885227162405e-08  6.0874049081247240e-08  5.6911991745132039e-08  5.2590524336226166e-08  4.7805736632453998e-08  4.2638171482035855e-08  3.7351709737436121e-08  3.2377910087838652e-08  2.7912775669393735e-08  2.1682819711138037e-08  5.4163722784728659e-24  -1.2029585343791689e-22  3.6737229754844436e-07  1.1085893505033593e-07  1.7916542123412438e-06  6.9785474432893325e-07  5.5820954827995680e-07  3.3001191467032633e-06  6.3659078959762676e-07  2.3329080254020179e-06  1.1989325194292534e-06  4.7997911257139677e-07  1.0198140230568629e-05  7.3243576207297686e-06  4.5039361035104851e-06  1.7907140819700623e-05  1.2178030515283174e-05  2.5606820944610031e-06  1.3176710490780667e-05  1.0835085887757637e-05  2.3518289554309140e-05  1.3456342116201591e-05  1.7173549498838026e-05  7.3955453780311664e-07  1.6046572104956759e-06  1.3507921401134943e-06  1.0294398729989115e-06  1.1890480590899447e-06  2.7106161480403604e-05  5.5307837499358544e-05  6.9174709077361293e-05  3.0554980196241684e-05  2.7247605174877843e-05  5.8040226216635335e-05  1.0309145430962670e-05  6.6159455041338419e-05  5.8940732533638171e-06  2.9400757843245067e-05  6.8410132374442737e-05  6.6677319950124743e-05  3.8561956507179077e-05  4.7263808624341438e-06  1.3698197009910356e-06  2.7462817295983111e-05  5.7453586468208714e-05  7.1207703635749897e-05  2.1969707420998095e-05  4.0318834912889573e-05  1.4098276079918466e-05  3.2026416640454045e-05  1.8656491441352232e-05  1.1944902471992478e-06  3.2064177796215677e-06  4.7249083558010510e-07  1.1902419186232225e-05  1.3532964145737806e-05  7.0530076094726944e-06  2.9670910842482778e-06  1.1010900379306566e-06  1.2989699285110486e-06  5.8977883439744547e-07  3.0022193598140636e-07  2.3615271002389153e-07  1.7634391601390017e-07  1.3431902587320371e-07  1.0150403280140202e-07  7.4824647560479835e-08  5.2811801629963889e-08  3.4448855997688255e-08  1.9052547768410551e-08  6.1275011629021731e-09  5.0460405891619089e-09  1.4324309751289846e-08  2.0937024869858502e-08  2.7652136540634213e-08  3.4549455124142608e-08  4.4182016584887384e-08  5.3091421844773560e-08  5.7006362806714216e-08  6.4386231361570502e-08  6.5731640971424659e-08  6.3318523631620441e-08  6.5909217077964689e-08  7.3155300811879001e-08  7.5299618323467083e-08  8.1190532620291662e-08  9.7473173215428213e-08  1.0587727525596144e-07  1.0076506152076320e-07  9.1443834879894704e-08  8.3944496771312106e-08  7.8840107319971342e-08  7.5038344222455499e-08  7.1572773362431090e-08  6.7899757725405605e-08  6.3810156987656997e-08  5.9339604523598856e-08  5.4748612456663359e-08  5.0457048048610025e-08  4.6324735456399296e-08  3.7795106809906007e-08  -2.0980498899262390e-24  7.9345868680504407e-38  3.3891157620658370e-06  2.1503165638094446e-06  2.9261619302566072e-06  1.6203013390120718e-09  6.5351366047713119e-07  4.2120836148161348e-06  1.7672376927332761e-06  8.7065753805296453e-06  1.1987591653734381e-05  9.9355213132947096e-06  1.2448823869330713e-05  1.4339592882902750e-05  2.1735585543655586e-05  1.2561416676987102e-05  2.2704034563663432e-06  1.4232400526763027e-05  8.7584244523810471e-06  1.3857976849995893e-05  1.0844178491949487e-06  2.7858424724903126e-06  2.4293497843805707e-05  1.9689419989437902e-05  3.4783937641044853e-05  3.8967619955585310e-05  4.1873063121241927e-05  4.2876455425241052e-05  4.6048459515776352e-05  3.5423958926011651e-05  1.6634457725772731e-05  2.4264999319708252e-05  3.8957843236443412e-05  6.2166342098146329e-06  6.9415049073157727e-05  5.1955300384977220e-05  4.3500138852304173e-05  1.2257699214958705e-05  5.7555491538779392e-05  8.2106173623634719e-05  5.6592250697159039e-05  1.5196898104713016e-05  1.5999981549066738e-06  1.0618660160714947e-05  4.8367126883877597e-05  7.3350496996961578e-05  5.0525765659011482e-05  7.8283790738087471e-06  8.6223196547026082e-05  6.9800783626709179e-05  2.6547489776795203e-05  1.7191506536516093e-06  6.7539842464724274e-06  1.8067350159367994e-05  2.3033471110026191e-05  9.3420123381506712e-06  1.1261585582913757e-05  1.6359445454527319e-06  3.7049259713577327e-06  8.6915157267986428e-07  1.1123480544718483e-06  3.7849507834845913e-07  2.7891611691635450e-07  2.1219844436128338e-07  1.6078496253320011e-07  1.2178018983310544e-07  9.0487889977939577e-08  6.4825548717456510e-08  4.3503384111633939e-08  2.5715336060942310e-08  1.0670716988319555e-08  1.9671715991252148e-09  1.3157154795325336e-08  2.1393014796532187e-08  2.8319337787459378e-08  3.5719105409079731e-08  4.4279592572375969e-08  5.5794183800693176e-08  6.1746181976157493e-08  6.7938613708420237e-08  7.4185059340182581e-08  7.2121846724776817e-08  7.1946558794501857e-08  7.8656469850726785e-08  8.4737222692180631e-08  8.6873387219568808e-08  1.0086082507047974e-07  1.1690413418796704e-07  1.1800058455316795e-07  1.0930478024797601e-07  1.0056443582915767e-07  9.4678694955312251e-08  9.0846026143874072e-08  8.7846236506391051e-08  8.4899632039992582e-08  8.1660009400598063e-08  7.8108807926358433e-08  7.4514538097570024e-08  7.1306655243878994e-08  6.7959808961414754e-08  5.7107408984480296e-08  -3.1700980165627773e-24  1.0579449157400588e-37  3.3703281366107701e-07  1.4581013116705171e-07  9.4388522763493861e-07  9.1632763707707471e-07  7.1761675073761588e-07  1.1427697997408444e-06  4.2557022755592091e-06  1.5072358967678480e-06  1.9534442173073044e-06  9.5605033878094288e-07  1.7863951379689763e-06  8.7544066864675083e-06  7.7953271334265088e-06  4.4267559504716375e-06  2.1542134425512905e-05  1.4833727486011769e-05  1.3378894446879010e-06  1.6903620811431322e-05  1.1785632539775795e-05  2.5631870334772333e-05  1.3996579080429163e-05  1.7106379168210954e-05  4.4840119081618157e-06  2.6882310774481553e-06  2.5540751983983222e-06  5.0576603865461643e-06  3.7458233220497893e-06  2.4879218853002978e-05  5.9455498144468525e-05  7.9510510780866865e-05  3.7420975585750901e-05  3.0454959019074186e-05  7.0266455737565532e-05  6.1486043123386720e-06  7.5807955133043526e-05  4.4671083744814892e-06  3.6489714011862306e-05  7.9935258518180414e-05  7.6601288808944120e-05  4.2454636516126188e-05  3.4813118561245853e-06  1.9644251254735843e-06  3.4018863228741674e-05  6.8532566043233878e-05  8.0273707530257847e-05  2.3302103924043123e-05  5.1970050630668629e-05  9.2157556118414128e-06  3.2771768475172760e-05  1.9547373130693848e-05  8.8765977185229595e-07  4.5826597473461324e-06  1.5526726202986333e-06  1.2023680665017390e-05  1.5521596325533555e-05  8.0034310547479425e-06  3.8539252962972433e-06  1.1929588593044177e-06  1.5586400744067849e-06  6.8094397699906253e-07  3.2373065624152821e-07  2.5696823400179397e-07  1.9433087759716675e-07  1.4745062506942428e-07  1.1039437488790054e-07  8.0185499527489447e-08  5.5260907164342902e-08  3.4468400453847727e-08  1.7003647125841354e-08  2.3123577686660929e-09  1.0478249042774659e-08  2.1060851809611102e-08  2.8714641031680615e-08  3.6611048889809003e-08  4.4842578276718091e-08  5.6391945542958600e-08  6.6691296556160033e-08  7.1587507674026432e-08  8.0470273193048076e-08  8.2142094501201285e-08  7.9939607113846115e-08  8.3927214573794918e-08  9.3053013185237966e-08  9.6127487895849869e-08  1.0432812883230130e-07  1.2422901698008912e-07  1.3431871313720887e-07  1.2894221126673072e-07  1.1931881905926183e-07  1.1224677227049446e-07  1.0809442154109581e-07  1.0548472535227469e-07  1.0332995928454028e-07  1.0109088964762566e-07  9.8673613986173395e-08  9.6361310750086451e-08  9.4611916850434711e-08  9.2471465374068954e-08  7.9292957244751702e-08  -4.7080447594519341e-24  -6.5711112088791076e-23  9.6217962558165072e-07  2.8170971339454749e-06  1.3867590961039397e-06  4.3164766561349198e-06  3.2037341050969486e-07  1.7562341194929361e-07  4.9631180856826343e-06  1.5675282222865287e-06  9.4243737930888072e-06  1.3667584542995952e-05  1.2119512951500053e-05  1.4832547654282939e-05  1.5157088138745294e-05  2.3977528167387607e-05  1.5051115579627548e-05  3.8438725911754103e-06  