<?xml version="1.0"?>
<VTKFile type="UnstructuredGrid"  version="0.1"  >
<UnstructuredGrid>
<Piece  NumberOfPoints="10201" NumberOfCells="20000">
<Points>
<DataArray  type="Float64"  NumberOfComponents="3"  format="ascii">0 0 0  0.01 0 0  0.02 0 0  0.03 0 0  0.04 0 0  0.05 0 0  0.06 0 0  0.07000000000000001 0 0  0.08 0 0  0.09 0 0  0.1 0 0  0.11 0 0  0.12 0 0  0.13 0 0  0.14 0 0  0.15 0 0  0.16 0 0  0.17 0 0  0.18 0 0  0.19 0 0  0.2 0 0  0.21 0 0  0.22 0 0  0.23 0 0  0.24 0 0  0.25 0 0  0.26 0 0  0.27 0 0  0.28 0 0  0.29 0 0  0.3 0 0  0.31 0 0  0.32 0 0  0.33 0 0  0.34 0 0  0.35 0 0  0.36 0 0  0.37 0 0  0.38 0 0  0.39 0 0  0.4 0 0  0.41 0 0  0.42 0 0  0.43 0 0  0.44 0 0  0.45 0 0  0.46 0 0  0.47 0 0  0.48 0 0  0.49 0 0  0.5 0 0  0.51 0 0  0.52 0 0  0.53 0 0  0.54 0 0  0.55 0 0  0.5600000000000001 0 0  0.57 0 0  0.58 0 0  0.59 0 0  0.6 0 0  0.61 0 0  0.62 0 0  0.63 0 0  0.64 0 0  0.65 0 0  0.66 0 0  0.67 0 0  0.68 0 0  0.6899999999999999 0 0  0.7 0 0  0.71 0 0  0.72 0 0  0.73 0 0  0.74 0 0  0.75 0 0  0.76 0 0  0.77 0 0  0.78 0 0  0.79 0 0  0.8 0 0  0.8100000000000001 0 0  0.82 0 0  0.83 0 0  0.84 0 0  0.85 0 0  0.86 0 0  0.87 0 0  0.88 0 0  0.89 0 0  0.9 0 0  0.91 0 0  0.92 0 0  0.93 0 0  0.9399999999999999 0 0  0.95 0 0  0.96 0 0  0.97 0 0  0.98 0 0  0.99 0 0  1 0 0  0 0.01 0  0.01 0.01 0  0.02 0.01 0  0.03 0.01 0  0.04 0.01 0  0.05 0.01 0  0.06 0.01 0  0.07000000000000001 0.01 0  0.08 0.01 0  0.09 0.01 0  0.1 0.01 0  0.11 0.01 0  0.12 0.01 0  0.13 0.01 0  0.14 0.01 0  0.15 0.01 0  0.16 0.01 0  0.17 0.01 0  0.18 0.01 0  0.19 0.01 0  0.2 0.01 0  0.21 0.01 0  0.22 0.01 0  0.23 0.01 0  0.24 0.01 0  0.25 0.01 0  0.26 0.01 0  0.27 0.01 0  0.28 0.01 0  0.29 0.01 0  0.3 0.01 0  0.31 0.01 0  0.32 0.01 0  0.33 0.01 0  0.34 0.01 0  0.35 0.01 0  0.36 0.01 0  0.37 0.01 0  0.38 0.01 0  0.39 0.01 0  0.4 0.01 0  0.41 0.01 0  0.42 0.01 0  0.43 0.01 0  0.44 0.01 0  0.45 0.01 0  0.46 0.01 0  0.47 0.01 0  0.48 0.01 0  0.49 0.01 0  0.5 0.01 0  0.51 0.01 0  0.52 0.01 0  0.53 0.01 0  0.54 0.01 0  0.55 0.01 0  0.5600000000000001 0.01 0  0.57 0.01 0  0.58 0.01 0  0.59 0.01 0  0.6 0.01 0  0.61 0.01 0  0.62 0.01 0  0.63 0.01 0  0.64 0.01 0  0.65 0.01 0  0.66 0.01 0  0.67 0.01 0  0.68 0.01 0  0.6899999999999999 0.01 0  0.7 0.01 0  0.71 0.01 0  0.72 0.01 0  0.73 0.01 0  0.74 0.01 0  0.75 0.01 0  0.76 0.01 0  0.77 0.01 0  0.78 0.01 0  0.79 0.01 0  0.8 0.01 0  0.8100000000000001 0.01 0  0.82 0.01 0  0.83 0.01 0  0.84 0.01 0  0.85 0.01 0  0.86 0.01 0  0.87 0.01 0  0.88 0.01 0  0.89 0.01 0  0.9 0.01 0  0.91 0.01 0  0.92 0.01 0  0.93 0.01 0  0.9399999999999999 0.01 0  0.95 0.01 0  0.96 0.01 0  0.97 0.01 0  0.98 0.01 0  0.99 0.01 0  1 0.01 0  0 0.02 0  0.01 0.02 0  0.02 0.02 0  0.03 0.02 0  0.04 0.02 0  0.05 0.02 0  0.06 0.02 0  0.07000000000000001 0.02 0  0.08 0.02 0  0.09 0.02 0  0.1 0.02 0  0.11 0.02 0  0.12 0.02 0  0.13 0.02 0  0.14 0.02 0  0.15 0.02 0  0.16 0.02 0  0.17 0.02 0  0.18 0.02 0  0.19 0.02 0  0.2 0.02 0  0.21 0.02 0  0.22 0.02 0  0.23 0.02 0  0.24 0.02 0  0.25 0.02 0  0.26 0.02 0  0.27 0.02 0  0.28 0.02 0  0.29 0.02 0  0.3 0.02 0  0.31 0.02 0  0.32 0.02 0  0.33 0.02 0  0.34 0.02 0  0.35 0.02 0  0.36 0.02 0  0.37 0.02 0  0.38 0.02 0  0.39 0.02 0  0.4 0.02 0  0.41 0.02 0  0.42 0.02 0  0.43 0.02 0  0.44 0.02 0  0.45 0.02 0  0.46 0.02 0  0.47 0.02 0  0.48 0.02 0  0.49 0.02 0  0.5 0.02 0  0.51 0.02 0  0.52 0.02 0  0.53 0.02 0  0.54 0.02 0  0.55 0.02 0  0.5600000000000001 0.02 0  0.57 0.02 0  0.58 0.02 0  0.59 0.02 0  0.6 0.02 0  0.61 0.02 0  0.62 0.02 0  0.63 0.02 0  0.64 0.02 0  0.65 0.02 0  0.66 0.02 0  0.67 0.02 0  0.68 0.02 0  0.6899999999999999 0.02 0  0.7 0.02 0  0.71 0.02 0  0.72 0.02 0  0.73 0.02 0  0.74 0.02 0  0.75 0.02 0  0.76 0.02 0  0.77 0.02 0  0.78 0.02 0  0.79 0.02 0  0.8 0.02 0  0.8100000000000001 0.02 0  0.82 0.02 0  0.83 0.02 0  0.84 0.02 0  0.85 0.02 0  0.86 0.02 0  0.87 0.02 0  0.88 0.02 0  0.89 0.02 0  0.9 0.02 0  0.91 0.02 0  0.92 0.02 0  0.93 0.02 0  0.9399999999999999 0.02 0  0.95 0.02 0  0.96 0.02 0  0.97 0.02 0  0.98 0.02 0  0.99 0.02 0  1 0.02 0  0 0.03 0  0.01 0.03 0  0.02 0.03 0  0.03 0.03 0  0.04 0.03 0  0.05 0.03 0  0.06 0.03 0  0.07000000000000001 0.03 0  0.08 0.03 0  0.09 0.03 0  0.1 0.03 0  0.11 0.03 0  0.12 0.03 0  0.13 0.03 0  0.14 0.03 0  0.15 0.03 0  0.16 0.03 0  0.17 0.03 0  0.18 0.03 0  0.19 0.03 0  0.2 0.03 0  0.21 0.03 0  0.22 0.03 0  0.23 0.03 0  0.24 0.03 0  0.25 0.03 0  0.26 0.03 0  0.27 0.03 0  0.28 0.03 0  0.29 0.03 0  0.3 0.03 0  0.31 0.03 0  0.32 0.03 0  0.33 0.03 0  0.34 0.03 0  0.35 0.03 0  0.36 0.03 0  0.37 0.03 0  0.38 0.03 0  0.39 0.03 0  0.4 0.03 0  0.41 0.03 0  0.42 0.03 0  0.43 0.03 0  0.44 0.03 0  0.45 0.03 0  0.46 0.03 0  0.47 0.03 0  0.48 0.03 0  0.49 0.03 0  0.5 0.03 0  0.51 0.03 0  0.52 0.03 0  0.53 0.03 0  0.54 0.03 0  0.55 0.03 0  0.5600000000000001 0.03 0  0.57 0.03 0  0.58 0.03 0  0.59 0.03 0  0.6 0.03 0  0.61 0.03 0  0.62 0.03 0  0.63 0.03 0  0.64 0.03 0  0.65 0.03 0  0.66 0.03 0  0.67 0.03 0  0.68 0.03 0  0.6899999999999999 0.03 0  0.7 0.03 0  0.71 0.03 0  0.72 0.03 0  0.73 0.03 0  0.74 0.03 0  0.75 0.03 0  0.76 0.03 0  0.77 0.03 0  0.78 0.03 0  0.79 0.03 0  0.8 0.03 0  0.8100000000000001 0.03 0  0.82 0.03 0  0.83 0.03 0  0.84 0.03 0  0.85 0.03 0  0.86 0.03 0  0.87 0.03 0  0.88 0.03 0  0.89 0.03 0  0.9 0.03 0  0.91 0.03 0  0.92 0.03 0  0.93 0.03 0  0.9399999999999999 0.03 0  0.95 0.03 0  0.96 0.03 0  0.97 0.03 0  0.98 0.03 0  0.99 0.03 0  1 0.03 0  0 0.04 0  0.01 0.04 0  0.02 0.04 0  0.03 0.04 0  0.04 0.04 0  0.05 0.04 0  0.06 0.04 0  0.07000000000000001 0.04 0  0.08 0.04 0  0.09 0.04 0  0.1 0.04 0  0.11 0.04 0  0.12 0.04 0  0.13 0.04 0  0.14 0.04 0  0.15 0.04 0  0.16 0.04 0  0.17 0.04 0  0.18 0.04 0  0.19 0.04 0  0.2 0.04 0  0.21 0.04 0  0.22 0.04 0  0.23 0.04 0  0.24 0.04 0  0.25 0.04 0  0.26 0.04 0  0.27 0.04 0  0.28 0.04 0  0.29 0.04 0  0.3 0.04 0  0.31 0.04 0  0.32 0.04 0  0.33 0.04 0  0.34 0.04 0  0.35 0.04 0  0.36 0.04 0  0.37 0.04 0  0.38 0.04 0  0.39 0.04 0  0.4 0.04 0  0.41 0.04 0  0.42 0.04 0  0.43 0.04 0  0.44 0.04 0  0.45 0.04 0  0.46 0.04 0  0.47 0.04 0  0.48 0.04 0  0.49 0.04 0  0.5 0.04 0  0.51 0.04 0  0.52 0.04 0  0.53 0.04 0  0.54 0.04 0  0.55 0.04 0  0.5600000000000001 0.04 0  0.57 0.04 0  0.58 0.04 0  0.59 0.04 0  0.6 0.04 0  0.61 0.04 0  0.62 0.04 0  0.63 0.04 0  0.64 0.04 0  0.65 0.04 0  0.66 0.04 0  0.67 0.04 0  0.68 0.04 0  0.6899999999999999 0.04 0  0.7 0.04 0  0.71 0.04 0  0.72 0.04 0  0.73 0.04 0  0.74 0.04 0  0.75 0.04 0  0.76 0.04 0  0.77 0.04 0  0.78 0.04 0  0.79 0.04 0  0.8 0.04 0  0.8100000000000001 0.04 0  0.82 0.04 0  0.83 0.04 0  0.84 0.04 0  0.85 0.04 0  0.86 0.04 0  0.87 0.04 0  0.88 0.04 0  0.89 0.04 0  0.9 0.04 0  0.91 0.04 0  0.92 0.04 0  0.93 0.04 0  0.9399999999999999 0.04 0  0.95 0.04 0  0.96 0.04 0  0.97 0.04 0  0.98 0.04 0  0.99 0.04 0  1 0.04 0  0 0.05 0  0.01 0.05 0  0.02 0.05 0  0.03 0.05 0  0.04 0.05 0  0.05 0.05 0  0.06 0.05 0  0.07000000000000001 0.05 0  0.08 0.05 0  0.09 0.05 0  0.1 0.05 0  0.11 0.05 0  0.12 0.05 0  0.13 0.05 0  0.14 0.05 0  0.15 0.05 0  0.16 0.05 0  0.17 0.05 0  0.18 0.05 0  0.19 0.05 0  0.2 0.05 0  0.21 0.05 0  0.22 0.05 0  0.23 0.05 0  0.24 0.05 0  0.25 0.05 0  0.26 0.05 0  0.27 0.05 0  0.28 0.05 0  0.29 0.05 0  0.3 0.05 0  0.31 0.05 0  0.32 0.05 0  0.33 0.05 0  0.34 0.05 0  0.35 0.05 0  0.36 0.05 0  0.37 0.05 0  0.38 0.05 0  0.39 0.05 0  0.4 0.05 0  0.41 0.05 0  0.42 0.05 0  0.43 0.05 0  0.44 0.05 0  0.45 0.05 0  0.46 0.05 0  0.47 0.05 0  0.48 0.05 0  0.49 0.05 0  0.5 0.05 0  0.51 0.05 0  0.52 0.05 0  0.53 0.05 0  0.54 0.05 0  0.55 0.05 0  0.5600000000000001 0.05 0  0.57 0.05 0  0.58 0.05 0  0.59 0.05 0  0.6 0.05 0  0.61 0.05 0  0.62 0.05 0  0.63 0.05 0  0.64 0.05 0  0.65 0.05 0  0.66 0.05 0  0.67 0.05 0  0.68 0.05 0  0.6899999999999999 0.05 0  0.7 0.05 0  0.71 0.05 0  0.72 0.05 0  0.73 0.05 0  0.74 0.05 0  0.75 0.05 0  0.76 0.05 0  0.77 0.05 0  0.78 0.05 0  0.79 0.05 0  0.8 0.05 0  0.8100000000000001 0.05 0  0.82 0.05 0  0.83 0.05 0  0.84 0.05 0  0.85 0.05 0  0.86 0.05 0  0.87 0.05 0  0.88 0.05 0  0.89 0.05 0  0.9 0.05 0  0.91 0.05 0  0.92 0.05 0  0.93 0.05 0  0.9399999999999999 0.05 0  0.95 0.05 0  0.96 0.05 0  0.97 0.05 0  0.98 0.05 0  0.99 0.05 0  1 0.05 0  0 0.06 0  0.01 0.06 0  0.02 0.06 0  0.03 0.06 0  0.04 0.06 0  0.05 0.06 0  0.06 0.06 0  0.07000000000000001 0.06 0  0.08 0.06 0  0.09 0.06 0  0.1 0.06 0  0.11 0.06 0  0.12 0.06 0  0.13 0.06 0  0.14 0.06 0  0.15 0.06 0  0.16 0.06 0  0.17 0.06 0  0.18 0.06 0  0.19 0.06 0  0.2 0.06 0  0.21 0.06 0  0.22 0.06 0  0.23 0.06 0  0.24 0.06 0  0.25 0.06 0  0.26 0.06 0  0.27 0.06 0  0.28 0.06 0  0.29 0.06 0  0.3 0.06 0  0.31 0.06 0  0.32 0.06 0  0.33 0.06 0  0.34 0.06 0  0.35 0.06 0  0.36 0.06 0  0.37 0.06 0  0.38 0.06 0  0.39 0.06 0  0.4 0.06 0  0.41 0.06 0  0.42 0.06 0  0.43 0.06 0  0.44 0.06 0  0.45 0.06 0  0.46 0.06 0  0.47 0.06 0  0.48 0.06 0  0.49 0.06 0  0.5 0.06 0  0.51 0.06 0  0.52 0.06 0  0.53 0.06 0  0.54 0.06 0  0.55 0.06 0  0.5600000000000001 0.06 0  0.57 0.06 0  0.58 0.06 0  0.59 0.06 0  0.6 0.06 0  0.61 0.06 0  0.62 0.06 0  0.63 0.06 0  0.64 0.06 0  0.65 0.06 0  0.66 0.06 0  0.67 0.06 0  0.68 0.06 0  0.6899999999999999 0.06 0  0.7 0.06 0  0.71 0.06 0  0.72 0.06 0  0.73 0.06 0  0.74 0.06 0  0.75 0.06 0  0.76 0.06 0  0.77 0.06 0  0.78 0.06 0  0.79 0.06 0  0.8 0.06 0  0.8100000000000001 0.06 0  0.82 0.06 0  0.83 0.06 0  0.84 0.06 0  0.85 0.06 0  0.86 0.06 0  0.87 0.06 0  0.88 0.06 0  0.89 0.06 0  0.9 0.06 0  0.91 0.06 0  0.92 0.06 0  0.93 0.06 0  0.9399999999999999 0.06 0  0.95 0.06 0  0.96 0.06 0  0.97 0.06 0  0.98 0.06 0  0.99 0.06 0  1 0.06 0  0 0.07000000000000001 0  0.01 0.07000000000000001 0  0.02 0.07000000000000001 0  0.03 0.07000000000000001 0  0.04 0.07000000000000001 0  0.05 0.07000000000000001 0  0.06 0.07000000000000001 0  0.07000000000000001 0.07000000000000001 0  0.08 0.07000000000000001 0  0.09 0.07000000000000001 0  0.1 0.07000000000000001 0  0.11 0.07000000000000001 0  0.12 0.07000000000000001 0  0.13 0.07000000000000001 0  0.14 0.07000000000000001 0  0.15 0.07000000000000001 0  0.16 0.07000000000000001 0  0.17 0.0700
[...]
<PointData  Scalars="u"> 
<DataArray  type="Float64"  Name="u"  format="ascii">0.0000000000000000e+00  0.0000000000000000e+00  0.0000000000000000e+00  0.0000000000000000e+00  0.0000000000000000e+00  0.0000000000000000e+00  0.0000000000000000e+00  0.0000000000000000e+00  0.0000000000000000e+00  0.0000000000000000e+00  0.0000000000000000e+00  0.0000000000000000e+00  0.0000000000000000e+00  0.0000000000000000e+00  0.0000000000000000e+00  0.0000000000000000e+00  0.0000000000000000e+00  0.0000000000000000e+00  0.0000000000000000e+00  0.0000000000000000e+00  0.0000000000000000e+00  0.0000000000000000e+00  0.0000000000000000e+00  0.0000000000000000e+00  0.0000000000000000e+00  0.0000000000000000e+00  0.0000000000000000e+00  0.0000000000000000e+00  0.0000000000000000e+00  0.0000000000000000e+00  0.0000000000000000e+00  0.0000000000000000e+00  0.0000000000000000e+00  0.0000000000000000e+00  0.0000000000000000e+00  0.0000000000000000e+00  0.0000000000000000e+00  0.0000000000000000e+00  0.0000000000000000e+00  0.0000000000000000e+00  0.0000000000000000e+00  0.0000000000000000e+00  0.0000000000000000e+00  0.0000000000000000e+00  0.0000000000000000e+00  0.0000000000000000e+00  0.0000000000000000e+00  0.0000000000000000e+00  0.0000000000000000e+00  0.0000000000000000e+00  0.0000000000000000e+00  0.0000000000000000e+00  0.0000000000000000e+00  0.0000000000000000e+00  0.0000000000000000e+00  0.0000000000000000e+00  0.0000000000000000e+00  0.0000000000000000e+00  0.0000000000000000e+00  0.0000000000000000e+00  0.0000000000000000e+00  0.0000000000000000e+00  0.0000000000000000e+00  0.0000000000000000e+00  0.0000000000000000e+00  0.0000000000000000e+00  0.0000000000000000e+00  0.0000000000000000e+00  0.0000000000000000e+00  0.0000000000000000e+00  0.0000000000000000e+00  0.0000000000000000e+00  0.0000000000000000e+00  0.0000000000000000e+00  0.0000000000000000e+00  0.0000000000000000e+00  0.0000000000000000e+00  0.0000000000000000e+00  0.0000000000000000e+00  0.0000000000000000e+00  0.0000000000000000e+00  0.0000000000000000e+00  0.0000000000000000e+00  0.0000000000000000e+00  0.0000000000000000e+00  0.0000000000000000e+00  0.0000000000000000e+00  0.0000000000000000e+00  0.0000000000000000e+00  0.0000000000000000e+00  0.0000000000000000e+00  0.0000000000000000e+00  0.0000000000000000e+00  0.0000000000000000e+00  0.0000000000000000e+00  0.0000000000000000e+00  0.0000000000000000e+00  0.0000000000000000e+00  0.0000000000000000e+00  0.0000000000000000e+00  0.0000000000000000e+00  0.0000000000000000e+00  -1.7241947619808753e-02  -6.1865319169281924e-02  -1.9438623421054235e-02  -1.8461423970517924e-02  1.6179547023856725e-02  -1.4260443866939143e-02  -1.4524278227835507e-02  3.3980930915585177e-02  -5.4020092680245060e-02  -2.6295422534357749e-03  6.5379555287713789e-02  -2.1639858655818439e-02  -8.0097952663637756e-02  4.2627478147758864e-02  -1.9896990799856233e-02  -3.6407356758083615e-03  1.2550287245770802e-02  -3.4027164839369205e-02  8.7538397955367594e-02  -5.7824833558508815e-02  4.9733325686390419e-02  -6.0826379953145146e-02  2.0283012067671302e-02  -1.0790035635421739e-02  5.5407470057878286e-02  -6.1853326426583359e-02  3.5600152282633649e-02  -1.6837232992319644e-02  -9.7681375990982446e-03  5.2601213032047291e-03  4.9478982556821142e-02  -6.9509475722277933e-02  1.3997853212358441e-02  4.7413866308502843e-04  1.7977959098113621e-03  1.7951447717150158e-02  1.4209885692430502e-02  3.8844315993281503e-02  3.5094506052046198e-03  -2.6963460904753080e-02  -1.8201793959780343e-02  -8.9794737828925979e-03  -1.9645392758594605e-02  1.0592722730015157e-02  3.5470154314349779e-02  -4.2833360064905977e-02  2.0286620159849476e-02  -6.3352446222092627e-03  9.2957906077220410e-03  -9.4544768995259987e-03  9.5600704068151722e-03  2.0871177608197183e-03  -8.1982454052564359e-03  -2.4318424256790524e-03  3.9018994381286799e-03  5.1437709742816204e-03  -4.9609641583337003e-03  3.3443156697310992e-03  -1.4205255843389600e-03  9.7791569658995823e-04  -7.0145761031684942e-04  -3.6546899969373462e-04  2.3224414985220665e-04  -1.0531349212555847e-04  2.9322598302915589e-04  3.9028926688427563e-04  -1.3734472776352175e-04  2.2608653652073544e-04  1.0812930595362803e-03  -4.8025299444511737e-04  -6.0158775744515206e-04  7.9572912727592657e-04  -1.3426626442830927e-03  -3.0891863192431721e-03  -3.7047024776196299e-04  2.8197821493732762e-03  1.7639317967507451e-03  2.9019373184560252e-04  -1.2905062229465739e-04  -1.3170365024885828e-04  -2.8778168455522151e-04  2.6552426230023129e-04  7.2983541285860361e-04  4.1580592478609795e-04  -1.0396380922862550e-04  -2.2286448010450842e-04  -1.7682713300695572e-04  7.5471291539838653e-05  -3.3808356353309822e-05  -1.0297453643440366e-04  -6.3324642624008442e-05  -2.5664638797279556e-05  -1.6877469434091989e-05  4.5710736113952758e-06  1.0616333142939546e-05  1.2435373488387609e-05  1.3253670123964601e-05  1.2776261521634651e-05  1.0419917055269674e-05  0.0000000000000000e+00  0.0000000000000000e+00  -1.0537067442027164e-02  -1.6576264049352956e-02  4.6434570060859479e-02  -3.0735299370917082e-02  -5.9078581363483901e-02  -9.9994519101069199e-03  4.5529822096076367e-02  -3.3870054000807649e-02  -7.4856473414321806e-02  1.2212034428869194e-01  -8.9056492345184590e-02  -2.3810318812725634e-02  1.0286221050326645e-01  -1.0470311725997970e-01  -8.6170393361339415e-02  7.3804228353169549e-02  -4.3711791751458659e-02  6.6057459163490470e-02  -1.6474017814434996e-02  -1.4009146570816988e-02  9.2902638210004579e-02  -1.0558285818769957e-01  1.2053981985371710e-02  4.5288182167013351e-02  -2.2257772557778787e-02  -2.3233983015639215e-02  3.1444895062447423e-02  1.2162042755042108e-02  -4.0382672222676131e-03  -8.8588229412874947e-02  9.2908915678941967e-02  2.1692730211675070e-02  -5.8615519360594372e-02  -3.6856771844402059e-02  1.7717866582509727e-02  2.7926934269646785e-02  5.4213164783190292e-02  2.9096066936104042e-02  1.2758257801385507e-03  4.3988598487093383e-02  -4.4234336928770150e-02  -7.3560173001385940e-02  4.4802906363020784e-04  2.5901501549863860e-03  4.0909624791777281e-02  -3.0634722568037381e-02  1.9294895196603778e-02  -3.2210308079408750e-02  4.1222821821117771e-02  -2.6352097697529893e-02  1.5253245382594628e-02  3.3371976743475985e-04  7.2488293795230242e-03  -2.4083860588089596e-02  8.3630354057719781e-03  8.6799014142046899e-03  -2.3198651009593863e-04  -3.3416626022224468e-03  3.9629081805146764e-03  -2.1529868736918927e-03  1.7895991244628088e-03  -2.1434807195002642e-03  5.3915636523790573e-04  -1.4615458004236200e-04  1.6872307016679901e-04  6.1959973853091175e-04  5.1885002824130411e-04  -5.1694816987675083e-04  1.6060216253960412e-03  1.0687964639165902e-03  -1.8944667228815170e-03  4.4667834088133379e-04  4.9427749019391139e-04  -4.6477391415440921e-03  -4.4193418381785988e-03  2.7748644604785443e-03  4.9305404042561648e-03  1.5629119372317683e-03  -1.4717809663334082e-04  -1.9562452837048800e-04  -3.7923307971465407e-04  -1.9140500369453542e-04  1.0592275039190704e-03  1.2670711591708985e-03  2.3672756661005621e-04  -2.7655137420676414e-04  -4.3710977768243140e-04  -3.2252903404218575e-05  1.2623673859476825e-04  -1.3953762867418277e-04  -1.5840808947036178e-04  -7.2895403284926842e-05  -4.4194149434467646e-05  -2.4274062952874604e-05  6.4449538325174486e-06  4.3271697369958517e-06  8.9625946502950896e-06  1.1210111821204344e-05  1.8525545865629702e-05  0.0000000000000000e+00  0.0000000000000000e+00  4.7737004062038922e-02  4.4584169370400897e-02  -1.2398438476313736e-01  5.4010330731099586e-02  1.2452154754035091e-02  2.8831960658798103e-02  -5.7433193196596767e-02  1.1031209678460441e-02  7.1262566213141906e-02  -2.0154694092862463e-01  1.1660120441573359e-01  1.1496105703294250e-01  -1.4709241659458894e-01  -9.6588639602433621e-02  1.1916541392144737e-01  -1.3455376589035167e-01  2.0302270207991208e-02  8.9963519399484908e-05  -2.6896216418149467e-02  2.1084020605457668e-01  -1.9923537405696634e-01  1.8786879832270123e-01  -2.1553835851786091e-01  7.0095260101286944e-02  1.6536980102855262e-02  1.1636907407209032e-01  -1.9940702730519386e-01  1.1937857306434928e-01  -2.9786568139834959e-02  8.8568921665751837e-04  -4.5795901145787792e-02  1.3623602177393992e-01  -1.5260309774888323e-01  4.9935105292218576e-02  -2.9769292377781035e-02  -2.7646795090568036e-03  5.0718825648707423e-02  6.4088469166107276e-02  1.0204227373325644e-01  -2.5398466173444208e-02  -3.4659121512669443e-02  -3.1115498648669054e-02  -5.4551787095466306e-02  -4.6667984544211082e-02  3.9899593583448884e-02  1.0166992703955595e-01  -1.3372596988389140e-01  7.8255311594729912e-02  -4.1199209672353958e-02  4.5351419688164162e-02  -3.8817229537910260e-02  3.2766817312063178e-02  -2.8168396174092689e-05  -1.3646994142607682e-02  -1.5388586428092805e-02  1.3493204268947878e-02  1.4171758351094327e-02  -1.2406120282618229e-02  6.8648765733948826e-03  -2.2845193637946147e-03  1.5203597632353742e-03  -9.1702390450254490e-04  -1.4931390235821912e-03  8.5839464212318238e-04  -3.8751856781601963e-04  6.9114010108464936e-04  1.0323337166075496e-03  -1.7540815482942917e-04  2.2546499788927006e-04  3.0424664327449490e-03  -7.6669074935460733e-04  -2.1646513010709855e-03  2.1322700201234428e-03  -2.6778685245657484e-03  -8.3808594604115379e-03  -2.1074504983533446e-03  7.5085412547291419e-03  5.2297019271532090e-03  5.9971571999500146e-04  -6.4997202275165046e-04  -4.4240657907980202e-04  -7.6505731248530941e-04  5.5161649477233226e-04  1.9894780391651228e-03  1.2812614774830818e-03  -2.2559565382149213e-04  -5.4742854734464376e-04  -4.8974752847154529e-04  2.2613476177015508e-04  1.4838544929876753e-05  -2.3723577722450793e-04  -1.5910610531247833e-04  -6.2898201765352953e-05  -5.1840000939927747e-05  -9.4979587919287442e-06  6.9164570591345359e-06  2.1612439683227598e-06  -5.8212060558322023e-09  -1.4896420114808175e-06  0.0000000000000000e+00  0.0000000000000000e+00  -5.6469975041837588e-02  -5.1287400437923923e-02  6.4011100937274898e-02  3.8761826105911328e-02  -4.4555654920891544e-02  -5.9714118498065370e-02  6.1854520462009267e-02  6.4132385850899906e-02  -5.4595776041417646e-02  -2.9629620770461870e-02  8.1057529620499835e-02  -1.2826100714637492e-01  9.9537257479628327e-02  9.9325384773310987e-02  -2.8093175505704093e-01  -3.3100185487291212e-02  9.7373739860499048e-02  -6.7952065759939881e-02  8.7079435526342355e-02  -7.7681124596923709e-02  1.1303011653638324e-01  4.8541185868574435e-02  -8.4239963676474919e-02  -6.1948629553741669e-02  6.9544980571714168e-02  -4.0692429606087446e-02  6.2826384963884332e-02  -4.0344854632739686e-02  4.5928895850801656e-02  -3.7160051350753447e-02  -1.1800375606773159e-01  1.5024661796009839e-01  8.1612093750471765e-02  -1.8783596709056574e-01  -2.2987886265824826e-02  4.0852882247472209e-02  4.0052152051267581e-02  8.3471280056251290e-02  5.0836035698627227e-02  6.1474058826998114e-02  6.1392191228978238e-02  -1.0843622289730032e-01  -1.1449402776423363e-01  3.5655551265220626e-03  -2.1950542589247262e-02  6.9354430627249483e-02  1.0682507546820909e-02  -3.2118827563981260e-02  -1.6572613829458720e-02  5.0026662068186512e-02  -2.4600653643110312e-02  8.2016256314774334e-03  1.3110047600470512e-02  1.0686174197788414e-02  -4.2974542060221201e-02  8.7237309752095406e-03  1.7472328917875483e-02  4.4195685853185640e-03  -9.7140594735803613e-03  8.5321211045527746e-03  -4.4903083517770798e-03  3.2979459420685638e-03  -3.7331253625564418e-03  4.8330555081100657e-04  2.5069618953884406e-05  8.5251034035705502e-05  1.1350869196659575e-03  1.0945929801072496e-03  -9.7365279824816330e-04  2.4637886922642340e-03  2.6326671093040606e-03  -3.2494785046521132e-03  -7.2867344473410888e-05  1.6305531655109466e-03  -7.8846293951311784e-03  -9.4684909983850252e-03  3.7317889407277641e-03  1.0196575799367008e-02  3.9396882251847183e-03  -2.9860657371053061e-04  -7.3827945982241647e-04  -9.0264040652781523e-04  -6.6648118284823559e-04  1.7271706417900381e-03  2.5005341181073316e-03  6.8273582336920676e-04  -5.7380560451773257e-04  -8.5621250396540084e-04  -2.1848450445729770e-04  2.7416565741688925e-04  -1.8583474018805260e-04  -2.8585205529135896e-04  -1.3259189500268280e-04  -6.6246130310682969e-05  -4.1985565267173041e-05  9.1730413086923169e-06  5.4589061157113863e-06  4.5411440930366877e-06  -8.3930583247227162e-07  0.0000000000000000e+00  0.0000000000000000e+00  1.2948103269919262e-01  9.3765171243967063e-02  -1.6908408980482813e-02  -1.5038839981636740e-01  1.3933197310264936e-01  2.2528912998150026e-02  -1.2849564083185640e-02  -5.1222381796883126e-02  7.7012927049993560e-02  5.7397770616922084e-02  -2.3653697557441883e-01  2.4320193097257628e-01  3.5090018794627698e-02  -1.7022055751731999e-01  1.3560622049183201e-02  4.1496396481009473e-02  -2.3069741439471389e-01  7.8527630252399852e-02  -7.4943487690936157e-03  3.9357643923547785e-02  1.9370142434509130e-01  -2.2865660910014599e-01  2.6912451716495411e-01  -3.0483743108478950e-01  9.8624315317075675e-02  5.0569525005867838e-02  8.2130847166408880e-02  -2.3248987598680723e-01  1.6924617628162761e-01  -9.2603662136182367e-03  -1.9515377364194418e-02  -1.2815498970114492e-01  2.2005237459462595e-01  -1.3001921804538197e-01  7.0812374385859946e-03  -7.5892061987216514e-02  7.1662904380313955e-03  9.2732200175428325e-02  1.2025877533737438e-01  1.2263657601177125e-01  -3.1577163079708856e-02  5.9228687873346762e-03  -7.0191185962107217e-02  -1.2602879208498624e-01  -4.9119608850733354e-02  5.4982199781387152e-02  1.3640216358856735e-01  -1.6444685674222104e-01  9.9167033327772963e-02  -6.6222507337878628e-02  7.9716021047846072e-02  -5.9857546094305589e-02  4.6343707287870899e-02  1.4586392209549753e-03  -1.1227131471571606e-02  -3.4612767468527122e-02  2.1155173000120885e-02  2.1815906980711640e-02  -1.3921611862419516e-02  5.7113516493433256e-03  -4.5458556260718851e-04  4.9375267404485788e-04  -2.1728933750992044e-04  -3.0048362631704241e-03  1.2458191781832748e-03  -5.8201334900905238e-04  8.0381789065491350e-04  1.5806014956575396e-03  6.8268294721056863e-05  -9.5808989550886248e-05  4.4964471560509332e-03  -1.6245208995316514e-04  -3.8261762157073683e-03  2.5919168855204895e-03  -2.7482680642254911e-03  -1.2727035284768370e-02  -5.5202569496592951e-03  1.0490063753163080e-02  9.6020773290234670e-03  1.8870624360392532e-03  -8.8235343324905588e-04  -7.9507940724463533e-04  -1.2704221420560327e-03  3.9626411989323235e-04  2.9066248611265737e-03  2.2398546875471333e-03  -1.3368508932031360e-04  -8.9165137700711707e-04  -8.8061208155227764e-04  1.5974742815717268e-04  6.9807058722349009e-05  -3.5373030728117285e-04  -2.7735491277475747e-04  -1.1374572268434084e-04  -7.7621821615886079e-05  -1.8690023690568783e-05  1.5915394152832764e-05  7.7065181066422179e-06  2.4549707212888533e-06  0.0000000000000000e+00  0.0000000000000000e+00  -1.1495718539401008e-01  -5.2584040769357458e-02  2.9498324137667922e-02  1.3273967253257327e-01  -4.8289286488042579e-02  -3.1711653796459821e-02  -2.5985500410982857e-02  9.5484356491832026e-02  3.6441175001398526e-02  -2.7864318235545856e-02  -2.5036525977090098e-03  -3.0492703542490077e-02  -8.0091761045298169e-03  1.7103039037457815e-01  -1.3972200079014245e-02  -3.0540974676575650e-01  4.7612709387472689e-02  2.9271371122220179e-02  -6.0459294175690841e-02  6.1273381957371413e-02  -4.6080454345388246e-02  2.2560211694508142e-01  -4.6346308143078045e-02  -1.0490116351968887e-03  -1.8772341445453639e-01  1.0621284292793322e-01  5.3514272275608215e-03  1.1362265267689552e-01  -1.5502345707551335e-01  9.1721398009835975e-02  -4.2767387952343049e-02  -9.7483508858627430e-02  1.2669969261379185e-01  1.2817333817372026e-01  -2.6669238358929687e-01  1.3147395990566628e-02  3.0104444171904936e-02  3.2770774155572197e-02  1.0536995227270358e-01  1.0361777549768647e-01  1.2621119608074097e-01  3.3637442383041012e-02  -1.2792329304905045e-01  -1.2789546103697486e-01  -3.3266947287489315e-02  -4.9157908234534531e-02  9.7873944969269155e-02  6.0781721439639308e-02  -1.0293566969693209e-01  2.5714544122579560e-02  2.7841019599234088e-02  2.6343184095979741e-03  -1.3535474784139292e-02  3.2857066327199154e-02  8.3665925756154450e-03  -4.8738214831446303e-02  -1.9095471186346346e-03  2.7788804944801338e-02  9.3347719261548875e-03  -1.3682971214880954e-02  1.0441971944867982e-02  -4.7729970323459698e-03  3.5280702970328665e-03  -4.0987045006182967e-03  -2.2637870746003018e-04  3.7515042385587183e-04  -1.1123894796033514e-04  1.4051925463971500e-03  1.6081021551630494e-03  -1.1493975264519245e-03  2.6979683210565492e-03  4.1363117565999660e-03  -3.6513045478283948e-03  -1.2756256946235599e-03  2.4283381611030692e-03  -9.6431000715556832e-03  -1.4107996285542023e-02  2.7354759064924161e-03  1.4450836187724627e-02  7.0700024207797103e-03  2.9506792348866103e-05  -1.0907844304419772e-03  -1.2471479013915915e-03  -1.0225005087498519e-03  2.0672034810713257e-03  3.5778421134683722e-03  1.3114693272001327e-03  -7.3100937520849266e-04  -1.2210540353319252e-03  -4.9577172247573212e-04  2.8953358607100436e-04  -2.1076298684894127e-04  -4.2668571574273889e-04  -2.3268301082744508e-04  -1.1542121607644277e-04  -7.2992614398628838e-05  -3.3290253366354978e-07  1.1255970372293316e-05  9.0328258134934811e-06  0.0000000000000000e+00  0.0000000000000000e+00  5.2485183521501035e-02  4.3087464891098562e-02  -2.3817885201250198e-02  -1.1108007442567150e-01  -7.5360025148507662e-02  1.6344211633383735e-01  2.8467956643186379e-03  -5.9339844616639714e-02  -1.2100283244884210e-02  9.6699588742701043e-02  3.6141513400381187e-02  -1.8206822201417464e-01  2.0122973981238923e-01  -9.1018606381032784e-03  -6.1549384866386600e-02  3.0229299302245379e-02  -1.0360358091007850e-01  -1.9936065885621140e-01  9.8386387392346092e-02  9.0153684496352225e-03  6.2105124979123440e-02  1.2572059026081064e-01  -1.1875527273876414e-01  2.3593389581508792e-01  -2.6478519505420811e-01  4.0949535175094955e-02  6.1954971122399324e-02  5.1238153115803424e-02  -1.5119394828877503e-01  1.2917225706920621e-01  2.7142209573049875e-02  -7.4079387123541271e-02  -1.5177511128339596e-01  2.7469843480500000e-01  -6.5747704559657824e-02  -1.0718508536183337e-01  -7.9325306659501132e-02  2.5228297116274102e-02  1.2350473646826232e-01  1.5244711320956869e-01  1.3263810606114904e-01  1.8017756849779746e-02  2.5114786502038113e-02  -1.2474876606051082e-01  -1.6913060594237428e-01  -4.9847295206461938e-02  4.4731134948127964e-02  1.5369331169677006e-01  -1.2971277896799946e-01  5.0613854959254898e-02  -4.7110290055796027e-02  8.1232440780822326e-02  -5.3924913765631619e-02  3.8152055948511843e-02  1.4645552013201918e-02  -1.2273386510297600e-02  -4.7958339160118837e-02  2.0610950911718481e-02  3.0648504094596109e-02  -1.1694089381503996e-02  2.6136538090624699e-03  1.8608387303275056e-03  -3.7956523108432491e-04  3.8854242344269662e-04  -3.8855094610767745e-03  1.2452192467359666e-03  -4.1332091086899325e-04  7.9783059115592458e-04  2.0000180045163687e-03  4.9717012289700378e-04  -4.0020191616261819e-04  5.2822767429825746e-03  9.2830999309884653e-04  -4.8868190309323016e-03  2.1049634390596988e-03  -2.3127004997026985e-03  -1.5760431466922794e-02  -9.5522152427474066e-03  1.1576082618155124e-02  1.4097447533027418e-02  3.9929441562158970e-03  -9.9177265161602755e-04  -1.2133897981679385e-03  -1.7057053070758852e-03  1.9780483821332746e-04  3.6004720274924276e-03  3.2823871891340425e-03  2.4211882798206704e-04  -1.1611012245777779e-03  -1.2136164585879012e-03  -1.9018439223165013e-05  1.0487690569550643e-04  -4.2335857108372364e-04  -4.0441053432262181e-04  -1.9163713808191676e-04  -1.2026920202253659e-04  -4.8021714599102548e-05  4.3529885906263334e-06  5.1280279237255926e-06  0.0000000000000000e+00  0.0000000000000000e+00  -1.1145329806549078e-02  1.9577092638285987e-02  3.5379452596311957e-02  6.6560544852508868e-02  4.1543613939431359e-02  -1.3084059520710931e-01  -2.8610893225271342e