<?xml version="1.0"?>
<VTKFile type="UnstructuredGrid"  version="0.1"  >
<UnstructuredGrid>
<Piece  NumberOfPoints="10201" NumberOfCells="20000">
<Points>
<DataArray  type="Float64"  NumberOfComponents="3"  format="ascii">0 0 0  0.01 0 0  0.02 0 0  0.03 0 0  0.04 0 0  0.05 0 0  0.06 0 0  0.07000000000000001 0 0  0.08 0 0  0.09 0 0  0.1 0 0  0.11 0 0  0.12 0 0  0.13 0 0  0.14 0 0  0.15 0 0  0.16 0 0  0.17 0 0  0.18 0 0  0.19 0 0  0.2 0 0  0.21 0 0  0.22 0 0  0.23 0 0  0.24 0 0  0.25 0 0  0.26 0 0  0.27 0 0  0.28 0 0  0.29 0 0  0.3 0 0  0.31 0 0  0.32 0 0  0.33 0 0  0.34 0 0  0.35 0 0  0.36 0 0  0.37 0 0  0.38 0 0  0.39 0 0  0.4 0 0  0.41 0 0  0.42 0 0  0.43 0 0  0.44 0 0  0.45 0 0  0.46 0 0  0.47 0 0  0.48 0 0  0.49 0 0  0.5 0 0  0.51 0 0  0.52 0 0  0.53 0 0  0.54 0 0  0.55 0 0  0.5600000000000001 0 0  0.57 0 0  0.58 0 0  0.59 0 0  0.6 0 0  0.61 0 0  0.62 0 0  0.63 0 0  0.64 0 0  0.65 0 0  0.66 0 0  0.67 0 0  0.68 0 0  0.6899999999999999 0 0  0.7 0 0  0.71 0 0  0.72 0 0  0.73 0 0  0.74 0 0  0.75 0 0  0.76 0 0  0.77 0 0  0.78 0 0  0.79 0 0  0.8 0 0  0.8100000000000001 0 0  0.82 0 0  0.83 0 0  0.84 0 0  0.85 0 0  0.86 0 0  0.87 0 0  0.88 0 0  0.89 0 0  0.9 0 0  0.91 0 0  0.92 0 0  0.93 0 0  0.9399999999999999 0 0  0.95 0 0  0.96 0 0  0.97 0 0  0.98 0 0  0.99 0 0  1 0 0  0 0.01 0  0.01 0.01 0  0.02 0.01 0  0.03 0.01 0  0.04 0.01 0  0.05 0.01 0  0.06 0.01 0  0.07000000000000001 0.01 0  0.08 0.01 0  0.09 0.01 0  0.1 0.01 0  0.11 0.01 0  0.12 0.01 0  0.13 0.01 0  0.14 0.01 0  0.15 0.01 0  0.16 0.01 0  0.17 0.01 0  0.18 0.01 0  0.19 0.01 0  0.2 0.01 0  0.21 0.01 0  0.22 0.01 0  0.23 0.01 0  0.24 0.01 0  0.25 0.01 0  0.26 0.01 0  0.27 0.01 0  0.28 0.01 0  0.29 0.01 0  0.3 0.01 0  0.31 0.01 0  0.32 0.01 0  0.33 0.01 0  0.34 0.01 0  0.35 0.01 0  0.36 0.01 0  0.37 0.01 0  0.38 0.01 0  0.39 0.01 0  0.4 0.01 0  0.41 0.01 0  0.42 0.01 0  0.43 0.01 0  0.44 0.01 0  0.45 0.01 0  0.46 0.01 0  0.47 0.01 0  0.48 0.01 0  0.49 0.01 0  0.5 0.01 0  0.51 0.01 0  0.52 0.01 0  0.53 0.01 0  0.54 0.01 0  0.55 0.01 0  0.5600000000000001 0.01 0  0.57 0.01 0  0.58 0.01 0  0.59 0.01 0  0.6 0.01 0  0.61 0.01 0  0.62 0.01 0  0.63 0.01 0  0.64 0.01 0  0.65 0.01 0  0.66 0.01 0  0.67 0.01 0  0.68 0.01 0  0.6899999999999999 0.01 0  0.7 0.01 0  0.71 0.01 0  0.72 0.01 0  0.73 0.01 0  0.74 0.01 0  0.75 0.01 0  0.76 0.01 0  0.77 0.01 0  0.78 0.01 0  0.79 0.01 0  0.8 0.01 0  0.8100000000000001 0.01 0  0.82 0.01 0  0.83 0.01 0  0.84 0.01 0  0.85 0.01 0  0.86 0.01 0  0.87 0.01 0  0.88 0.01 0  0.89 0.01 0  0.9 0.01 0  0.91 0.01 0  0.92 0.01 0  0.93 0.01 0  0.9399999999999999 0.01 0  0.95 0.01 0  0.96 0.01 0  0.97 0.01 0  0.98 0.01 0  0.99 0.01 0  1 0.01 0  0 0.02 0  0.01 0.02 0  0.02 0.02 0  0.03 0.02 0  0.04 0.02 0  0.05 0.02 0  0.06 0.02 0  0.07000000000000001 0.02 0  0.08 0.02 0  0.09 0.02 0  0.1 0.02 0  0.11 0.02 0  0.12 0.02 0  0.13 0.02 0  0.14 0.02 0  0.15 0.02 0  0.16 0.02 0  0.17 0.02 0  0.18 0.02 0  0.19 0.02 0  0.2 0.02 0  0.21 0.02 0  0.22 0.02 0  0.23 0.02 0  0.24 0.02 0  0.25 0.02 0  0.26 0.02 0  0.27 0.02 0  0.28 0.02 0  0.29 0.02 0  0.3 0.02 0  0.31 0.02 0  0.32 0.02 0  0.33 0.02 0  0.34 0.02 0  0.35 0.02 0  0.36 0.02 0  0.37 0.02 0  0.38 0.02 0  0.39 0.02 0  0.4 0.02 0  0.41 0.02 0  0.42 0.02 0  0.43 0.02 0  0.44 0.02 0  0.45 0.02 0  0.46 0.02 0  0.47 0.02 0  0.48 0.02 0  0.49 0.02 0  0.5 0.02 0  0.51 0.02 0  0.52 0.02 0  0.53 0.02 0  0.54 0.02 0  0.55 0.02 0  0.5600000000000001 0.02 0  0.57 0.02 0  0.58 0.02 0  0.59 0.02 0  0.6 0.02 0  0.61 0.02 0  0.62 0.02 0  0.63 0.02 0  0.64 0.02 0  0.65 0.02 0  0.66 0.02 0  0.67 0.02 0  0.68 0.02 0  0.6899999999999999 0.02 0  0.7 0.02 0  0.71 0.02 0  0.72 0.02 0  0.73 0.02 0  0.74 0.02 0  0.75 0.02 0  0.76 0.02 0  0.77 0.02 0  0.78 0.02 0  0.79 0.02 0  0.8 0.02 0  0.8100000000000001 0.02 0  0.82 0.02 0  0.83 0.02 0  0.84 0.02 0  0.85 0.02 0  0.86 0.02 0  0.87 0.02 0  0.88 0.02 0  0.89 0.02 0  0.9 0.02 0  0.91 0.02 0  0.92 0.02 0  0.93 0.02 0  0.9399999999999999 0.02 0  0.95 0.02 0  0.96 0.02 0  0.97 0.02 0  0.98 0.02 0  0.99 0.02 0  1 0.02 0  0 0.03 0  0.01 0.03 0  0.02 0.03 0  0.03 0.03 0  0.04 0.03 0  0.05 0.03 0  0.06 0.03 0  0.07000000000000001 0.03 0  0.08 0.03 0  0.09 0.03 0  0.1 0.03 0  0.11 0.03 0  0.12 0.03 0  0.13 0.03 0  0.14 0.03 0  0.15 0.03 0  0.16 0.03 0  0.17 0.03 0  0.18 0.03 0  0.19 0.03 0  0.2 0.03 0  0.21 0.03 0  0.22 0.03 0  0.23 0.03 0  0.24 0.03 0  0.25 0.03 0  0.26 0.03 0  0.27 0.03 0  0.28 0.03 0  0.29 0.03 0  0.3 0.03 0  0.31 0.03 0  0.32 0.03 0  0.33 0.03 0  0.34 0.03 0  0.35 0.03 0  0.36 0.03 0  0.37 0.03 0  0.38 0.03 0  0.39 0.03 0  0.4 0.03 0  0.41 0.03 0  0.42 0.03 0  0.43 0.03 0  0.44 0.03 0  0.45 0.03 0  0.46 0.03 0  0.47 0.03 0  0.48 0.03 0  0.49 0.03 0  0.5 0.03 0  0.51 0.03 0  0.52 0.03 0  0.53 0.03 0  0.54 0.03 0  0.55 0.03 0  0.5600000000000001 0.03 0  0.57 0.03 0  0.58 0.03 0  0.59 0.03 0  0.6 0.03 0  0.61 0.03 0  0.62 0.03 0  0.63 0.03 0  0.64 0.03 0  0.65 0.03 0  0.66 0.03 0  0.67 0.03 0  0.68 0.03 0  0.6899999999999999 0.03 0  0.7 0.03 0  0.71 0.03 0  0.72 0.03 0  0.73 0.03 0  0.74 0.03 0  0.75 0.03 0  0.76 0.03 0  0.77 0.03 0  0.78 0.03 0  0.79 0.03 0  0.8 0.03 0  0.8100000000000001 0.03 0  0.82 0.03 0  0.83 0.03 0  0.84 0.03 0  0.85 0.03 0  0.86 0.03 0  0.87 0.03 0  0.88 0.03 0  0.89 0.03 0  0.9 0.03 0  0.91 0.03 0  0.92 0.03 0  0.93 0.03 0  0.9399999999999999 0.03 0  0.95 0.03 0  0.96 0.03 0  0.97 0.03 0  0.98 0.03 0  0.99 0.03 0  1 0.03 0  0 0.04 0  0.01 0.04 0  0.02 0.04 0  0.03 0.04 0  0.04 0.04 0  0.05 0.04 0  0.06 0.04 0  0.07000000000000001 0.04 0  0.08 0.04 0  0.09 0.04 0  0.1 0.04 0  0.11 0.04 0  0.12 0.04 0  0.13 0.04 0  0.14 0.04 0  0.15 0.04 0  0.16 0.04 0  0.17 0.04 0  0.18 0.04 0  0.19 0.04 0  0.2 0.04 0  0.21 0.04 0  0.22 0.04 0  0.23 0.04 0  0.24 0.04 0  0.25 0.04 0  0.26 0.04 0  0.27 0.04 0  0.28 0.04 0  0.29 0.04 0  0.3 0.04 0  0.31 0.04 0  0.32 0.04 0  0.33 0.04 0  0.34 0.04 0  0.35 0.04 0  0.36 0.04 0  0.37 0.04 0  0.38 0.04 0  0.39 0.04 0  0.4 0.04 0  0.41 0.04 0  0.42 0.04 0  0.43 0.04 0  0.44 0.04 0  0.45 0.04 0  0.46 0.04 0  0.47 0.04 0  0.48 0.04 0  0.49 0.04 0  0.5 0.04 0  0.51 0.04 0  0.52 0.04 0  0.53 0.04 0  0.54 0.04 0  0.55 0.04 0  0.5600000000000001 0.04 0  0.57 0.04 0  0.58 0.04 0  0.59 0.04 0  0.6 0.04 0  0.61 0.04 0  0.62 0.04 0  0.63 0.04 0  0.64 0.04 0  0.65 0.04 0  0.66 0.04 0  0.67 0.04 0  0.68 0.04 0  0.6899999999999999 0.04 0  0.7 0.04 0  0.71 0.04 0  0.72 0.04 0  0.73 0.04 0  0.74 0.04 0  0.75 0.04 0  0.76 0.04 0  0.77 0.04 0  0.78 0.04 0  0.79 0.04 0  0.8 0.04 0  0.8100000000000001 0.04 0  0.82 0.04 0  0.83 0.04 0  0.84 0.04 0  0.85 0.04 0  0.86 0.04 0  0.87 0.04 0  0.88 0.04 0  0.89 0.04 0  0.9 0.04 0  0.91 0.04 0  0.92 0.04 0  0.93 0.04 0  0.9399999999999999 0.04 0  0.95 0.04 0  0.96 0.04 0  0.97 0.04 0  0.98 0.04 0  0.99 0.04 0  1 0.04 0  0 0.05 0  0.01 0.05 0  0.02 0.05 0  0.03 0.05 0  0.04 0.05 0  0.05 0.05 0  0.06 0.05 0  0.07000000000000001 0.05 0  0.08 0.05 0  0.09 0.05 0  0.1 0.05 0  0.11 0.05 0  0.12 0.05 0  0.13 0.05 0  0.14 0.05 0  0.15 0.05 0  0.16 0.05 0  0.17 0.05 0  0.18 0.05 0  0.19 0.05 0  0.2 0.05 0  0.21 0.05 0  0.22 0.05 0  0.23 0.05 0  0.24 0.05 0  0.25 0.05 0  0.26 0.05 0  0.27 0.05 0  0.28 0.05 0  0.29 0.05 0  0.3 0.05 0  0.31 0.05 0  0.32 0.05 0  0.33 0.05 0  0.34 0.05 0  0.35 0.05 0  0.36 0.05 0  0.37 0.05 0  0.38 0.05 0  0.39 0.05 0  0.4 0.05 0  0.41 0.05 0  0.42 0.05 0  0.43 0.05 0  0.44 0.05 0  0.45 0.05 0  0.46 0.05 0  0.47 0.05 0  0.48 0.05 0  0.49 0.05 0  0.5 0.05 0  0.51 0.05 0  0.52 0.05 0  0.53 0.05 0  0.54 0.05 0  0.55 0.05 0  0.5600000000000001 0.05 0  0.57 0.05 0  0.58 0.05 0  0.59 0.05 0  0.6 0.05 0  0.61 0.05 0  0.62 0.05 0  0.63 0.05 0  0.64 0.05 0  0.65 0.05 0  0.66 0.05 0  0.67 0.05 0  0.68 0.05 0  0.6899999999999999 0.05 0  0.7 0.05 0  0.71 0.05 0  0.72 0.05 0  0.73 0.05 0  0.74 0.05 0  0.75 0.05 0  0.76 0.05 0  0.77 0.05 0  0.78 0.05 0  0.79 0.05 0  0.8 0.05 0  0.8100000000000001 0.05 0  0.82 0.05 0  0.83 0.05 0  0.84 0.05 0  0.85 0.05 0  0.86 0.05 0  0.87 0.05 0  0.88 0.05 0  0.89 0.05 0  0.9 0.05 0  0.91 0.05 0  0.92 0.05 0  0.93 0.05 0  0.9399999999999999 0.05 0  0.95 0.05 0  0.96 0.05 0  0.97 0.05 0  0.98 0.05 0  0.99 0.05 0  1 0.05 0  0 0.06 0  0.01 0.06 0  0.02 0.06 0  0.03 0.06 0  0.04 0.06 0  0.05 0.06 0  0.06 0.06 0  0.07000000000000001 0.06 0  0.08 0.06 0  0.09 0.06 0  0.1 0.06 0  0.11 0.06 0  0.12 0.06 0  0.13 0.06 0  0.14 0.06 0  0.15 0.06 0  0.16 0.06 0  0.17 0.06 0  0.18 0.06 0  0.19 0.06 0  0.2 0.06 0  0.21 0.06 0  0.22 0.06 0  0.23 0.06 0  0.24 0.06 0  0.25 0.06 0  0.26 0.06 0  0.27 0.06 0  0.28 0.06 0  0.29 0.06 0  0.3 0.06 0  0.31 0.06 0  0.32 0.06 0  0.33 0.06 0  0.34 0.06 0  0.35 0.06 0  0.36 0.06 0  0.37 0.06 0  0.38 0.06 0  0.39 0.06 0  0.4 0.06 0  0.41 0.06 0  0.42 0.06 0  0.43 0.06 0  0.44 0.06 0  0.45 0.06 0  0.46 0.06 0  0.47 0.06 0  0.48 0.06 0  0.49 0.06 0  0.5 0.06 0  0.51 0.06 0  0.52 0.06 0  0.53 0.06 0  0.54 0.06 0  0.55 0.06 0  0.5600000000000001 0.06 0  0.57 0.06 0  0.58 0.06 0  0.59 0.06 0  0.6 0.06 0  0.61 0.06 0  0.62 0.06 0  0.63 0.06 0  0.64 0.06 0  0.65 0.06 0  0.66 0.06 0  0.67 0.06 0  0.68 0.06 0  0.6899999999999999 0.06 0  0.7 0.06 0  0.71 0.06 0  0.72 0.06 0  0.73 0.06 0  0.74 0.06 0  0.75 0.06 0  0.76 0.06 0  0.77 0.06 0  0.78 0.06 0  0.79 0.06 0  0.8 0.06 0  0.8100000000000001 0.06 0  0.82 0.06 0  0.83 0.06 0  0.84 0.06 0  0.85 0.06 0  0.86 0.06 0  0.87 0.06 0  0.88 0.06 0  0.89 0.06 0  0.9 0.06 0  0.91 0.06 0  0.92 0.06 0  0.93 0.06 0  0.9399999999999999 0.06 0  0.95 0.06 0  0.96 0.06 0  0.97 0.06 0  0.98 0.06 0  0.99 0.06 0  1 0.06 0  0 0.07000000000000001 0  0.01 0.07000000000000001 0  0.02 0.07000000000000001 0  0.03 0.07000000000000001 0  0.04 0.07000000000000001 0  0.05 0.07000000000000001 0  0.06 0.07000000000000001 0  0.07000000000000001 0.07000000000000001 0  0.08 0.07000000000000001 0  0.09 0.07000000000000001 0  0.1 0.07000000000000001 0  0.11 0.07000000000000001 0  0.12 0.07000000000000001 0  0.13 0.07000000000000001 0  0.14 0.07000000000000001 0  0.15 0.07000000000000001 0  0.16 0.07000000000000001 0  0.17 0.0700
[...]
<PointData  Scalars="Indicator Function"> 
<DataArray  type="Float64"  Name="Indicator Function"  format="ascii">-2.6616068157170655e-19  9.9752354579627944e-19  1.8465776062808830e-17  6.5397073437352961e-19  5.0216651019510816e-17  -1.2025981641262045e-19  -4.6669567609281100e-20  1.8780641019397310e-17  8.9555316653397804e-17  -6.0399348013093469e-20  2.3003528069222761e-17  2.5201990875237755e-17  -9.1569593035386509e-21  -3.5348288083005184e-19  1.7234964524565776e-16  1.9259299443872359e-34  -2.7590920566414023e-19  2.0258910287139435e-16  -4.3741289932535219e-19  -5.3341660955028894e-19  4.7670630642984183e-16  -1.0451207739930895e-18  -5.3049515867049922e-19  2.5994262774854770e-17  -2.0719255367146594e-19  -4.2925445935839689e-19  -4.7388276219714235e-19  -4.6538327046625021e-19  7.3890947246790530e-16  -7.5680453674750525e-19  -1.5506786629246380e-18  -7.7533933146231950e-19  -8.2232176564435515e-19  -1.0125475546077783e-18  4.3802178510221926e-17  -4.3383377748665044e-19  -1.9387699450078454e-18  -3.2686303774433862e-18  -3.6379267058990486e-18  -3.0154128057609879e-18  3.9736778849734332e-16  -6.9981924586681968e-20  -8.2162526088556975e-19  -6.9780432442359798e-19  -8.6699949265903331e-19  -4.3349974632949730e-19  1.1399304466161175e-16  -4.8506541141406588e-19  -1.5171899815857996e-19  -3.2971408526901108e-19  -1.6485704263450561e-19  -2.2092088772995438e-19  -4.9951419781542631e-20  -3.2993813551894859e-19  -1.5524984402063599e-19  4.5740836179196852e-34  1.0477058897466563e-31  2.2569491535787920e-36  -3.7615819226313200e-37  3.7615819226313200e-37  3.7615819226313200e-37  -1.1212187271740633e-21  -5.9509820980552781e-21  -5.4728147405957251e-21  -5.8438837978125934e-21  -7.8781153532801558e-21  -1.4130816917894626e-20  -4.3129378151805948e-21  1.7266535575866334e-17  -2.7896253854345374e-20  -8.2199285503236904e-21  -4.8736987067805479e-21  -1.9751051084377038e-21  -4.4229103875214751e-20  -8.8741090977761344e-20  -4.6669791542879447e-20  -1.6976869786898740e-20  -3.6024509537748740e-20  -3.9346177210218201e-20  -3.6495537295588567e-20  -1.7741792119728313e-20  5.4970050871555576e-18  -2.1522840259655721e-20  -3.5210718821411549e-20  -3.3753103788773059e-20  -2.7269234366774613e-20  -1.7153276390454720e-20  -7.8203316058353598e-21  -3.5433287198313071e-21  -1.0310042649552879e-21  1.4105932209867450e-37  -3.1975621830972996e-22  -8.1122445691269158e-22  2.5981473926108173e-20  -1.1490855614410546e-21  -1.0018172144657495e-21  -7.0788247986324201e-22  -5.1266001619894055e-22  -1.8351843870667166e-23  -7.9892977033231879e-24  4.7019774032891500e-38  9.6296497219361793e-35  9.8164090934083261e-03  1.7528530764460985e-02  3.7990225714254048e-03  5.2713336000112252e-03  9.6991975835306174e-04  1.6814483783575550e-03  1.3313175980302248e-03  1.4068146858623051e-02  1.3768801125164301e-02  1.0880579248207381e-03  1.7867454390993243e-02  3.2991422805811270e-04  1.2735562963104267e-02  9.1487095466727345e-03  2.2566347704030789e-02  9.9406767665371487e-03  4.9991451681154653e-04  1.5759460563269628e-02  1.9218358752031026e-02  1.4921659272294023e-02  2.2841255013374660e-02  1.8827222113249768e-02  9.5565511956413572e-03  7.4648984600700413e-03  1.5465521785708805e-02  1.7073425849986817e-02  8.9123044020751486e-03  3.9274474927874069e-03  1.0084479955393270e-02  8.5911385410568242e-03  2.7934543394075115e-02  2.0278023711637717e-02  4.6746201335194039e-03  1.5903125091746267e-02  8.1828661525647182e-03  1.0590662661297719e-02  2.9630443076928938e-02  4.4067188660999193e-02  4.3501467097852915e-02  3.2570114404647188e-02  1.7769167099685481e-02  1.2606822779650023e-03  1.4170743736067250e-02  5.4851533137729152e-03  1.5618474368278524e-02  2.0977849434236997e-02  6.7008168135732236e-03  8.7381616243788138e-03  2.7331264942880235e-03  5.9396009262252889e-03  4.3601346930353330e-03  1.7996895641182594e-03  1.9993957434425173e-03  4.9439391849925504e-03  3.2476296622637889e-04  1.1130208734605981e-03  5.2891212648599592e-04  1.7623791162175461e-04  1.0660151247110944e-04  4.6844276934784641e-05  3.9029584989669774e-07  2.0198080967607722e-05  9.7104322553357095e-05  5.0037304428980081e-05  8.0255399362411044e-05  1.8437643613315288e-04  1.6236994915690728e-04  1.5964232004092026e-05  4.1276019320770279e-04  2.9615413724999883e-04  1.7559350143818358e-04  7.1160661043020903e-05  2.5291584263573168e-04  9.3343219611835050e-04  1.1319012789804137e-03  2.7477758371767557e-04  3.0582809778477833e-04  4.9604582202925128e-04  4.6077480507494308e-04  4.2705775012292314e-04  1.0607883845571471e-04  2.1667779047972237e-04  4.0158525354404268e-04  4.3350729388220397e-04  3.9128821564176193e-04  2.9559474711065838e-04  2.0202520144732051e-04  1.2736259363265804e-04  7.2128322827684355e-05  3.1750203742932267e-05  6.9818393523548766e-06  5.7602159425163944e-06  1.1733612676205192e-05  1.4082232153214411e-05  1.3658969148683794e-05  1.1577473661180290e-05  8.8959180259676279e-06  4.7873028187013904e-06  2.8784478527710504e-07  7.9892977033231997e-24  -6.2787274762873955e-19  1.6788276958959905e-03  4.3967818684230459e-03  1.0189855625489332e-03  5.6285414996206573e-03  1.7979360859255843e-02  4.1269829466615482e-03  1.2898559362574646e-02  4.1853024167078073e-03  9.9789591865680378e-03  2.3088829965944732e-02  1.8432492243747229e-02  6.9338507105255387e-03  2.8914422247017128e-02  3.2787198283259648e-02  1.9534706189106125e-02  7.3205790773778600e-03  3.6535303713258506e-02  1.2779165541408802e-02  8.0075523111064455e-03  3.9615726312770931e-03  1.7684808757261968e-02  2.3982678633401266e-02  2.5217997573911778e-02  1.4487538930394322e-02  4.9875513923469889e-04  1.1852853393164515e-02  2.1684818932712159e-02  3.2516701048523271e-02  1.7057575530660670e-02  2.9670685139816400e-02  3.5124669756300325e-02  7.7401958212064701e-03  2.5179217032539315e-02  1.8120251161615600e-02  1.8029751476142046e-02  1.0086252410973091e-02  3.2959829591489208e-02  5.1861423939607083e-02  5.4734862894998196e-02  6.5557005226256543e-02  3.3418805040675528e-02  7.4106456669640877e-03  2.5297465023753200e-03  1.8432908932614522e-02  1.4901273875068972e-02  7.0476266426623716e-03  5.9599135142703076e-03  1.1826984574695601e-02  7.7758207010236906e-03  1.0946800033761429e-02  3.0066587605536411e-03  3.4083353834590468e-03  1.7876886444427086e-03  9.2330643897716169e-03  1.9199127737342715e-03  1.3774337454938127e-04  1.5094842916888258e-03  4.7155244948301041e-04  1.9102723765464287e-04  9.8504268619126431e-05  2.3148585991913535e-05  1.0801620611249158e-05  1.2803487125364349e-04  1.0015301940407253e-04  1.2313544955761530e-04  1.4161585494373901e-04  3.9571113434791130e-04  7.7636335203641828e-06  2.8482138384037343e-04  7.4141591512056184e-04  1.0677036876182062e-04  2.1295354484663785e-04  1.0422589003167943e-04  9.2156872423864074e-04  1.6822208134623063e-03  9.6038054407460280e-04  4.1074952422007872e-04  6.5179007754201336e-04  5.6850641547618512e-04  6.1132020306301350e-04  3.4941039899336334e-04  1.1176211341310293e-04  5.5522085051583304e-04  6.3624834416713203e-04  5.6232645352331139e-04  4.4522971649205682e-04  3.2043535553259489e-04  2.1692995812922953e-04  1.3484748625665615e-04  6.9566963021348786e-05  2.3600136304837074e-05  1.8879348817067844e-06  1.4305333854061215e-05  2.0193721145266340e-05  2.2052730192818884e-05  2.0526441668797021e-05  1.6789348155145987e-05  1.2881428535836927e-05  4.1056014998290773e-06  1.0255799958853082e-21  2.8888949165808538e-34  1.2946208061271535e-02  5.0450070148448795e-03  2.5206500444813290e-02  1.3108444507037856e-02  2.6452141799924182e-05  5.5736150825368288e-04  3.1648290425212558e-04  8.7549192861545477e-04  2.6090072904596168e-02  4.5204895115294873e-02  2.5694674295543486e-02  2.7743597867557729e-02  2.0721714125860255e-02  1.1773192838030563e-02  2.0332723175299720e-02  5.8776632672138097e-02  4.3967282436347460e-03  3.8582646322591124e-03  2.5323267898707588e-02  4.3547159528901612e-02  4.3488399280157401e-02  6.0978173756996830e-02  6.4039500401000496e-02  4.2637570890630611e-02  2.2188026997613283e-02  3.1345760165656912e-02  3.8804140321585620e-02  1.7199074384719959e-02  1.7963872404905556e-02  2.5996268553444900e-02  2.3696153068146038e-02  6.9657720998718725e-02  5.4163922012247408e-02  1.2042401520777591e-03  2.6541344108439908e-02  1.0460275246890048e-02  2.8584562395230124e-02  5.5130244479116207e-02  7.1592440868716703e-02  5.8355661017598877e-02  4.8338415245521231e-02  2.5605157643341602e-02  1.4855605192529890e-02  2.1126772617495817e-02  3.3715914703985770e-03  4.0742926436638717e-02  5.5480786745829201e-02  2.6694093664423563e-02  2.4782927244697092e-02  1.4804650498559231e-02  1.7625565861874776e-02  1.2862334929645766e-02  8.4502794231541931e-04  4.5101391708843889e-03  1.0827033393461484e-02  3.3303200471699506e-03  1.4803415876317456e-03  1.2690286989526221e-03  3.4830632958481728e-04  2.2574653595330474e-04  8.7694789447761249e-05  8.8723007151706491e-06  2.7575596445470934e-05  2.0868309436804442e-04  7.4966737789404156e-05  1.6697331540948412e-04  3.1031981871362774e-04  3.4502396821084903e-04  1.2114108432721345e-04  7.9334151325892997e-04  5.6477027934646103e-04  6.2689099584685838e-04  1.4153438729919702e-04  3.1481536862791408e-04  1.7086199495755653e-03  1.8558668568014343e-03  1.0084477174885711e-04  9.2428600175178434e-04  7.1548529444290926e-04  4.7477416287002207e-04  6.1111560823233198e-04  6.1102626306844317e-05  3.6980595966372334e-04  8.3214569520897151e-04  7.0344980914491902e-04  5.3605095344403156e-04  3.8820769112163904e-04  2.7996061147337535e-04  1.9351201830004105e-04  1.1870403474851725e-04  5.5798239455606931e-05  1.5535907308774721e-05  5.4899101112505867e-06  1.6239856634216861e-05  2.1599930211623635e-05  2.2412705312510085e-05  2.0421516831117186e-05  1.7047427831899947e-05  1.1100296675243759e-05  -1.5404756186282119e-21  -2.5395612660032351e-19  5.8204366786564843e-03  6.6244094581229332e-03  1.1096407273627269e-02  3.4295958327346056e-04  1.8856192949795287e-03  1.7993951531680010e-02  1.9949885811777607e-02  1.9664013556414423e-02  1.2075670375940021e-02  2.7899294443017872e-03  1.3931116512410515e-02  2.7299221524182699e-02  3.2497270174468129e-02  2.9799298563368919e-02  6.5763987370723517e-02  8.5352810157390043e-04  8.3199432391640419e-04  4.8011486062032177e-02  3.0684868809854458e-02  2.5892522556848038e-02  2.5235035084162624e-02  2.0273739195548531e-03  1.2087525513208091e-02  1.4844645889668140e-02  1.3028495015798032e-02  5.8943196274843955e-03  3.3308066035394879e-02  4.8369836654874251e-02  5.3624423306850563e-02  2.6159451235546111e-02  4.2959694950309234e-02  4.9510661747522743e-02  2.7512229980995426e-02  6.1747989345592245e-02  1.3773865878231935e-02  1.9408255213840476e-02  1.7211351016491887e-02  4.5574411295199839e-02  6.6525588505944686e-02  6.9830161823426218e-02  7.7082204351816994e-02  2.7135636233460436e-02  1.6599316748124676e-02  2.5168912278305234e-03  2.7004768130340969e-02  2.6063022446445365e-02  6.1526748899966080e-03  2.9792432344273236e-02  1.3712513951340596e-03  6.5228553604598028e-03  9.9261233283142181e-03  1.5203717443663993e-04  8.8610904027225657e-03  1.2409782475816674e-03  1.4680585557493457e-02  3.0147658651095174e-03  3.3505448670221420e-03  2.1095990820117869e-03  7.5729552596975598e-04  2.7810001537481398e-04  1.8201416127806123e-04  6.6730812571382325e-05  3.8833556300203738e-06  1.3822313470353330e-04  1.4518312412123562e-04  1.2865906617197815e-04  1.7688269810859866e-04  5.3411643555814625e-04  2.4569757430253400e-05  2.1033602100020417e-04  1.1195888488073078e-03  1.6780741036223208e-04  5.7746823342150774e-04  3.3572297245403819e-04  1.1091802207626440e-03  2.3202935487069525e-03  1.1740620444300270e-03  1.1183671974213348e-03  1.0733449380478982e-03  5.5691339412639030e-04  5.1950654947709326e-04  3.6335477724216053e-04  3.3150905444792710e-05  7.5121976626366430e-04  9.2481867871952177e-04  6.6140626177274889e-04  4.5386991999704743e-04  3.1846666441004662e-04  2.3333122747367708e-04  1.6266710308436032e-04  9.4464174668941619e-05  4.0496860164229591e-05  9.8793838981278999e-06  5.6145201550881327e-06  1.4249020920407527e-05  1.8417038958818874e-05  1.8098874158818738e-05  1.5080121746599042e-05  1.1750307236391162e-05  2.9277130640960071e-21  -8.2592958340955552e-19  2.5089618873045973e-02  2.2128678084285706e-02  2.8493001428583613e-03  2.8626297627898686e-02  2.7162988686968349e-02  3.2970971823554521e-03  1.0299081297025860e-02  7.1092310287298021e-03  1.3427747315840611e-02  2.4170932147007679e-02  5.2670519327394895e-02  4.8959108492039778e-02  1.2666936827947740e-02  2.2517604583215160e-02  9.1598388189434408e-03  3.4776653400550670e-03  7.1182921074848138e-02  2.1764021585148292e-02  1.7835506964029881e-02  1.3759983801379281e-02  4.3057223631677737e-02  4.7936235777847246e-02  7.3713471158355429e-02  8.7409923861739777e-02  6.7102312674570980e-02  3.4746897532540573e-02  3.1343221767702760e-02  3.8101341831704764e-02  1.1153724143475159e-02  4.0133240323984423e-02  4.4809876127456905e-02  3.9739692601824250e-02  1.0130869473544600e-01  5.9104240089562485e-02  1.3906162583797257e-02  3.3138243533458837e-02  1.2814522980463526e-02  4.1826868373181565e-02  6.8724780525920612e-02  8.0151000824710758e-02  6.1019319877685017e-02  5.9820283924621541e-02  2.2188842483586758e-02  3.3879780056541062e-02  2.1572893509721559e-02  3.3522517410352740e-03  5.7449486727154206e-02  6.6595143266473256e-02  2.8929553067637646e-02  3.1063602305380054e-02  2.4202270333889921e-02  2.4969692997038967e-02  1.7326015956928866e-02  2.0981961347560571e-03  4.9621843899634943e-03  1.6282555831823534e-02  5.6168373576608180e-03  5.8857004095969287e-05  1.7842265811739355e-03  3.8159533990761858e-04  2.4836378366359710e-04  1.0020465226322979e-04  5.9635969086872395e-06  2.6110044010814103e-05  2.3654057419300359e-04  7.1703304445479814e-05  1.7529993246231327e-04  3.2918350517111071e-04  4.5541791175142811e-04  2.4525712862216573e-04  8.5670352510824606e-04  8.3993233110164474e-04  8.7141976766508939e-04  2.2404028747792511e-06  1.0513686262953599e-04  2.0139479392907249e-03  2.3646233095244002e-03  2.2294874402477606e-04  1.5662188549735981e-03  9.2042620780445150e-04  3.8106566509497805e-04  5.6029920928926083e-04  2.0701315088959527e-06  2.6503960361891143e-04  1.0397321417314291e-03  8.7047723505274423e-04  5.5047362748903025e-04  3.5948311887053089e-04  2.6157415327299948e-04  1.9633640450801549e-04  1.3168327662021106e-04  6.8232173132799594e-05  2.5802086714483069e-05  4.2121021681425625e-06  6.8047645479830214e-06  1.2885191022111812e-05  1.4437348893855364e-05  1.2566370817581353e-05  8.4687161210257831e-06  -4.7010818132885256e-22  -1.1030707621158344e-19  1.6105627015695335e-02  3.2662942096653214e-03  4.8411716054503383e-03  2.2999502621864516e-02  1.3622701579264457e-02  1.7991971412113326e-03  1.2858744183065407e-02  2.4073784074057924e-02  1.8279573248933315e-02  1.0402974435805219e-02  1.0638102405260193e-02  6.5666580351328831e-03  7.8702184926123971e-03  4.6058997183025176e-02  1.3710135108930226e-02  6.8761300861539379e-02  1.1727061606349332e-02  1.6668909120974951e-02  3.8022079830051937e-02  2.9678734714915830e-02  2.8715852982310493e-02  4.0187944608395504e-02  1.3970539341025330e-02  7.8995533733232960e-03  1.3419480822723115e-02  5.5186239836141999e-03  1.1393728855869412e-02  4.5026930460477281e-02  6.6015189744883199e-02  5.9614832162899915e-02  1.7557877176038083e-02  5.4455313531555444e-02  4.7621748049818877e-02  5.0116580642382738e-02  8.6932504899595156e-02  9.3562803396793764e-03  2.2052624473024206e-02  1.6090562757921464e-02  5.5250263129712610e-02  7.9396069825628690e-02  8.1134250780776615e-02  7.7233726880879913e-02  2.5416832397497254e-02  1.8244438288581511e-02  1.2732459292780338e-02  3.2702545033378896e-02  3.2169407223282077e-02  2.1877461564047358e-02  5.1979428545730053e-02  1.2001673649755977e-02  1.7838361416505437e-03  1.9675911623762339e-03  7.4276859733323720e-03  1.5395361307055140e-02  3.6544250743492243e-04  1.6977946475393139e-02  5.9994501172637620e-03  6.9359208043564416e-03  2.0249563160465150e-03  1.1408876448962761e-03  2.8917698308621089e-04  1.8787155074120689e-04  4.8125427101410212e-05  2.6131516821556313e-05  1.5902214582079810e-04  1.8287172139963226e-04  1.1536649507097546e-04  2.0197557026056185e-04  5.5644310798729944e-04  2.6759921550348756e-05  9.0952539382008858e-05  1.2861296385400897e-03  4.3933437531836385e-05  8.5299561813727211e-04  3.7287991267263165e-04  1.0450090827896811e-03  2.7281910791109669e-03  1.4883507518393313e-03  1.4974865988123566e-03  1.5537629337885400e-03  5.9399209747622046e-04  3.8333780977365322e-04  3.2822285801894938e-04  1.2406182314365653e-04  7.4420575678373904e-04  1.1403153766212845e-03  7.4677372471734186e-04  4.2323512990445720e-04  2.7836044339784585e-04  2.1645580151538968e-04  1.6544597043276503e-04  1.0202226427662231e-04  4.6092700809141823e-05  1.4400454723619511e-05  7.7513484230934657e-07  8.9624458430310492e-06  1.2665622134561876e-05  1.1525762215736148e-05  7.0113211581275098e-06  -3.8920650913973312e-22  -3.2222797333258966e-19  1.9871156292912738e-03  9.9788242437410697e-03  5.3386872471307351e-03  1.8132918386605718e-02  1.8670482128357209e-02  3.0561304967412075e-02  1.7215759863406955e-03  1.9807522970479680e-02  1.4588556612959316e-02  1.9695747771839141e-02  1.7287587872667997e-02  4.3554552816312549e-02  4.1540388768160630e-02  5.2241861168977393e-03  4.9653853234795150e-03  1.3456898886210619e-02  1.7264595005137436e-02  6.1484039734210821e-02  1.7262950906006842e-02  1.8792248891563938e-02  2.7231315506825991e-03  3.1770155120707508e-02  3.2447113560073036e-02  6.1522910114226607e-02  7.6884774391108815e-02  5.9608287727958210e-02  3.2055891334588152e-02  2.4417158583115845e-02  2.5347236332962108e-02  3.0264397066635861e-04  5.4139476475416080e-02  5.6842671218770451e-02  4.8011899721590784e-02  1.1632577528259427e-01  4.5425786171912022e-02  4.1290970674148816e-02  3.3724507161522428e-02  1.3281928380233878e-02  5.0319215918025406e-02  7.9436637914114719e-02  8.6914682603235691e-02  6.8916944367737445e-02  6.6272131269062839e-02  1.4586010166215699e-02  4.4609143866198873e-02  2.4341944752369150e-02  3.8187446974698230e-03  6.5418247399824478e-02  5.9517867603647440e-02  1.1243870219355898e-02  2.1659826741334737e-02  2.1375504409858689e-02  2.3006849207090393e-02  1.4638365954486825e-02  6.6164950468348442e-03  6.2586168109439880e-03  2.0022366300108778e-02  5.1267012797625707e-03  3.1460216358844199e-03  2.1714358361714552e-03  5.5552575799776803e-04  2.8792706457986153e-04  1.1436175327319042e-04  5.4499009962941804e-06  6.3289638247911902e-05  2.5715896776098919e-04  1.0577788243089619e-04  1.7177458427130142e-04  3.6675161487114219e-04  4.8000327626415273e-04  2.2802730065760472e-04  7.9146753624642087e-04  1.0221217866444804e-03  8.5444425094308282e-04  2.2817292238884736e-04  9.7565670793032145e-06  2.1062977678159476e-03  2.7782515015609991e-03  8.8795995027598422e-05  2.0713561371937970e-03  1.2420309675202990e-03  3.5342491289455939e-04  4.1020991359380041e-04  3.4335322455747937e-05  1.5814067041430944e-04  1.1095063960206268e-03  1.0681325374294480e-03  5.9173651061372311e-04  3.1958014931424193e-04  2.2401850091030961e-04  1.8332208200259011e-04  1.3478982841166320e-04  7.4121273302987328e-05  3.0001820074030110e-05  7.3288304855245577e-06  3.9982395970478291e-06  1.0100121592037908e-05  1.1170236450293234e-05  7.6615706843539603e-06  -7.2491206645457841e-22  -1.6789566338515544e-19  6.1057639830402050e-03  6.0694942082263476e-03  6.5454745479847252e-03  8.6889416967876817e-03  1.0949402831498374e-02  2.5748933041615702e-02  4.1182530176819337e-03  5.9841969242094926e-03  1.9316255230491734e-02  1.7059822635025656e-02  5.7609889267051951e-03  3.4774802532870309e-03  9.2147779077675455e-03  8.9423614589922568e-03  3.7510358689537185e-02  8.8214215486528344e-03  5.8