<?xml version="1.0"?>
<VTKFile type="UnstructuredGrid"  version="0.1"  >
<UnstructuredGrid>
<Piece  NumberOfPoints="10201" NumberOfCells="20000">
<Points>
<DataArray  type="Float64"  NumberOfComponents="3"  format="ascii">0 0 0  0.01 0 0  0.02 0 0  0.03 0 0  0.04 0 0  0.05 0 0  0.06 0 0  0.07000000000000001 0 0  0.08 0 0  0.09 0 0  0.1 0 0  0.11 0 0  0.12 0 0  0.13 0 0  0.14 0 0  0.15 0 0  0.16 0 0  0.17 0 0  0.18 0 0  0.19 0 0  0.2 0 0  0.21 0 0  0.22 0 0  0.23 0 0  0.24 0 0  0.25 0 0  0.26 0 0  0.27 0 0  0.28 0 0  0.29 0 0  0.3 0 0  0.31 0 0  0.32 0 0  0.33 0 0  0.34 0 0  0.35 0 0  0.36 0 0  0.37 0 0  0.38 0 0  0.39 0 0  0.4 0 0  0.41 0 0  0.42 0 0  0.43 0 0  0.44 0 0  0.45 0 0  0.46 0 0  0.47 0 0  0.48 0 0  0.49 0 0  0.5 0 0  0.51 0 0  0.52 0 0  0.53 0 0  0.54 0 0  0.55 0 0  0.5600000000000001 0 0  0.57 0 0  0.58 0 0  0.59 0 0  0.6 0 0  0.61 0 0  0.62 0 0  0.63 0 0  0.64 0 0  0.65 0 0  0.66 0 0  0.67 0 0  0.68 0 0  0.6899999999999999 0 0  0.7 0 0  0.71 0 0  0.72 0 0  0.73 0 0  0.74 0 0  0.75 0 0  0.76 0 0  0.77 0 0  0.78 0 0  0.79 0 0  0.8 0 0  0.8100000000000001 0 0  0.82 0 0  0.83 0 0  0.84 0 0  0.85 0 0  0.86 0 0  0.87 0 0  0.88 0 0  0.89 0 0  0.9 0 0  0.91 0 0  0.92 0 0  0.93 0 0  0.9399999999999999 0 0  0.95 0 0  0.96 0 0  0.97 0 0  0.98 0 0  0.99 0 0  1 0 0  0 0.01 0  0.01 0.01 0  0.02 0.01 0  0.03 0.01 0  0.04 0.01 0  0.05 0.01 0  0.06 0.01 0  0.07000000000000001 0.01 0  0.08 0.01 0  0.09 0.01 0  0.1 0.01 0  0.11 0.01 0  0.12 0.01 0  0.13 0.01 0  0.14 0.01 0  0.15 0.01 0  0.16 0.01 0  0.17 0.01 0  0.18 0.01 0  0.19 0.01 0  0.2 0.01 0  0.21 0.01 0  0.22 0.01 0  0.23 0.01 0  0.24 0.01 0  0.25 0.01 0  0.26 0.01 0  0.27 0.01 0  0.28 0.01 0  0.29 0.01 0  0.3 0.01 0  0.31 0.01 0  0.32 0.01 0  0.33 0.01 0  0.34 0.01 0  0.35 0.01 0  0.36 0.01 0  0.37 0.01 0  0.38 0.01 0  0.39 0.01 0  0.4 0.01 0  0.41 0.01 0  0.42 0.01 0  0.43 0.01 0  0.44 0.01 0  0.45 0.01 0  0.46 0.01 0  0.47 0.01 0  0.48 0.01 0  0.49 0.01 0  0.5 0.01 0  0.51 0.01 0  0.52 0.01 0  0.53 0.01 0  0.54 0.01 0  0.55 0.01 0  0.5600000000000001 0.01 0  0.57 0.01 0  0.58 0.01 0  0.59 0.01 0  0.6 0.01 0  0.61 0.01 0  0.62 0.01 0  0.63 0.01 0  0.64 0.01 0  0.65 0.01 0  0.66 0.01 0  0.67 0.01 0  0.68 0.01 0  0.6899999999999999 0.01 0  0.7 0.01 0  0.71 0.01 0  0.72 0.01 0  0.73 0.01 0  0.74 0.01 0  0.75 0.01 0  0.76 0.01 0  0.77 0.01 0  0.78 0.01 0  0.79 0.01 0  0.8 0.01 0  0.8100000000000001 0.01 0  0.82 0.01 0  0.83 0.01 0  0.84 0.01 0  0.85 0.01 0  0.86 0.01 0  0.87 0.01 0  0.88 0.01 0  0.89 0.01 0  0.9 0.01 0  0.91 0.01 0  0.92 0.01 0  0.93 0.01 0  0.9399999999999999 0.01 0  0.95 0.01 0  0.96 0.01 0  0.97 0.01 0  0.98 0.01 0  0.99 0.01 0  1 0.01 0  0 0.02 0  0.01 0.02 0  0.02 0.02 0  0.03 0.02 0  0.04 0.02 0  0.05 0.02 0  0.06 0.02 0  0.07000000000000001 0.02 0  0.08 0.02 0  0.09 0.02 0  0.1 0.02 0  0.11 0.02 0  0.12 0.02 0  0.13 0.02 0  0.14 0.02 0  0.15 0.02 0  0.16 0.02 0  0.17 0.02 0  0.18 0.02 0  0.19 0.02 0  0.2 0.02 0  0.21 0.02 0  0.22 0.02 0  0.23 0.02 0  0.24 0.02 0  0.25 0.02 0  0.26 0.02 0  0.27 0.02 0  0.28 0.02 0  0.29 0.02 0  0.3 0.02 0  0.31 0.02 0  0.32 0.02 0  0.33 0.02 0  0.34 0.02 0  0.35 0.02 0  0.36 0.02 0  0.37 0.02 0  0.38 0.02 0  0.39 0.02 0  0.4 0.02 0  0.41 0.02 0  0.42 0.02 0  0.43 0.02 0  0.44 0.02 0  0.45 0.02 0  0.46 0.02 0  0.47 0.02 0  0.48 0.02 0  0.49 0.02 0  0.5 0.02 0  0.51 0.02 0  0.52 0.02 0  0.53 0.02 0  0.54 0.02 0  0.55 0.02 0  0.5600000000000001 0.02 0  0.57 0.02 0  0.58 0.02 0  0.59 0.02 0  0.6 0.02 0  0.61 0.02 0  0.62 0.02 0  0.63 0.02 0  0.64 0.02 0  0.65 0.02 0  0.66 0.02 0  0.67 0.02 0  0.68 0.02 0  0.6899999999999999 0.02 0  0.7 0.02 0  0.71 0.02 0  0.72 0.02 0  0.73 0.02 0  0.74 0.02 0  0.75 0.02 0  0.76 0.02 0  0.77 0.02 0  0.78 0.02 0  0.79 0.02 0  0.8 0.02 0  0.8100000000000001 0.02 0  0.82 0.02 0  0.83 0.02 0  0.84 0.02 0  0.85 0.02 0  0.86 0.02 0  0.87 0.02 0  0.88 0.02 0  0.89 0.02 0  0.9 0.02 0  0.91 0.02 0  0.92 0.02 0  0.93 0.02 0  0.9399999999999999 0.02 0  0.95 0.02 0  0.96 0.02 0  0.97 0.02 0  0.98 0.02 0  0.99 0.02 0  1 0.02 0  0 0.03 0  0.01 0.03 0  0.02 0.03 0  0.03 0.03 0  0.04 0.03 0  0.05 0.03 0  0.06 0.03 0  0.07000000000000001 0.03 0  0.08 0.03 0  0.09 0.03 0  0.1 0.03 0  0.11 0.03 0  0.12 0.03 0  0.13 0.03 0  0.14 0.03 0  0.15 0.03 0  0.16 0.03 0  0.17 0.03 0  0.18 0.03 0  0.19 0.03 0  0.2 0.03 0  0.21 0.03 0  0.22 0.03 0  0.23 0.03 0  0.24 0.03 0  0.25 0.03 0  0.26 0.03 0  0.27 0.03 0  0.28 0.03 0  0.29 0.03 0  0.3 0.03 0  0.31 0.03 0  0.32 0.03 0  0.33 0.03 0  0.34 0.03 0  0.35 0.03 0  0.36 0.03 0  0.37 0.03 0  0.38 0.03 0  0.39 0.03 0  0.4 0.03 0  0.41 0.03 0  0.42 0.03 0  0.43 0.03 0  0.44 0.03 0  0.45 0.03 0  0.46 0.03 0  0.47 0.03 0  0.48 0.03 0  0.49 0.03 0  0.5 0.03 0  0.51 0.03 0  0.52 0.03 0  0.53 0.03 0  0.54 0.03 0  0.55 0.03 0  0.5600000000000001 0.03 0  0.57 0.03 0  0.58 0.03 0  0.59 0.03 0  0.6 0.03 0  0.61 0.03 0  0.62 0.03 0  0.63 0.03 0  0.64 0.03 0  0.65 0.03 0  0.66 0.03 0  0.67 0.03 0  0.68 0.03 0  0.6899999999999999 0.03 0  0.7 0.03 0  0.71 0.03 0  0.72 0.03 0  0.73 0.03 0  0.74 0.03 0  0.75 0.03 0  0.76 0.03 0  0.77 0.03 0  0.78 0.03 0  0.79 0.03 0  0.8 0.03 0  0.8100000000000001 0.03 0  0.82 0.03 0  0.83 0.03 0  0.84 0.03 0  0.85 0.03 0  0.86 0.03 0  0.87 0.03 0  0.88 0.03 0  0.89 0.03 0  0.9 0.03 0  0.91 0.03 0  0.92 0.03 0  0.93 0.03 0  0.9399999999999999 0.03 0  0.95 0.03 0  0.96 0.03 0  0.97 0.03 0  0.98 0.03 0  0.99 0.03 0  1 0.03 0  0 0.04 0  0.01 0.04 0  0.02 0.04 0  0.03 0.04 0  0.04 0.04 0  0.05 0.04 0  0.06 0.04 0  0.07000000000000001 0.04 0  0.08 0.04 0  0.09 0.04 0  0.1 0.04 0  0.11 0.04 0  0.12 0.04 0  0.13 0.04 0  0.14 0.04 0  0.15 0.04 0  0.16 0.04 0  0.17 0.04 0  0.18 0.04 0  0.19 0.04 0  0.2 0.04 0  0.21 0.04 0  0.22 0.04 0  0.23 0.04 0  0.24 0.04 0  0.25 0.04 0  0.26 0.04 0  0.27 0.04 0  0.28 0.04 0  0.29 0.04 0  0.3 0.04 0  0.31 0.04 0  0.32 0.04 0  0.33 0.04 0  0.34 0.04 0  0.35 0.04 0  0.36 0.04 0  0.37 0.04 0  0.38 0.04 0  0.39 0.04 0  0.4 0.04 0  0.41 0.04 0  0.42 0.04 0  0.43 0.04 0  0.44 0.04 0  0.45 0.04 0  0.46 0.04 0  0.47 0.04 0  0.48 0.04 0  0.49 0.04 0  0.5 0.04 0  0.51 0.04 0  0.52 0.04 0  0.53 0.04 0  0.54 0.04 0  0.55 0.04 0  0.5600000000000001 0.04 0  0.57 0.04 0  0.58 0.04 0  0.59 0.04 0  0.6 0.04 0  0.61 0.04 0  0.62 0.04 0  0.63 0.04 0  0.64 0.04 0  0.65 0.04 0  0.66 0.04 0  0.67 0.04 0  0.68 0.04 0  0.6899999999999999 0.04 0  0.7 0.04 0  0.71 0.04 0  0.72 0.04 0  0.73 0.04 0  0.74 0.04 0  0.75 0.04 0  0.76 0.04 0  0.77 0.04 0  0.78 0.04 0  0.79 0.04 0  0.8 0.04 0  0.8100000000000001 0.04 0  0.82 0.04 0  0.83 0.04 0  0.84 0.04 0  0.85 0.04 0  0.86 0.04 0  0.87 0.04 0  0.88 0.04 0  0.89 0.04 0  0.9 0.04 0  0.91 0.04 0  0.92 0.04 0  0.93 0.04 0  0.9399999999999999 0.04 0  0.95 0.04 0  0.96 0.04 0  0.97 0.04 0  0.98 0.04 0  0.99 0.04 0  1 0.04 0  0 0.05 0  0.01 0.05 0  0.02 0.05 0  0.03 0.05 0  0.04 0.05 0  0.05 0.05 0  0.06 0.05 0  0.07000000000000001 0.05 0  0.08 0.05 0  0.09 0.05 0  0.1 0.05 0  0.11 0.05 0  0.12 0.05 0  0.13 0.05 0  0.14 0.05 0  0.15 0.05 0  0.16 0.05 0  0.17 0.05 0  0.18 0.05 0  0.19 0.05 0  0.2 0.05 0  0.21 0.05 0  0.22 0.05 0  0.23 0.05 0  0.24 0.05 0  0.25 0.05 0  0.26 0.05 0  0.27 0.05 0  0.28 0.05 0  0.29 0.05 0  0.3 0.05 0  0.31 0.05 0  0.32 0.05 0  0.33 0.05 0  0.34 0.05 0  0.35 0.05 0  0.36 0.05 0  0.37 0.05 0  0.38 0.05 0  0.39 0.05 0  0.4 0.05 0  0.41 0.05 0  0.42 0.05 0  0.43 0.05 0  0.44 0.05 0  0.45 0.05 0  0.46 0.05 0  0.47 0.05 0  0.48 0.05 0  0.49 0.05 0  0.5 0.05 0  0.51 0.05 0  0.52 0.05 0  0.53 0.05 0  0.54 0.05 0  0.55 0.05 0  0.5600000000000001 0.05 0  0.57 0.05 0  0.58 0.05 0  0.59 0.05 0  0.6 0.05 0  0.61 0.05 0  0.62 0.05 0  0.63 0.05 0  0.64 0.05 0  0.65 0.05 0  0.66 0.05 0  0.67 0.05 0  0.68 0.05 0  0.6899999999999999 0.05 0  0.7 0.05 0  0.71 0.05 0  0.72 0.05 0  0.73 0.05 0  0.74 0.05 0  0.75 0.05 0  0.76 0.05 0  0.77 0.05 0  0.78 0.05 0  0.79 0.05 0  0.8 0.05 0  0.8100000000000001 0.05 0  0.82 0.05 0  0.83 0.05 0  0.84 0.05 0  0.85 0.05 0  0.86 0.05 0  0.87 0.05 0  0.88 0.05 0  0.89 0.05 0  0.9 0.05 0  0.91 0.05 0  0.92 0.05 0  0.93 0.05 0  0.9399999999999999 0.05 0  0.95 0.05 0  0.96 0.05 0  0.97 0.05 0  0.98 0.05 0  0.99 0.05 0  1 0.05 0  0 0.06 0  0.01 0.06 0  0.02 0.06 0  0.03 0.06 0  0.04 0.06 0  0.05 0.06 0  0.06 0.06 0  0.07000000000000001 0.06 0  0.08 0.06 0  0.09 0.06 0  0.1 0.06 0  0.11 0.06 0  0.12 0.06 0  0.13 0.06 0  0.14 0.06 0  0.15 0.06 0  0.16 0.06 0  0.17 0.06 0  0.18 0.06 0  0.19 0.06 0  0.2 0.06 0  0.21 0.06 0  0.22 0.06 0  0.23 0.06 0  0.24 0.06 0  0.25 0.06 0  0.26 0.06 0  0.27 0.06 0  0.28 0.06 0  0.29 0.06 0  0.3 0.06 0  0.31 0.06 0  0.32 0.06 0  0.33 0.06 0  0.34 0.06 0  0.35 0.06 0  0.36 0.06 0  0.37 0.06 0  0.38 0.06 0  0.39 0.06 0  0.4 0.06 0  0.41 0.06 0  0.42 0.06 0  0.43 0.06 0  0.44 0.06 0  0.45 0.06 0  0.46 0.06 0  0.47 0.06 0  0.48 0.06 0  0.49 0.06 0  0.5 0.06 0  0.51 0.06 0  0.52 0.06 0  0.53 0.06 0  0.54 0.06 0  0.55 0.06 0  0.5600000000000001 0.06 0  0.57 0.06 0  0.58 0.06 0  0.59 0.06 0  0.6 0.06 0  0.61 0.06 0  0.62 0.06 0  0.63 0.06 0  0.64 0.06 0  0.65 0.06 0  0.66 0.06 0  0.67 0.06 0  0.68 0.06 0  0.6899999999999999 0.06 0  0.7 0.06 0  0.71 0.06 0  0.72 0.06 0  0.73 0.06 0  0.74 0.06 0  0.75 0.06 0  0.76 0.06 0  0.77 0.06 0  0.78 0.06 0  0.79 0.06 0  0.8 0.06 0  0.8100000000000001 0.06 0  0.82 0.06 0  0.83 0.06 0  0.84 0.06 0  0.85 0.06 0  0.86 0.06 0  0.87 0.06 0  0.88 0.06 0  0.89 0.06 0  0.9 0.06 0  0.91 0.06 0  0.92 0.06 0  0.93 0.06 0  0.9399999999999999 0.06 0  0.95 0.06 0  0.96 0.06 0  0.97 0.06 0  0.98 0.06 0  0.99 0.06 0  1 0.06 0  0 0.07000000000000001 0  0.01 0.07000000000000001 0  0.02 0.07000000000000001 0  0.03 0.07000000000000001 0  0.04 0.07000000000000001 0  0.05 0.07000000000000001 0  0.06 0.07000000000000001 0  0.07000000000000001 0.07000000000000001 0  0.08 0.07000000000000001 0  0.09 0.07000000000000001 0  0.1 0.07000000000000001 0  0.11 0.07000000000000001 0  0.12 0.07000000000000001 0  0.13 0.07000000000000001 0  0.14 0.07000000000000001 0  0.15 0.07000000000000001 0  0.16 0.07000000000000001 0  0.17 0.0700
[...]
<PointData  Scalars="Indicator Function"> 
<DataArray  type="Float64"  Name="Indicator Function"  format="ascii">-1.1841676039133109e-18  3.0001321841575313e-17  1.0974695879531652e-16  3.0114997805676400e-18  1.0339608820905915e-16  -1.2176000902656020e-18  -1.6154078738192134e-18  1.0754230611283635e-16  8.5101020755584776e-16  -1.1184165562302540e-18  4.0658769221193560e-16  5.7836142338719462e-16  -5.3104431745106798e-19  -5.4092921036008656e-18  4.5864954464750761e-16  -3.5430592447057144e-18  -1.0478177559359620e-17  8.6962686270461274e-16  -3.7461922215449387e-18  -4.4377000940516570e-18  2.4274954140468589e-15  -4.7796671859232171e-18  -4.5540774052352639e-18  1.5866806392318878e-15  -3.5867680358589327e-19  -3.6303503600284821e-18  -1.9346831151816779e-18  -8.2143879553478428e-19  8.1476647215079570e-16  -2.7214853037124732e-18  -3.4061279092234400e-18  -2.6267996236560369e-18  -2.7785816181701061e-18  -5.9230178713402566e-18  1.5100465615900690e-17  -2.5370443695893430e-18  -6.8144192090822725e-18  -1.1981949085430436e-17  -1.2421029800756675e-17  -1.6386670314009043e-17  1.3944606703798388e-15  -1.8571450636476208e-18  -4.7059311047322322e-18  -3.9365806818501239e-18  -2.2125716468899813e-18  -1.8560530101638495e-18  2.6732563585150351e-16  -2.1776335076511235e-18  2.8888949165808538e-34  -1.4215125130990925e-18  -7.8724604178542242e-19  4.8148248609680896e-35  -5.6626724869994666e-19  -1.6164954281043281e-18  -2.4074124304840448e-34  -1.0238302954510432e-18  3.0986520726958785e-16  -5.1661597719095330e-19  -5.2375047218697126e-19  -6.3618085994539469e-19  -1.9259299443872359e-34  -8.0885984796887713e-19  -4.0370264804452980e-19  -4.8148248609680896e-35  -6.2054550050496581e-21  -3.6704572735655387e-19  -1.4736649967662066e-19  -1.7149697128561764e-20  5.7965759937504832e-17  -5.2373860407496738e-19  -3.6111186457260672e-35  -1.5836071173265116e-20  -6.7517013324912135e-20  -7.9920942499561506e-19  -1.6401466391391496e-18  -6.8257370494538368e-19  -2.0292703726717516e-19  -6.0378357382583794e-19  -4.3853723359811030e-19  -1.5292968648714720e-19  -1.5609411359458476e-19  2.2786831801360993e-16  -1.6230955554096390e-19  -8.0403261521855818e-19  -5.6609078785571489e-19  -2.5713496310776567e-19  9.6296497219361793e-35  -1.3337030769195321e-19  -2.3374749867621771e-19  -1.8243609853353807e-20  -3.8932906232095011e-20  1.9560225997682864e-35  -7.4535710811490462e-20  6.5492933750048707e-17  -3.4475550367233926e-20  -1.4876044912788798e-20  -5.7725491049633668e-21  -1.3415487492326528e-20  -1.0643428721934867e-20  1.5046327690525280e-36  6.0185310762101120e-36  7.7037197775489434e-34  2.1332067118912841e-02  1.0217066745806774e-01  3.0555382704472438e-02  3.4995271751266877e-02  3.4820820076524268e-02  2.1934333251225787e-02  2.9100601194334275e-02  1.0276027250490785e-01  1.0515900699477521e-01  2.0147601543534118e-02  1.5391079726646281e-01  1.9132887921518738e-02  1.1727283098464411e-01  3.8808728116137933e-02  1.8550829179513775e-01  1.5565318012356300e-01  1.2417713849985766e-01  1.3497079914406426e-01  1.5988499591962271e-01  3.0351765262790251e-02  1.7220565885983027e-01  8.3620274588560944e-02  4.0228827926654998e-02  1.2922693751806923e-02  1.3079715622918889e-01  6.9704305252897530e-02  2.9595451627824284e-02  1.3026251137631810e-02  2.0708218335860749e-02  3.8671811630844696e-02  9.4640430450194282e-02  5.1368263978321879e-02  2.4370344571676656e-02  9.4514432027268933e-02  9.1406656620039842e-02  6.0679325605697909e-03  1.1972369696279218e-01  2.7109334787201478e-01  2.7210937726163048e-01  1.8202895006517777e-01  7.8640262261268259e-02  3.3455351266465524e-02  1.0347628461604293e-01  7.3589167795007848e-02  6.6871357159632730e-02  4.9391902933635351e-02  1.9413242958168125e-02  3.9228757814428424e-02  1.0194050124292734e-02  2.0510667835035908e-02  1.4181763921734914e-02  2.0401927761897563e-02  3.1997558303957944e-02  1.3121413678648075e-02  2.6834660573857781e-02  2.8425911952383309e-02  1.8613052178966562e-02  1.8870099451010921e-02  1.8846072483585677e-02  2.0373792933684430e-03  6.2063988276688685e-03  1.1467924225795930e-02  1.5384982683093388e-03  2.2357507878724908e-04  2.6053405991188958e-03  5.3094377042441866e-03  6.1788295678153805e-04  1.8579222779100705e-03  7.1556704447593147e-03  5.8570007062266095e-03  2.5931230623976119e-03  2.4325567684099461e-03  5.6111868852406254e-03  1.8893988593263959e-02  2.0916446594198734e-02  7.5020327210996683e-03  3.6556085176793962e-03  9.0489936535381819e-03  6.8666924302049764e-03  5.5860464227571868e-03  1.8918355898609324e-05  1.3430417211870835e-03  7.1637039678059886e-03  1.0902311961265097e-02  8.6009090045273302e-03  5.2195953553022161e-03  2.2899004654585824e-03  3.7493406656054148e-03  2.3361502589452892e-03  2.4405118946507507e-04  5.7932729326471647e-04  7.6616982052720838e-04  1.3978009930715137e-03  8.5311405341504428e-04  7.1309294576890820e-04  2.6590578775265356e-04  1.0398899999236351e-04  2.7207014063643773e-04  1.6104883738087970e-04  1.4553577914078138e-22  -5.0063480762978935e-19  1.5436698822423571e-02  2.8391181497377578e-02  4.4665486451384968e-02  3.2439842984497959e-02  8.3345282978031066e-02  2.6356731661537725e-02  1.0093157661909136e-01  1.7926717940265485e-02  9.0957614442800191e-02  1.5779719578040757e-01  5.9896271212799827e-02  6.0668490187077186e-03  2.1562000172442022e-01  1.9496764669271316e-01  2.8665869092065088e-01  8.5351049825364650e-02  2.1519631238044226e-01  2.0588283468661751e-02  9.8066663258288445e-02  4.7353996107511218e-02  2.2046234348806523e-01  4.8529123911038106e-02  7.6635567483979719e-02  5.9070540470270758e-02  1.6497965216799471e-02  1.4822914199721681e-02  4.3980568261064862e-02  3.9912561759840029e-03  2.0453975025256390e-02  1.5811849897413666e-01  8.1345804601949345e-02  1.1343127228165577e-01  7.8887756079361410e-02  1.5267032735176642e-01  5.9794090430077274e-02  6.4897369030253352e-02  1.2088622947652312e-01  2.1845153214420129e-01  2.7760736826244792e-01  3.4422885381732371e-01  1.4030715186976253e-01  5.3442196323558316e-02  6.1829714630046224e-02  8.4119261081588903e-02  1.9883183350530360e-02  1.1328729045308654e-02  8.6736662225763688e-03  5.2281529901066805e-02  5.2704819248290367e-03  4.9764448621204577e-02  2.9094719022678090e-02  4.2503184669817409e-03  2.1746142696902834e-02  6.0485647886328590e-02  6.7069685994082303e-03  2.9992639017525752e-03  6.6254338039171325e-03  5.5354665776966997e-03  1.0919470278074429e-02  2.7727135619765447e-02  9.5821394403210643e-03  1.9436809967393272e-02  5.1073754481555534e-03  1.4839701571999456e-03  1.2898479904662570e-03  7.6571396971958474e-03  1.8740122547817200e-03  1.3196685241169885e-03  7.2387929025021711e-03  8.6023128896123308e-03  3.1581465383097680e-03  3.3635108151476023e-03  4.7494211528743065e-04  1.6036614121157505e-02  2.7033789925560853e-02  1.4904338442997503e-02  3.0704226160978157e-04  8.6420228382168215e-03  9.1041754647338304e-03  6.6203092711313713e-03  4.3459222249245316e-03  3.8981899020197491e-03  4.3677360997074746e-03  1.2348955989613254e-02  1.0874168703268886e-02  7.7858713681343795e-03  3.0589617582255971e-03  3.8392208376561722e-03  3.9432653277169894e-03  4.8101189712342372e-04  9.8682575080516976e-04  3.6371330266612767e-04  1.8729333736501460e-03  1.0435738635725322e-03  1.1394519674089263e-03  4.8280620177972266e-04  7.0639844730703734e-05  3.0697661330275562e-04  3.5225958856482080e-04  8.7994508820671164e-20  3.4666738998970245e-33  7.6752165156254853e-02  6.1250740436194398e-02  1.8644336688072266e-01  5.8246959810479192e-02  2.5863851908710482e-03  7.8338941605620521e-02  1.1204807166879187e-01  7.6695533546098010e-02  1.6066593376246779e-01  3.0988130962821453e-01  1.8979044509046381e-01  2.2557994841683315e-01  1.7160497395664834e-01  1.1649051816930528e-01  9.0669289435224565e-02  3.4713429731617113e-01  1.6049264027032417e-01  1.7305967353942234e-01  1.2786061643985083e-01  3.2952768464237597e-01  2.4751385028823511e-01  3.6926131630985465e-01  2.5722244619397511e-01  4.5216456648394573e-03  3.3243203060077359e-02  2.0736295680501032e-01  2.4690483156165691e-01  1.2809931235551261e-01  3.5154481755878611e-02  1.8308375508279261e-02  9.7026751932040925e-02  1.5863942253287816e-01  1.3447499348344441e-01  4.9246730319661279e-02  1.5810414734094655e-01  1.1242937521800991e-01  2.4596110538069947e-02  1.7424426808645757e-01  3.6189958948941586e-01  2.5919741602752355e-01  1.9230912362907621e-01  1.0570477446287090e-01  6.8816103800692793e-02  1.3822508903521935e-01  6.1129377432972462e-02  1.4226607701269797e-01  1.5775738558832073e-01  9.2165778694488124e-02  9.0468528495704553e-02  1.9649234979555067e-02  4.8169971206403692e-02  4.2943668498327640e-02  1.5090788994406175e-02  5.3096547364689238e-02  2.9606539388908793e-03  4.0371722989143766e-02  6.1311274433468517e-02  5.4724848289334112e-02  4.7456584141653685e-02  3.9572160923239445e-02  4.8996830608431102e-03  5.6869189666392973e-03  1.8843400692340081e-02  4.3012074361789754e-03  1.2347550100980666e-03  2.3764696489064745e-03  8.3716218017317202e-03  3.7807884795722840e-03  3.2997505809116440e-03  1.0693945478618155e-02  5.6299489986936018e-03  1.5469270814307075e-03  4.4058491881982199e-03  8.2653497394801854e-03  2.5593244197023145e-02  2.4102051500207892e-02  3.3998010853151998e-03  5.0070806106314288e-03  1.0136765842450561e-02  6.0998406963495913e-03  6.7686210340917735e-03  1.1756650436583640e-03  2.7087564967167455e-03  1.1769148712347967e-02  1.2603627329091441e-02  7.9879125839542233e-03  5.6197212450616570e-03  1.8124248493225877e-03  5.4706215846993100e-03  2.0841055154949433e-03  1.3830060441982768e-03  4.9038581217938351e-04  7.9269513215039441e-04  2.3099463296271795e-03  7.1157589799427691e-04  1.0589633345083292e-03  3.1190490288418501e-04  9.2856200246205461e-05  2.6685116658920724e-04  -1.1134282490988707e-34  -1.2525464444037627e-19  7.2584982887964083e-02  6.4710310067937704e-02  8.5758073201147797e-02  4.2981810227180443e-02  5.9357804085940415e-02  9.9398056254377268e-02  8.0708649084078363e-02  1.1455890230185684e-01  1.1766191689104295e-02  2.7663113724840958e-02  1.0442709065222137e-01  1.2148970874403021e-01  1.4116633653536539e-01  2.4067060877971766e-01  4.2127030231037343e-01  1.9670661846233181e-01  1.4980796516098750e-02  2.4506233278267292e-01  2.3779154597908296e-02  2.1700455005404234e-01  2.3391993092805197e-01  1.4696396002753648e-01  2.2584000475955206e-02  1.5960850351932684e-01  1.0004079066944840e-01  6.4985408317106738e-02  1.3064450163043387e-01  2.9148524316835428e-02  6.7469089679575624e-03  1.0031794904010174e-02  1.8050471476047378e-01  1.5639538377610440e-01  1.6708081722898921e-01  2.3083790724153644e-01  1.1382682783527136e-01  1.5522174617661163e-02  8.9486125251098864e-02  1.3495603647029100e-01  2.0266741342340600e-01  3.2571069081830206e-01  3.6529374650707203e-01  6.6235413312998079e-02  7.2749491345070569e-02  2.4400988603173180e-02  1.0303960951840097e-01  2.5538846991949690e-02  7.8696344035737581e-02  5.7345786132922898e-02  2.8055345932491670e-02  2.0353728577634849e-03  5.0204104810426260e-02  3.4057217049722539e-02  4.9664354136344244e-03  3.5876659109305126e-02  9.7872911220834899e-02  2.3165953854870386e-02  9.8876303077784049e-03  2.6838131342977210e-02  3.2223354288481575e-02  3.5998875053640765e-02  5.0871642070857294e-02  2.6426804960312803e-02  2.7694442053540973e-02  4.4006811610707115e-03  5.7893900246130531e-03  3.8769009558602854e-03  9.5201291249832655e-03  1.9330782533959769e-03  4.0203550799521809e-03  9.7655519066330351e-03  1.0009737238126001e-02  1.3704614270537887e-03  3.5951182360130069e-03  1.4661818205120641e-03  1.8655632655362086e-02  3.0567966738977739e-02  1.2664415869899524e-02  3.7267575825431476e-03  8.8773805427909813e-03  8.3268831106752920e-03  5.1394238606946767e-03  5.0688787987368438e-03  6.6370709400049776e-03  5.0357482249522812e-03  1.5217213546971737e-02  9.8858070429827007e-03  6.3328770497696691e-03  2.3251354496911093e-03  3.8735540899789522e-03  4.7382840144018562e-03  4.2075913052337291e-04  1.7150728368980251e-03  5.0008523838174409e-05  2.2303429299065413e-03  1.3219619894533105e-03  1.2322046037946232e-03  6.5744431893248120e-04  2.2718182331260539e-04  1.2481602581668877e-04  1.1749486297678319e-20  -6.6898341613386936e-18  2.1404626157711870e-01  1.5656952283123918e-01  2.1619040258514570e-02  2.2218022089726930e-01  1.7987485364131706e-01  2.4414178005219743e-02  2.3499152332926869e-02  1.2950295193740152e-01  1.7236006588531133e-01  1.4204556175043279e-01  3.5998031085262316e-01  3.7161667503939966e-01  1.0356009238855633e-01  2.4180094981088857e-01  9.0930631852632893e-02  2.4529572824994506e-02  4.8321623411614983e-01  7.7322604292444183e-02  1.7062288983917487e-01  3.6640435362885228e-02  2.5712219423638266e-01  3.1167893386966278e-01  4.9006728325363969e-01  3.5482301491423002e-01  3.3591203322127748e-02  9.7940853586449564e-02  1.3226766481251551e-01  2.9592679212854034e-01  2.1192541826089734e-01  2.7564154007061626e-02  1.7546363439522532e-02  2.0380320862912016e-01  2.3263428087413521e-01  8.5498952973556197e-02  2.0322107530164203e-02  2.2617110942742938e-01  8.4142851603174820e-02  3.5699602451201587e-02  2.1748796422580080e-01  3.4711613180818068e-01  2.2274750853330885e-01  2.4384801196543091e-01  8.9387979159415432e-02  1.2939801843156534e-01  1.1976277448479612e-01  3.6356791226818334e-02  1.4986228572495011e-01  1.8227309988169510e-01  1.1965692061272547e-01  1.2010578993142666e-01  4.6968072689863916e-02  7.0682784843780808e-02  6.9616623712764544e-02  2.5774983193754711e-05  4.3601446062022299e-02  2.1880834451030656e-02  2.7197450382643779e-02  6.9081742789030148e-02  6.4039836193637178e-02  4.9789144856060383e-02  3.6969979424338405e-02  3.1346792200271693e-03  4.6284564775012993e-03  2.7376319149238881e-02  8.7824198589536179e-03  2.4189713687251121e-04  5.7134759898827482e-04  1.0953658332272707e-02  5.5051995762013433e-03  2.6224363387868967e-03  1.3352984795952639e-02  5.6748247644552588e-03  5.5547386211235168e-05  5.8921280903216581e-03  7.5784519802522448e-03  2.8431051655451085e-02  2.5838823124194280e-02  3.6507514829764735e-04  6.8127978453122765e-03  1.0116735730352258e-02  5.1012034101991068e-03  6.5621984943587484e-03  1.0511856854196256e-03  4.9905446529731135e-03  1.3996491313331893e-02  1.3787365177434443e-02  6.5937622592451336e-03  4.9659157936306287e-03  9.9116992876145823e-04  6.2260779655182149e-03  2.0551961419519897e-03  2.3621531621111588e-03  6.7444603445399292e-04  5.6917816609786749e-04  2.9516959561696823e-03  6.6304266782606992e-04  1.3881800127881333e-03  5.0845714778684995e-04  1.5565702654304821e-04  1.2037062152420224e-35  -1.4148179243209644e-18  1.8179722951197036e-01  7.8196266092439320e-02  6.3131164234268414e-02  1.9113106600989929e-01  7.3587010864770389e-02  5.4995009575696981e-02  5.4252571712028949e-02  1.5045139598460106e-01  4.8879397472692883e-02  2.6762014525385444e-02  1.5591355403578321e-02  5.3154782292045476e-02  4.3105277193546822e-02  2.3542820044035270e-01  6.0680102902535164e-02  4.2779023734183641e-01  3.3045673661284920e-02  8.4090618162893344e-02  2.5327902499557636e-01  8.8009732465894733e-02  1.6912842396463904e-01  3.8589037980945873e-01  2.1352200726241725e-02  8.5998238138707134e-02  2.9398343059312498e-01  1.3969232743792651e-01  4.9322562311578523e-04  1.9141671022002418e-01  1.8282615636282357e-01  5.4631459461407413e-02  2.1949006017305449e-02  1.2096783078748942e-01  1.3214942031660651e-01  1.7374457619304615e-01  3.1278245761735141e-01  2.6373363694597543e-02  3.5199851811924816e-02  1.0945940881864087e-01  1.2950112698718064e-01  2.3377524195984270e-01  3.7953654067146442e-01  3.1471958080464463e-01  3.8039236752822211e-02  4.7192540456466966e-02  3.4291618693244229e-02  1.2812254453650676e-01  4.5234521308163637e-03  1.3053772148123707e-01  1.4117481705519114e-01  2.7690956435237366e-02  3.1584316636005499e-02  2.3653599328639474e-02  1.3488258044352318e-02  1.7901029830776141e-02  2.7995198739672999e-02  1.0893695534036084e-01  3.2880016058922663e-02  1.5144548358204458e-02  4.6762567335474618e-02  5.7083448122451190e-02  5.5247257134984962e-02  6.4042741565218692e-02  3.2723824275146883e-02  2.7472450527896267e-02  8.0774323598346940e-03  1.0530228510064223e-02  4.9048635743770439e-03  9.3774701165718882e-03  3.4342001242213503e-03  6.0625098030475362e-03  1.0996242840735115e-02  1.1989634024330190e-02  5.3984175871655551e-04  2.9136614601712619e-03  3.1719876924624761e-03  1.9868806367888868e-02  3.3136530830137116e-02  1.2006898973033357e-02  7.9660088092568960e-03  9.2284621566766627e-03  7.9046108148064301e-03  4.0931707390219618e-03  5.6460346503193299e-03  7.3119123618555588e-03  4.5736370498789475e-03  1.8078631415900121e-02  9.7219056632511774e-03  4.9712073461584986e-03  2.1416837634669499e-03  3.6751475900208630e-03  5.6272082703644781e-03  9.2867964036917453e-04  2.5201311471567062e-03  1.9303367217861662e-04  2.2783258838123721e-03  1.9143565191052172e-03  1.2185692643955331e-03  9.8874939870640505e-04  4.3934339230066913e-04  3.3101920919155616e-35  4.2370458776519189e-33  7.9271354749666803e-02  7.5873295491608650e-02  3.6664034435226867e-02  1.6717267510866282e-01  1.1742438306135404e-01  2.2430973736576601e-01  7.2670620358230324e-03  5.8252942366679245e-02  6.9481277559725552e-02  1.8969048020988907e-01  1.0955833029636493e-01  2.7729214891442772e-01  3.1745032519021915e-01  2.3511899674392482e-02  1.0411631976263783e-01  1.4144882882664644e-01  1.6694706212504704e-01  4.2492990621625637e-01  1.5743838758245095e-02  1.3757513650726380e-01  3.5706660694385293e-02  1.1697509241627077e-01  1.5053898755652811e-01  4.3629951374946790e-01  3.0025546039895562e-01  2.7192873789164428e-02  1.1696338513915745e-01  6.4986438217355683e-02  1.8259658653603425e-01  1.7678326657708263e-01  4.2639598922700880e-03  4.9208406156807487e-02  2.2306475043590046e-01  3.0392056444582605e-01  1.8792094816000970e-02  1.1853673744383476e-01  2.1029271748376663e-01  4.7700057082110378e-02  4.5508170933163353e-02  2.3417114279847986e-01  3.1583604136214932e-01  2.6035486331965751e-01  2.6785176163276481e-01  2.9806398437861478e-02  1.5044029749683413e-01  8.6577214917600176e-02  3.9108657262943554e-02  1.3583099136862489e-01  1.2908904192958570e-01  5.9486037154145369e-02  9.3238485467120977e-02  3.6285778373806248e-02  6.3222118807420999e-02  6.8898699041305481e-02  1.4404397771119377e-03  3.5599353332597394e-02  4.7812242625040191e-02  2.2023511155108270e-03  5.7845616181874941e-02  4.7017898715641021e-02  2.8004532552584407e-02  1.7824991530175756e-02  1.8752159565667437e-02  1.6175382029915902e-02  3.2810404463618686e-02  9.8757438438291118e-03  2.8543009546444583e-03  7.1619125091025029e-04  1.2053401522117311e-02  5.1935502854263066e-03  1.3023162709843291e-03  1.5441472163296936e-02  6.6497864937701398e-03  1.1808966310876739e-03  6.1157823354430658e-03  6.3207383179460317e-03  3.0629000995684788e-02  2.7554108836860502e-02  2.7189659662475120e-03  1.0370719236082867e-02  1.0053223248217585e-02  4.7032333426876719e-03  5.7378225295619681e-03  3.2940701093650342e-04  6.0634416903309644e-03  1.5104251186969644e-02  1.6170264163440501e-02  5.8826268748452867e-03  3.9075325019707714e-03  8.9920957552010335e-04  6.6036037363684354e-03  2.6464971525107959e-03  2.8851026210535481e-03  1.0588606861517908e-03  3.4093821011453227e-04  3.1599579490664787e-03  9.9194462990972597e-04  1.5087187539459476e-03  7.3207285036747517e-04  -5.6868989346227283e-20  3.8518598887744717e-34  2.9152417895973816e-02  1.8645215176114324e-02  6.2410834776705088e-02  1.2474224851444934e-01  5.3057748819467815e-02  2.0501711906464315e-01  2.3699281698542966e-02  1.2748680882957572e-03  1.2236927407894538e-01  8.9501451626107301e-03  6.3543939771852020e-02  4.1688677149694826e-02  8.6177014740995581e-02  2.0802823763076242e-01  1.3166160890760140e-01  3.3900183475703990e-02  2.6271