<?xml version="1.0"?>
<VTKFile type="UnstructuredGrid"  version="0.1"  >
<UnstructuredGrid>
<Piece  NumberOfPoints="10201" NumberOfCells="20000">
<Points>
<DataArray  type="Float64"  NumberOfComponents="3"  format="ascii">0 0 0  0.01 0 0  0.02 0 0  0.03 0 0  0.04 0 0  0.05 0 0  0.06 0 0  0.07000000000000001 0 0  0.08 0 0  0.09 0 0  0.1 0 0  0.11 0 0  0.12 0 0  0.13 0 0  0.14 0 0  0.15 0 0  0.16 0 0  0.17 0 0  0.18 0 0  0.19 0 0  0.2 0 0  0.21 0 0  0.22 0 0  0.23 0 0  0.24 0 0  0.25 0 0  0.26 0 0  0.27 0 0  0.28 0 0  0.29 0 0  0.3 0 0  0.31 0 0  0.32 0 0  0.33 0 0  0.34 0 0  0.35 0 0  0.36 0 0  0.37 0 0  0.38 0 0  0.39 0 0  0.4 0 0  0.41 0 0  0.42 0 0  0.43 0 0  0.44 0 0  0.45 0 0  0.46 0 0  0.47 0 0  0.48 0 0  0.49 0 0  0.5 0 0  0.51 0 0  0.52 0 0  0.53 0 0  0.54 0 0  0.55 0 0  0.5600000000000001 0 0  0.57 0 0  0.58 0 0  0.59 0 0  0.6 0 0  0.61 0 0  0.62 0 0  0.63 0 0  0.64 0 0  0.65 0 0  0.66 0 0  0.67 0 0  0.68 0 0  0.6899999999999999 0 0  0.7 0 0  0.71 0 0  0.72 0 0  0.73 0 0  0.74 0 0  0.75 0 0  0.76 0 0  0.77 0 0  0.78 0 0  0.79 0 0  0.8 0 0  0.8100000000000001 0 0  0.82 0 0  0.83 0 0  0.84 0 0  0.85 0 0  0.86 0 0  0.87 0 0  0.88 0 0  0.89 0 0  0.9 0 0  0.91 0 0  0.92 0 0  0.93 0 0  0.9399999999999999 0 0  0.95 0 0  0.96 0 0  0.97 0 0  0.98 0 0  0.99 0 0  1 0 0  0 0.01 0  0.01 0.01 0  0.02 0.01 0  0.03 0.01 0  0.04 0.01 0  0.05 0.01 0  0.06 0.01 0  0.07000000000000001 0.01 0  0.08 0.01 0  0.09 0.01 0  0.1 0.01 0  0.11 0.01 0  0.12 0.01 0  0.13 0.01 0  0.14 0.01 0  0.15 0.01 0  0.16 0.01 0  0.17 0.01 0  0.18 0.01 0  0.19 0.01 0  0.2 0.01 0  0.21 0.01 0  0.22 0.01 0  0.23 0.01 0  0.24 0.01 0  0.25 0.01 0  0.26 0.01 0  0.27 0.01 0  0.28 0.01 0  0.29 0.01 0  0.3 0.01 0  0.31 0.01 0  0.32 0.01 0  0.33 0.01 0  0.34 0.01 0  0.35 0.01 0  0.36 0.01 0  0.37 0.01 0  0.38 0.01 0  0.39 0.01 0  0.4 0.01 0  0.41 0.01 0  0.42 0.01 0  0.43 0.01 0  0.44 0.01 0  0.45 0.01 0  0.46 0.01 0  0.47 0.01 0  0.48 0.01 0  0.49 0.01 0  0.5 0.01 0  0.51 0.01 0  0.52 0.01 0  0.53 0.01 0  0.54 0.01 0  0.55 0.01 0  0.5600000000000001 0.01 0  0.57 0.01 0  0.58 0.01 0  0.59 0.01 0  0.6 0.01 0  0.61 0.01 0  0.62 0.01 0  0.63 0.01 0  0.64 0.01 0  0.65 0.01 0  0.66 0.01 0  0.67 0.01 0  0.68 0.01 0  0.6899999999999999 0.01 0  0.7 0.01 0  0.71 0.01 0  0.72 0.01 0  0.73 0.01 0  0.74 0.01 0  0.75 0.01 0  0.76 0.01 0  0.77 0.01 0  0.78 0.01 0  0.79 0.01 0  0.8 0.01 0  0.8100000000000001 0.01 0  0.82 0.01 0  0.83 0.01 0  0.84 0.01 0  0.85 0.01 0  0.86 0.01 0  0.87 0.01 0  0.88 0.01 0  0.89 0.01 0  0.9 0.01 0  0.91 0.01 0  0.92 0.01 0  0.93 0.01 0  0.9399999999999999 0.01 0  0.95 0.01 0  0.96 0.01 0  0.97 0.01 0  0.98 0.01 0  0.99 0.01 0  1 0.01 0  0 0.02 0  0.01 0.02 0  0.02 0.02 0  0.03 0.02 0  0.04 0.02 0  0.05 0.02 0  0.06 0.02 0  0.07000000000000001 0.02 0  0.08 0.02 0  0.09 0.02 0  0.1 0.02 0  0.11 0.02 0  0.12 0.02 0  0.13 0.02 0  0.14 0.02 0  0.15 0.02 0  0.16 0.02 0  0.17 0.02 0  0.18 0.02 0  0.19 0.02 0  0.2 0.02 0  0.21 0.02 0  0.22 0.02 0  0.23 0.02 0  0.24 0.02 0  0.25 0.02 0  0.26 0.02 0  0.27 0.02 0  0.28 0.02 0  0.29 0.02 0  0.3 0.02 0  0.31 0.02 0  0.32 0.02 0  0.33 0.02 0  0.34 0.02 0  0.35 0.02 0  0.36 0.02 0  0.37 0.02 0  0.38 0.02 0  0.39 0.02 0  0.4 0.02 0  0.41 0.02 0  0.42 0.02 0  0.43 0.02 0  0.44 0.02 0  0.45 0.02 0  0.46 0.02 0  0.47 0.02 0  0.48 0.02 0  0.49 0.02 0  0.5 0.02 0  0.51 0.02 0  0.52 0.02 0  0.53 0.02 0  0.54 0.02 0  0.55 0.02 0  0.5600000000000001 0.02 0  0.57 0.02 0  0.58 0.02 0  0.59 0.02 0  0.6 0.02 0  0.61 0.02 0  0.62 0.02 0  0.63 0.02 0  0.64 0.02 0  0.65 0.02 0  0.66 0.02 0  0.67 0.02 0  0.68 0.02 0  0.6899999999999999 0.02 0  0.7 0.02 0  0.71 0.02 0  0.72 0.02 0  0.73 0.02 0  0.74 0.02 0  0.75 0.02 0  0.76 0.02 0  0.77 0.02 0  0.78 0.02 0  0.79 0.02 0  0.8 0.02 0  0.8100000000000001 0.02 0  0.82 0.02 0  0.83 0.02 0  0.84 0.02 0  0.85 0.02 0  0.86 0.02 0  0.87 0.02 0  0.88 0.02 0  0.89 0.02 0  0.9 0.02 0  0.91 0.02 0  0.92 0.02 0  0.93 0.02 0  0.9399999999999999 0.02 0  0.95 0.02 0  0.96 0.02 0  0.97 0.02 0  0.98 0.02 0  0.99 0.02 0  1 0.02 0  0 0.03 0  0.01 0.03 0  0.02 0.03 0  0.03 0.03 0  0.04 0.03 0  0.05 0.03 0  0.06 0.03 0  0.07000000000000001 0.03 0  0.08 0.03 0  0.09 0.03 0  0.1 0.03 0  0.11 0.03 0  0.12 0.03 0  0.13 0.03 0  0.14 0.03 0  0.15 0.03 0  0.16 0.03 0  0.17 0.03 0  0.18 0.03 0  0.19 0.03 0  0.2 0.03 0  0.21 0.03 0  0.22 0.03 0  0.23 0.03 0  0.24 0.03 0  0.25 0.03 0  0.26 0.03 0  0.27 0.03 0  0.28 0.03 0  0.29 0.03 0  0.3 0.03 0  0.31 0.03 0  0.32 0.03 0  0.33 0.03 0  0.34 0.03 0  0.35 0.03 0  0.36 0.03 0  0.37 0.03 0  0.38 0.03 0  0.39 0.03 0  0.4 0.03 0  0.41 0.03 0  0.42 0.03 0  0.43 0.03 0  0.44 0.03 0  0.45 0.03 0  0.46 0.03 0  0.47 0.03 0  0.48 0.03 0  0.49 0.03 0  0.5 0.03 0  0.51 0.03 0  0.52 0.03 0  0.53 0.03 0  0.54 0.03 0  0.55 0.03 0  0.5600000000000001 0.03 0  0.57 0.03 0  0.58 0.03 0  0.59 0.03 0  0.6 0.03 0  0.61 0.03 0  0.62 0.03 0  0.63 0.03 0  0.64 0.03 0  0.65 0.03 0  0.66 0.03 0  0.67 0.03 0  0.68 0.03 0  0.6899999999999999 0.03 0  0.7 0.03 0  0.71 0.03 0  0.72 0.03 0  0.73 0.03 0  0.74 0.03 0  0.75 0.03 0  0.76 0.03 0  0.77 0.03 0  0.78 0.03 0  0.79 0.03 0  0.8 0.03 0  0.8100000000000001 0.03 0  0.82 0.03 0  0.83 0.03 0  0.84 0.03 0  0.85 0.03 0  0.86 0.03 0  0.87 0.03 0  0.88 0.03 0  0.89 0.03 0  0.9 0.03 0  0.91 0.03 0  0.92 0.03 0  0.93 0.03 0  0.9399999999999999 0.03 0  0.95 0.03 0  0.96 0.03 0  0.97 0.03 0  0.98 0.03 0  0.99 0.03 0  1 0.03 0  0 0.04 0  0.01 0.04 0  0.02 0.04 0  0.03 0.04 0  0.04 0.04 0  0.05 0.04 0  0.06 0.04 0  0.07000000000000001 0.04 0  0.08 0.04 0  0.09 0.04 0  0.1 0.04 0  0.11 0.04 0  0.12 0.04 0  0.13 0.04 0  0.14 0.04 0  0.15 0.04 0  0.16 0.04 0  0.17 0.04 0  0.18 0.04 0  0.19 0.04 0  0.2 0.04 0  0.21 0.04 0  0.22 0.04 0  0.23 0.04 0  0.24 0.04 0  0.25 0.04 0  0.26 0.04 0  0.27 0.04 0  0.28 0.04 0  0.29 0.04 0  0.3 0.04 0  0.31 0.04 0  0.32 0.04 0  0.33 0.04 0  0.34 0.04 0  0.35 0.04 0  0.36 0.04 0  0.37 0.04 0  0.38 0.04 0  0.39 0.04 0  0.4 0.04 0  0.41 0.04 0  0.42 0.04 0  0.43 0.04 0  0.44 0.04 0  0.45 0.04 0  0.46 0.04 0  0.47 0.04 0  0.48 0.04 0  0.49 0.04 0  0.5 0.04 0  0.51 0.04 0  0.52 0.04 0  0.53 0.04 0  0.54 0.04 0  0.55 0.04 0  0.5600000000000001 0.04 0  0.57 0.04 0  0.58 0.04 0  0.59 0.04 0  0.6 0.04 0  0.61 0.04 0  0.62 0.04 0  0.63 0.04 0  0.64 0.04 0  0.65 0.04 0  0.66 0.04 0  0.67 0.04 0  0.68 0.04 0  0.6899999999999999 0.04 0  0.7 0.04 0  0.71 0.04 0  0.72 0.04 0  0.73 0.04 0  0.74 0.04 0  0.75 0.04 0  0.76 0.04 0  0.77 0.04 0  0.78 0.04 0  0.79 0.04 0  0.8 0.04 0  0.8100000000000001 0.04 0  0.82 0.04 0  0.83 0.04 0  0.84 0.04 0  0.85 0.04 0  0.86 0.04 0  0.87 0.04 0  0.88 0.04 0  0.89 0.04 0  0.9 0.04 0  0.91 0.04 0  0.92 0.04 0  0.93 0.04 0  0.9399999999999999 0.04 0  0.95 0.04 0  0.96 0.04 0  0.97 0.04 0  0.98 0.04 0  0.99 0.04 0  1 0.04 0  0 0.05 0  0.01 0.05 0  0.02 0.05 0  0.03 0.05 0  0.04 0.05 0  0.05 0.05 0  0.06 0.05 0  0.07000000000000001 0.05 0  0.08 0.05 0  0.09 0.05 0  0.1 0.05 0  0.11 0.05 0  0.12 0.05 0  0.13 0.05 0  0.14 0.05 0  0.15 0.05 0  0.16 0.05 0  0.17 0.05 0  0.18 0.05 0  0.19 0.05 0  0.2 0.05 0  0.21 0.05 0  0.22 0.05 0  0.23 0.05 0  0.24 0.05 0  0.25 0.05 0  0.26 0.05 0  0.27 0.05 0  0.28 0.05 0  0.29 0.05 0  0.3 0.05 0  0.31 0.05 0  0.32 0.05 0  0.33 0.05 0  0.34 0.05 0  0.35 0.05 0  0.36 0.05 0  0.37 0.05 0  0.38 0.05 0  0.39 0.05 0  0.4 0.05 0  0.41 0.05 0  0.42 0.05 0  0.43 0.05 0  0.44 0.05 0  0.45 0.05 0  0.46 0.05 0  0.47 0.05 0  0.48 0.05 0  0.49 0.05 0  0.5 0.05 0  0.51 0.05 0  0.52 0.05 0  0.53 0.05 0  0.54 0.05 0  0.55 0.05 0  0.5600000000000001 0.05 0  0.57 0.05 0  0.58 0.05 0  0.59 0.05 0  0.6 0.05 0  0.61 0.05 0  0.62 0.05 0  0.63 0.05 0  0.64 0.05 0  0.65 0.05 0  0.66 0.05 0  0.67 0.05 0  0.68 0.05 0  0.6899999999999999 0.05 0  0.7 0.05 0  0.71 0.05 0  0.72 0.05 0  0.73 0.05 0  0.74 0.05 0  0.75 0.05 0  0.76 0.05 0  0.77 0.05 0  0.78 0.05 0  0.79 0.05 0  0.8 0.05 0  0.8100000000000001 0.05 0  0.82 0.05 0  0.83 0.05 0  0.84 0.05 0  0.85 0.05 0  0.86 0.05 0  0.87 0.05 0  0.88 0.05 0  0.89 0.05 0  0.9 0.05 0  0.91 0.05 0  0.92 0.05 0  0.93 0.05 0  0.9399999999999999 0.05 0  0.95 0.05 0  0.96 0.05 0  0.97 0.05 0  0.98 0.05 0  0.99 0.05 0  1 0.05 0  0 0.06 0  0.01 0.06 0  0.02 0.06 0  0.03 0.06 0  0.04 0.06 0  0.05 0.06 0  0.06 0.06 0  0.07000000000000001 0.06 0  0.08 0.06 0  0.09 0.06 0  0.1 0.06 0  0.11 0.06 0  0.12 0.06 0  0.13 0.06 0  0.14 0.06 0  0.15 0.06 0  0.16 0.06 0  0.17 0.06 0  0.18 0.06 0  0.19 0.06 0  0.2 0.06 0  0.21 0.06 0  0.22 0.06 0  0.23 0.06 0  0.24 0.06 0  0.25 0.06 0  0.26 0.06 0  0.27 0.06 0  0.28 0.06 0  0.29 0.06 0  0.3 0.06 0  0.31 0.06 0  0.32 0.06 0  0.33 0.06 0  0.34 0.06 0  0.35 0.06 0  0.36 0.06 0  0.37 0.06 0  0.38 0.06 0  0.39 0.06 0  0.4 0.06 0  0.41 0.06 0  0.42 0.06 0  0.43 0.06 0  0.44 0.06 0  0.45 0.06 0  0.46 0.06 0  0.47 0.06 0  0.48 0.06 0  0.49 0.06 0  0.5 0.06 0  0.51 0.06 0  0.52 0.06 0  0.53 0.06 0  0.54 0.06 0  0.55 0.06 0  0.5600000000000001 0.06 0  0.57 0.06 0  0.58 0.06 0  0.59 0.06 0  0.6 0.06 0  0.61 0.06 0  0.62 0.06 0  0.63 0.06 0  0.64 0.06 0  0.65 0.06 0  0.66 0.06 0  0.67 0.06 0  0.68 0.06 0  0.6899999999999999 0.06 0  0.7 0.06 0  0.71 0.06 0  0.72 0.06 0  0.73 0.06 0  0.74 0.06 0  0.75 0.06 0  0.76 0.06 0  0.77 0.06 0  0.78 0.06 0  0.79 0.06 0  0.8 0.06 0  0.8100000000000001 0.06 0  0.82 0.06 0  0.83 0.06 0  0.84 0.06 0  0.85 0.06 0  0.86 0.06 0  0.87 0.06 0  0.88 0.06 0  0.89 0.06 0  0.9 0.06 0  0.91 0.06 0  0.92 0.06 0  0.93 0.06 0  0.9399999999999999 0.06 0  0.95 0.06 0  0.96 0.06 0  0.97 0.06 0  0.98 0.06 0  0.99 0.06 0  1 0.06 0  0 0.07000000000000001 0  0.01 0.07000000000000001 0  0.02 0.07000000000000001 0  0.03 0.07000000000000001 0  0.04 0.07000000000000001 0  0.05 0.07000000000000001 0  0.06 0.07000000000000001 0  0.07000000000000001 0.07000000000000001 0  0.08 0.07000000000000001 0  0.09 0.07000000000000001 0  0.1 0.07000000000000001 0  0.11 0.07000000000000001 0  0.12 0.07000000000000001 0  0.13 0.07000000000000001 0  0.14 0.07000000000000001 0  0.15 0.07000000000000001 0  0.16 0.07000000000000001 0  0.17 0.0700
[...]
<PointData  Scalars="Indicator Function"> 
<DataArray  type="Float64"  Name="Indicator Function"  format="ascii">-1.2400318165967790e-18  3.0330682550975216e-17  1.1044297067258116e-16  2.4249307664686259e-18  1.1895292100532590e-16  -1.2011253288032785e-18  -3.9674775436205478e-19  8.9087636603482289e-17  7.9202203958410349e-16  -8.5729363260926658e-19  4.2271480142080904e-16  3.8164721878955901e-16  0.0000000000000000e+00  -3.2226940298742484e-18  2.7302934315548488e-16  -6.3125407083897079e-18  -6.5223965020977516e-18  4.7153718144155178e-16  -2.9433431911925670e-18  -3.7522297490594287e-18  1.9544200531168000e-15  -3.1529755373484922e-18  -2.2880185645660941e-18  1.2773514555759309e-15  -9.7000375437343594e-19  -2.7317268524807814e-18  -2.0797907975229286e-18  -1.0253409969038227e-18  6.5279094640076032e-16  -1.0305334200567648e-18  -2.5928429280500033e-18  -2.0099462490232054e-18  -2.3361496131956577e-18  -2.6495063689463937e-18  -1.4906911346577421e-17  -1.3523230830656136e-18  -4.5831047981994270e-18  -1.1440960296405184e-17  -1.3282809448113584e-17  -9.3139578905444466e-18  1.8714745670294760e-15  0.0000000000000000e+00  -2.8492619943749691e-18  -3.1048248980633630e-18  -1.1327182545511636e-18  -1.5327943973282866e-18  3.2280421579473784e-16  -1.5540026433894297e-18  3.0546864599309184e-34  -8.1797608522808988e-19  -4.4886124877254285e-19  -2.5609902317839286e-19  -2.9425351747188201e-19  -7.8265313685345656e-19  -6.5997746623336166e-19  -7.1049393121848576e-19  2.1113069909279129e-16  -5.9537316563777014e-19  -4.6430851040997760e-19  -4.1773059024183150e-19  -1.0608488638634894e-19  -4.7838162647940839e-19  -1.6255468240455196e-19  -1.1252568520340529e-20  -3.3570493899904010e-20  -1.6709146222128610e-19  -6.8820450642564151e-20  -2.2379446027711787e-20  2.7803307932909509e-17  -2.6716267667232433e-19  -7.1534788368509925e-20  -3.1713989284611306e-20  -4.4768609348214566e-20  -7.8042945040675865e-19  -9.2344457460963499e-19  -4.4397841863527453e-19  -6.6431153342451928e-20  -2.4043800856845074e-19  -2.5636166757071398e-19  -2.4029255778220166e-19  -1.0081663820734463e-19  2.3529005154372473e-16  -1.2433704360636214e-19  -4.7979097283893924e-19  -4.0510132121913866e-19  -2.9448444212377795e-19  -5.1889656319722259e-20  -1.3529924359258854e-19  -1.4005250881530690e-19  -2.3773688221125583e-20  -2.3010129423292119e-21  -7.7527502753280601e-21  -4.6768845556782862e-20  4.0591320729790452e-17  -3.1512002656146369e-20  -1.7108546769338624e-20  -9.9741355888035353e-22  -5.2566475447020869e-21  -5.3238278979545025e-21  -3.6714981489554305e-37  2.9371985191643444e-36  7.5192282090607217e-34  2.2338427308611290e-02  9.0374100430748255e-02  2.7828812193529867e-02  3.4510075291904252e-02  3.3588096526678053e-02  2.1637550332894842e-02  7.1471721548200659e-03  7.1906810977617558e-02  8.2466291385316179e-02  1.5443629137464554e-02  1.1691906824176082e-01  3.2851603525027545e-03  1.1610978905656499e-01  5.9961205926115056e-03  1.0793556831783536e-01  9.2783512534446916e-02  7.1105293558417049e-02  1.0604511439262661e-01  1.3518832399737857e-01  6.5337308139468087e-02  1.1359791564088761e-01  8.2434556438374024e-02  5.5417426719993178e-03  1.3693458792965140e-02  9.8420832279283346e-02  7.4932360485862756e-02  3.6941802652669255e-02  1.6995646086672957e-02  1.6340110020530794e-02  1.0394384695976561e-02  7.2415945425085032e-02  7.9805169447328073e-02  2.1817453862147261e-03  4.6638390890503839e-02  4.8722573863830526e-02  1.8766920616485737e-02  7.3178415937240615e-02  1.6951281014198377e-01  1.5452541765283864e-01  9.0522640314382757e-02  4.9790877567184734e-02  4.1288928170080638e-05  5.1327741024592102e-02  3.0267682503579123e-02  5.5224738213148349e-02  5.9642295219149051e-02  2.0985364771648835e-02  2.7994422902805603e-02  2.6781678743212426e-04  1.4601438776808749e-02  8.0859654108523162e-03  1.0601600253110606e-02  2.6851334365031850e-02  6.7335831945838985e-04  1.7150387077314241e-02  1.9306561172807254e-02  2.1450578935301227e-02  1.6728477075738594e-02  1.5050330644434954e-02  3.8221108383936172e-03  5.5222152043569303e-03  5.8566496568357536e-03  4.0541650716133248e-04  1.2095045105460099e-03  1.0610682820634597e-03  2.4795180469545713e-03  8.0630451832918273e-04  2.0615172803099911e-03  4.6198772370675354e-03  2.5028363059013681e-03  1.1159802039687561e-03  1.6129591390281158e-03  4.5221490161747530e-03  1.1797892620075977e-02  1.0736352258399039e-02  2.6298280337059359e-03  1.1967172697554349e-03  3.7329874683005981e-03  2.7517075080238859e-03  3.3296110498314290e-03  1.5134557213765355e-04  4.5437161905889162e-04  5.6665487246002665e-03  5.8098714236725617e-03  4.3927209253229503e-03  3.1085996325987430e-03  2.0610959484256941e-03  2.5602686300513996e-03  1.2428273910259765e-03  8.2902728237188055e-05  4.1382864742831701e-05  2.8141757944557291e-04  7.0180383196551078e-04  3.7822399541813541e-04  3.7855777597060761e-04  1.3969072667941075e-04  1.7967805328431372e-05  8.5711441029937701e-05  5.3049836834681303e-05  1.4724287576617652e-21  -9.4258397237031705e-19  1.3576755983814782e-02  2.8448206526656548e-02  5.5865469570873141e-02  3.5707801485738315e-02  7.9075991229843476e-02  2.5189781212278838e-02  9.2150166635112205e-02  7.1358255929751127e-03  1.0346602872392946e-01  1.8025245503164911e-01  7.6578687094884274e-02  3.8691906463160272e-02  1.8654024128620711e-01  1.7565519494820733e-01  2.2961852542583902e-01  1.6502239796703455e-02  1.6544986134480080e-01  1.1554891421221816e-02  8.1800455388860951e-02  9.7008758965615074e-04  1.7787083681507132e-01  9.9971979140763320e-02  3.7336947248212460e-02  8.4998401145000180e-02  2.6158533671016494e-02  1.8137165741792669e-02  5.1140280023176665e-02  1.2695652154380210e-03  1.4713344166652285e-02  1.4081376204443546e-01  9.8960225889626371e-02  6.6492836220593030e-02  8.7558119025076028e-02  1.1430430512586795e-01  1.4189971282626458e-02  2.2560171360930980e-02  1.1499082529089831e-01  1.5635913216763384e-01  1.7577696454500336e-01  2.3886135194684355e-01  8.2366001556677379e-02  4.5078084336063917e-02  1.0223097478390893e-02  2.9596576453094176e-02  7.5089959077808818e-03  1.6576826498669147e-02  8.1101095898447034e-03  5.3050361559762810e-02  2.1687513259424807e-02  4.4562425862225218e-02  2.7364823723045922e-02  1.1909658294627833e-02  1.3732867069273633e-02  4.9303404555662123e-02  2.9937605509641574e-03  5.6542558784539402e-03  4.5312877338443179e-03  6.7649448397383962e-03  9.3562297117720395e-03  1.9375772687777716e-02  1.0173235258176613e-02  1.6183552154710752e-02  1.5080911616206395e-04  7.0283384019641216e-04  1.9285255009317487e-03  4.5503380270803077e-03  5.7526558875533012e-04  5.4084103534686326e-04  6.4924850079735386e-03  5.5526398988999795e-03  5.7650791345036556e-04  2.1738886131865741e-03  1.1218471091065259e-03  1.3317866077911921e-02  1.8158677646381603e-02  6.4969812946024004e-03  1.1055810639342036e-03  3.8640497665279696e-03  3.9648146089127402e-03  3.3504142881854238e-03  3.4655628906191797e-03  1.9328076609628723e-03  5.6277788985660913e-03  9.4588464427086179e-03  6.2472869465079088e-03  4.7014193483848948e-03  2.7338978702925172e-03  3.5848372145028742e-03  2.7840117193805524e-03  2.4075562017440678e-04  3.5394213097268544e-04  1.4771677158841541e-04  1.0621524172108093e-03  6.2211096826874680e-04  6.2695949594833921e-04  3.2004230568968210e-04  8.2522815709513601e-05  9.0738746318948791e-05  1.2426210075935145e-04  3.1040695204047912e-20  2.6317298731712528e-33  6.8601431120672296e-02  6.1897363134928149e-02  1.7826367814734917e-01  6.6284130425371637e-02  1.4479562244090844e-03  7.6654506386713020e-02  1.0440591430356580e-01  6.0460181153927345e-02  1.3317303588788129e-01  2.9387556232572853e-01  1.9761114245955064e-01  1.9468579819994672e-01  1.9831159266822093e-01  1.3530886574835413e-01  1.0963708663086712e-01  2.9172006526982353e-01  1.0529878300665979e-01  1.2984351432146751e-01  1.0619756830123853e-01  3.1323477836314212e-01  2.8403505384680555e-01  3.1710558479312217e-01  2.7900082096892753e-01  5.5337467107210610e-02  4.1604787626165284e-02  1.8359335638931398e-01  2.6335967409530731e-01  1.4035329606261229e-01  3.9972852871036968e-02  1.5726889594649605e-02  7.4889935958199122e-02  1.5580431152207788e-01  1.8022541163341232e-01  5.3503789543881387e-02  1.1261124634979382e-01  6.2553783303843452e-02  5.8387669900569712e-02  1.6004037697554205e-01  2.9447386232214467e-01  1.6658508262626950e-01  1.1264097816689964e-01  7.4220265268758301e-02  3.8375769567903888e-02  8.4962071966562802e-02  8.3566098497284587e-03  1.3849658424793559e-01  1.7826952658823694e-01  9.1514537027704554e-02  8.5797920400619038e-02  3.3199023905380341e-02  4.8358895756069310e-02  3.7645608484431554e-02  5.1487344537753128e-03  5.0752468115451393e-02  1.0379073693252638e-03  2.6842492990804222e-02  5.1754914865518198e-02  5.8655899213279572e-02  4.2456533039593021e-02  3.3553258016000835e-02  8.6920572701509723e-03  6.3200490871065176e-03  1.3197355731130699e-02  5.8307932982954933e-03  2.0849415710733534e-03  1.0357659435945388e-03  5.3864954387312257e-03  3.0130353465376070e-03  3.6643071277846721e-03  9.2175492808427729e-03  2.7279058346778868e-03  4.2497660799156739e-04  3.0496106907186246e-03  8.7490164766132836e-03  2.1229235645944481e-02  1.5316780619102055e-02  2.4990642901495611e-03  3.6937502019321988e-03  5.0480970344470404e-03  2.0326663095306891e-03  4.5997517080016929e-03  2.7867149297978696e-04  5.1459622922911790e-05  1.1974459146012079e-02  9.0868135245225461e-03  4.7272621738529176e-03  3.7677852814411430e-03  2.5338155593440199e-03  4.6025148695634979e-03  1.5200771726389247e-03  9.9989872576427782e-04  9.7319597731647525e-05  2.7790189335473426e-04  1.4906103268289865e-03  4.1833374564346896e-04  6.7164239625584006e-04  2.1187120269551015e-04  1.6913724638896020e-05  6.1166030185898503e-05  -8.2241558536601651e-35  -5.9429699965558326e-19  7.6088002082705955e-02  6.7105840174463929e-02  8.3915667269519087e-02  5.1094376911134755e-02  5.6561734080970566e-02  9.4681808626566749e-02  8.3184977392114529e-02  1.1211640552925588e-01  3.0150411177265139e-02  4.5217701197495276e-02  1.2535093790969210e-01  1.2413517301544770e-01  1.1062172427676113e-01  1.9841618949229115e-01  4.2374426730649167e-01  1.6171531964302002e-01  3.3193137752723312e-02  2.0251823649753722e-01  1.0730338405832844e-02  1.9420510822209300e-01  1.9869691009549068e-01  1.0471827397244324e-01  7.2970828100251087e-02  1.4336857746634718e-01  1.3583656037025038e-01  6.2709396634884354e-02  9.9748879614815170e-02  3.4996224882167276e-02  1.9429794643274937e-02  2.0554227189113563e-02  1.7271460630319541e-01  1.7809247059056271e-01  1.3410599293788297e-01  2.6041855160590571e-01  8.7679543982152497e-02  2.6919524688839534e-02  3.2643143697767121e-02  1.5577331286892923e-01  1.7680511058148268e-01  2.5578029536634972e-01  2.7359231496645348e-01  6.6882060713016438e-03  8.0039929423852518e-02  1.7282924021400106e-02  5.1014441589669550e-02  1.6623068773565383e-02  5.3844690203380292e-02  6.6003155432614605e-02  3.1981155314431159e-02  1.6895882941024558e-02  4.5145747200729232e-02  2.8694032915338862e-02  8.6329872590754954e-03  2.5863177508173081e-02  9.1225614891388182e-02  2.6634401670426154e-02  1.4664646358310037e-03  1.5808017972393579e-02  3.5345670962279079e-02  3.3858689840315953e-02  4.1725021283306116e-02  2.4305282499578879e-02  2.4999077988905900e-02  4.8541917998101632e-04  4.8117328533215115e-03  3.6767497704156557e-03  6.2836578415806314e-03  1.1752775602308276e-03  2.8523466536575664e-03  9.3086891122682973e-03  7.9934321244403313e-03  1.3165345980444497e-03  1.7730467645510281e-03  6.7741096207758693e-05  1.8364426916337835e-02  2.4379472082006574e-02  4.5781541784886796e-03  7.3485222246800069e-03  5.5207371762307942e-03  3.7809025234208584e-03  1.7967497569397009e-03  4.2650953160325205e-03  4.3153714196652653e-03  7.0699491768491897e-03  1.4273095153627454e-02  6.4875941841910853e-03  3.6531637875405853e-03  2.1536421034940110e-03  4.0324789334833149e-03  3.8084188262267789e-03  3.3227947795163698e-04  1.1490266169777075e-03  4.5982219297541367e-04  1.3342454066207841e-03  9.8018965346695678e-04  6.8197668027795532e-04  4.5690912544412446e-04  1.5194241735877728e-04  1.0388203500173604e-05  -7.4162146274644444e-21  -6.1012007605470344e-18  1.9936356492496510e-01  1.4446098275901248e-01  2.0577194455327026e-02  2.1726866395888700e-01  1.8781038678134843e-01  2.2518416753955571e-02  2.1732160682285440e-02  1.1710215454006942e-01  1.6067422345210322e-01  1.1835180640826778e-01  3.5698578726512253e-01  3.8402073906928003e-01  8.4437590236594987e-02  2.6763108908379640e-01  5.5407018904642925e-02  2.2801783922621655e-02  4.3775830598137799e-01  2.3809751404327482e-02  1.3249902031325600e-01  1.2369290528876736e-02  2.5642121493519143e-01  3.3995208354692974e-01  4.4046211942370289e-01  3.9301738389195806e-01  7.2724193777837717e-02  1.1740905053460224e-01  1.2134950873606387e-01  3.1823108303917264e-01  2.1780383524547350e-01  2.7298694211763362e-02  9.2124825896345106e-03  1.8948439749779247e-01  2.4779906793901285e-01  1.3245010697347667e-01  5.0655374458412296e-03  1.8433281934466728e-01  3.3681877280937737e-02  8.3643439859044696e-02  2.2548202688423427e-01  3.0455192919517227e-01  1.4653979079700091e-01  1.6270779734415963e-01  4.3794606012763061e-02  1.1613084421956836e-01  7.2487605183000417e-02  1.9623436590890261e-02  1.6261858881178759e-01  2.0549075120571028e-01  1.1550885988605318e-01  1.2049073088643306e-01  6.4258821327898036e-02  7.4122855913040062e-02  6.4437469153183768e-02  6.2079123415375997e-03  4.3766333734643004e-02  2.4289655836978990e-02  1.3520620587983694e-02  6.3781853953611939e-02  6.7820248945735254e-02  4.2331674510399486e-02  2.9480171497813182e-02  1.5762625946962974e-04  2.6824848547350386e-03  2.1828532540709614e-02  1.0407444483276332e-02  8.7412075399772378e-04  7.1313896702292483e-05  7.5924239297249698e-03  4.1656655454839235e-03  2.7829247126504274e-03  1.2349272355750208e-02  3.3264614312397693e-03  2.5514482385475931e-03  4.1758770296391164e-03  8.7373716244813996e-03  2.6386979806463436e-02  1.8600187005104140e-02  7.3470532236205597e-03  7.8558915739900224e-03  5.8359273287281162e-03  1.1367861277207605e-03  3.8975129846108292e-03  2.2992258059827475e-04  2.3753210511807000e-03  1.4973394539834737e-02  1.1705916762940843e-02  3.7750927561334634e-03  2.7952412973977800e-03  1.8042902580062191e-03  5.4172519072026503e-03  1.7092412946428091e-03  1.8587706751825193e-03  2.4904151826988553e-04  5.8136046272456462e-05  1.9666563263114885e-03  4.8763355625285710e-04  8.3559337363797064e-04  3.1289960944066861e-04  1.0294695776287485e-04  1.7623191114986068e-35  -1.2231496236160904e-18  1.7592976599516405e-01  7.9717615152059051e-02  5.4214702982445066e-02  1.8816264240743499e-01  6.9178524088251273e-02  4.5553978211466985e-02  5.2645631656407635e-02  1.4976528877356188e-01  5.0724059568926283e-02  1.2814943970846633e-02  2.8551200114223492e-03  4.3970275945694269e-02  5.0383588433814984e-02  2.1111579006631764e-01  1.8761701940516053e-02  4.4196958948891496e-01  1.5174368056644951e-02  4.6206708836189256e-02  2.0318860679770034e-01  4.8932878964504663e-02  1.4558508082629157e-01  3.6378048082971126e-01  6.1458641780259213e-02  4.3342873956887809e-02  3.0445176831580528e-01  1.7631858498506733e-01  1.2107211099875765e-02  1.6904691766849303e-01  1.9992705078196285e-01  7.2835773487594957e-02  3.3250918570819576e-02  1.2131771300027014e-01  1.4981350088343726e-01  1.6561606013532548e-01  3.5352003939573917e-01  1.6274985403983769e-02  4.1884281682072703e-03  4.9312260240127040e-02  1.6253462847490785e-01  2.2575516729616707e-01  3.2568629851144232e-01  2.2881380625382944e-01  2.8454960279300733e-02  7.3005149320583024e-02  6.8294077267263831e-03  7.8585799288325112e-02  4.8013317461263819e-02  1.1846175756714848e-01  1.5666199468966324e-01  2.3909258318389744e-02  2.1052499303853101e-02  1.4750637782738734e-02  4.2106729633858524e-03  1.7517413348680663e-02  1.9873984175688860e-02  1.0522263605086350e-01  2.9508918359165547e-02  2.1952536422529638e-03  3.8314468235687432e-02  6.1014935180362849e-02  5.2001471966151250e-02  5.3436995902723362e-02  2.9065102006445874e-02  2.5016716069235959e-02  3.2530496022672617e-03  9.7593571150773467e-03  4.2508166618381972e-03  6.4055455435550650e-03  2.5114257311898941e-03  4.6316809329594961e-03  1.0177812500155703e-02  1.0641351563710722e-02  1.9751235251495858e-03  6.3269372754386633e-04  1.7360327871354855e-03  2.0424367706353780e-02  2.9110984844977632e-02  4.5623270313520448e-03  1.3397561785036574e-02  7.7040259023719209e-03  3.6428995022834794e-03  4.4273972536314633e-04  4.2106278030014307e-03  5.2398400871913912e-03  6.3681038480066891e-03  1.8037821249432505e-02  7.1968279161318373e-03  2.2494133836267164e-03  1.3928000367545413e-03  3.8094771669118085e-03  4.6989584489188028e-03  6.4692982775770903e-04  1.9715053357596793e-03  4.8192123615616635e-04  1.3305129388416876e-03  1.4488944438316952e-03  7.0588264544580554e-04  6.3384069861593668e-04  2.3077081287661450e-04  7.3429962979108613e-36  4.1355755149833972e-33  8.4223849516599128e-02  6.9734835056720679e-02  3.9058154970336253e-02  1.6375795698435833e-01  1.1320245473689948e-01  2.2814493285989934e-01  4.4567849576218092e-03  5.9107985882422845e-02  5.7264490469560260e-02  1.8127167459087593e-01  8.9743975391876757e-02  2.8361784100052922e-01  3.2619773078582093e-01  1.9115567636394458e-02  1.2652277794607575e-01  9.9505273662036486e-02  1.7856062672682818e-01  3.8692989629697333e-01  3.0814214689396109e-02  9.9168967912561787e-02  3.9768111803359998e-03  1.2646141734128472e-01  1.6914011734250450e-01  3.8490597285423161e-01  3.3961342855888821e-01  1.1586670524627776e-02  1.4604997298812744e-01  6.5432427794267056e-02  2.0399884189979967e-01  1.6983802553163668e-01  5.1529540444089630e-03  6.0131653934625662e-02  2.1634073786745420e-01  3.2479007080504491e-01  5.0229193477874738e-02  1.4971052582956687e-01  1.7791819395120789e-01  1.6075676876413489e-03  9.7770333503476428e-02  2.5365419568984093e-01  2.9006593000536873e-01  1.9627099563345465e-01  1.8514158908863276e-01  2.6533741460493948e-02  1.5575151173270671e-01  4.8429624532394439e-02  1.6289714830776715e-02  1.6504989089912875e-01  1.4693472479845043e-01  4.9009699228538671e-02  9.4517585706624885e-02  5.3344551596863930e-02  6.6022187273425167e-02  6.1419868394270466e-02  5.9173344538391223e-05  3.6430654827307805e-02  5.3875549591346800e-02  6.5495961598339434e-03  5.8750464334604506e-02  5.0028125424557826e-02  1.9252029875624022e-02  1.0127785890577055e-02  1.5360580522807419e-02  1.2971340326330948e-02  2.7399792364037789e-02  1.1527010816541467e-02  2.4075065582911830e-03  8.7664727110364803e-04  8.5438707664306172e-03  3.7879591241914831e-03  1.3690260512362817e-03  1.4324142354749936e-02  4.9801377428051524e-03  3.8226456916905724e-03  4.2225006696854830e-03  7.4831494688745726e-03  2.9960277648031355e-02  2.2193829202090423e-02  9.8767830298454422e-03  1.3522765882663938e-02  6.8859739936150931e-03  6.7490216227763535e-04  2.4730076367167494e-03  1.2060361453035238e-04  3.8691845909048089e-03  1.5989282697895089e-02  1.5122009783765092e-02  3.4280192533620258e-03  1.4504763234352890e-03  1.1989214976068268e-03  5.7195392585507529e-03  2.3221768259144133e-03  2.3087683118385932e-03  7.9093778895495347e-04  1.3417653495227409e-04  2.1048714370431217e-03  7.8420446713665969e-04  8.8144381123543981e-04  4.1205123218131283e-04  -5.7183595661607479e-20  7.5192282090607217e-34  2.8213868541037083e-02  2.3798721542204002e-02  5.6469578932941689e-02  1.1414392223818727e-01  5.4056186508947245e-02  1.9862478687927887e-01  1.0269316130378674e-02  9.7719330864213432e-04  1.2108873441713201e-01  1.4519712660189352e-02  5.4617248637706339e-02  5.6458403476524734e-02  9.0852414230808073e-02  2.1953899065393118e-01  1.2010274542902513e-01  7.0284031587046367e-02  2.