<?xml version="1.0"?>
<VTKFile type="UnstructuredGrid"  version="0.1"  >
<UnstructuredGrid>
<Piece  NumberOfPoints="10201" NumberOfCells="20000">
<Points>
<DataArray  type="Float64"  NumberOfComponents="3"  format="ascii">0 0 0  0.01 0 0  0.02 0 0  0.03 0 0  0.04 0 0  0.05 0 0  0.06 0 0  0.07000000000000001 0 0  0.08 0 0  0.09 0 0  0.1 0 0  0.11 0 0  0.12 0 0  0.13 0 0  0.14 0 0  0.15 0 0  0.16 0 0  0.17 0 0  0.18 0 0  0.19 0 0  0.2 0 0  0.21 0 0  0.22 0 0  0.23 0 0  0.24 0 0  0.25 0 0  0.26 0 0  0.27 0 0  0.28 0 0  0.29 0 0  0.3 0 0  0.31 0 0  0.32 0 0  0.33 0 0  0.34 0 0  0.35 0 0  0.36 0 0  0.37 0 0  0.38 0 0  0.39 0 0  0.4 0 0  0.41 0 0  0.42 0 0  0.43 0 0  0.44 0 0  0.45 0 0  0.46 0 0  0.47 0 0  0.48 0 0  0.49 0 0  0.5 0 0  0.51 0 0  0.52 0 0  0.53 0 0  0.54 0 0  0.55 0 0  0.5600000000000001 0 0  0.57 0 0  0.58 0 0  0.59 0 0  0.6 0 0  0.61 0 0  0.62 0 0  0.63 0 0  0.64 0 0  0.65 0 0  0.66 0 0  0.67 0 0  0.68 0 0  0.6899999999999999 0 0  0.7 0 0  0.71 0 0  0.72 0 0  0.73 0 0  0.74 0 0  0.75 0 0  0.76 0 0  0.77 0 0  0.78 0 0  0.79 0 0  0.8 0 0  0.8100000000000001 0 0  0.82 0 0  0.83 0 0  0.84 0 0  0.85 0 0  0.86 0 0  0.87 0 0  0.88 0 0  0.89 0 0  0.9 0 0  0.91 0 0  0.92 0 0  0.93 0 0  0.9399999999999999 0 0  0.95 0 0  0.96 0 0  0.97 0 0  0.98 0 0  0.99 0 0  1 0 0  0 0.01 0  0.01 0.01 0  0.02 0.01 0  0.03 0.01 0  0.04 0.01 0  0.05 0.01 0  0.06 0.01 0  0.07000000000000001 0.01 0  0.08 0.01 0  0.09 0.01 0  0.1 0.01 0  0.11 0.01 0  0.12 0.01 0  0.13 0.01 0  0.14 0.01 0  0.15 0.01 0  0.16 0.01 0  0.17 0.01 0  0.18 0.01 0  0.19 0.01 0  0.2 0.01 0  0.21 0.01 0  0.22 0.01 0  0.23 0.01 0  0.24 0.01 0  0.25 0.01 0  0.26 0.01 0  0.27 0.01 0  0.28 0.01 0  0.29 0.01 0  0.3 0.01 0  0.31 0.01 0  0.32 0.01 0  0.33 0.01 0  0.34 0.01 0  0.35 0.01 0  0.36 0.01 0  0.37 0.01 0  0.38 0.01 0  0.39 0.01 0  0.4 0.01 0  0.41 0.01 0  0.42 0.01 0  0.43 0.01 0  0.44 0.01 0  0.45 0.01 0  0.46 0.01 0  0.47 0.01 0  0.48 0.01 0  0.49 0.01 0  0.5 0.01 0  0.51 0.01 0  0.52 0.01 0  0.53 0.01 0  0.54 0.01 0  0.55 0.01 0  0.5600000000000001 0.01 0  0.57 0.01 0  0.58 0.01 0  0.59 0.01 0  0.6 0.01 0  0.61 0.01 0  0.62 0.01 0  0.63 0.01 0  0.64 0.01 0  0.65 0.01 0  0.66 0.01 0  0.67 0.01 0  0.68 0.01 0  0.6899999999999999 0.01 0  0.7 0.01 0  0.71 0.01 0  0.72 0.01 0  0.73 0.01 0  0.74 0.01 0  0.75 0.01 0  0.76 0.01 0  0.77 0.01 0  0.78 0.01 0  0.79 0.01 0  0.8 0.01 0  0.8100000000000001 0.01 0  0.82 0.01 0  0.83 0.01 0  0.84 0.01 0  0.85 0.01 0  0.86 0.01 0  0.87 0.01 0  0.88 0.01 0  0.89 0.01 0  0.9 0.01 0  0.91 0.01 0  0.92 0.01 0  0.93 0.01 0  0.9399999999999999 0.01 0  0.95 0.01 0  0.96 0.01 0  0.97 0.01 0  0.98 0.01 0  0.99 0.01 0  1 0.01 0  0 0.02 0  0.01 0.02 0  0.02 0.02 0  0.03 0.02 0  0.04 0.02 0  0.05 0.02 0  0.06 0.02 0  0.07000000000000001 0.02 0  0.08 0.02 0  0.09 0.02 0  0.1 0.02 0  0.11 0.02 0  0.12 0.02 0  0.13 0.02 0  0.14 0.02 0  0.15 0.02 0  0.16 0.02 0  0.17 0.02 0  0.18 0.02 0  0.19 0.02 0  0.2 0.02 0  0.21 0.02 0  0.22 0.02 0  0.23 0.02 0  0.24 0.02 0  0.25 0.02 0  0.26 0.02 0  0.27 0.02 0  0.28 0.02 0  0.29 0.02 0  0.3 0.02 0  0.31 0.02 0  0.32 0.02 0  0.33 0.02 0  0.34 0.02 0  0.35 0.02 0  0.36 0.02 0  0.37 0.02 0  0.38 0.02 0  0.39 0.02 0  0.4 0.02 0  0.41 0.02 0  0.42 0.02 0  0.43 0.02 0  0.44 0.02 0  0.45 0.02 0  0.46 0.02 0  0.47 0.02 0  0.48 0.02 0  0.49 0.02 0  0.5 0.02 0  0.51 0.02 0  0.52 0.02 0  0.53 0.02 0  0.54 0.02 0  0.55 0.02 0  0.5600000000000001 0.02 0  0.57 0.02 0  0.58 0.02 0  0.59 0.02 0  0.6 0.02 0  0.61 0.02 0  0.62 0.02 0  0.63 0.02 0  0.64 0.02 0  0.65 0.02 0  0.66 0.02 0  0.67 0.02 0  0.68 0.02 0  0.6899999999999999 0.02 0  0.7 0.02 0  0.71 0.02 0  0.72 0.02 0  0.73 0.02 0  0.74 0.02 0  0.75 0.02 0  0.76 0.02 0  0.77 0.02 0  0.78 0.02 0  0.79 0.02 0  0.8 0.02 0  0.8100000000000001 0.02 0  0.82 0.02 0  0.83 0.02 0  0.84 0.02 0  0.85 0.02 0  0.86 0.02 0  0.87 0.02 0  0.88 0.02 0  0.89 0.02 0  0.9 0.02 0  0.91 0.02 0  0.92 0.02 0  0.93 0.02 0  0.9399999999999999 0.02 0  0.95 0.02 0  0.96 0.02 0  0.97 0.02 0  0.98 0.02 0  0.99 0.02 0  1 0.02 0  0 0.03 0  0.01 0.03 0  0.02 0.03 0  0.03 0.03 0  0.04 0.03 0  0.05 0.03 0  0.06 0.03 0  0.07000000000000001 0.03 0  0.08 0.03 0  0.09 0.03 0  0.1 0.03 0  0.11 0.03 0  0.12 0.03 0  0.13 0.03 0  0.14 0.03 0  0.15 0.03 0  0.16 0.03 0  0.17 0.03 0  0.18 0.03 0  0.19 0.03 0  0.2 0.03 0  0.21 0.03 0  0.22 0.03 0  0.23 0.03 0  0.24 0.03 0  0.25 0.03 0  0.26 0.03 0  0.27 0.03 0  0.28 0.03 0  0.29 0.03 0  0.3 0.03 0  0.31 0.03 0  0.32 0.03 0  0.33 0.03 0  0.34 0.03 0  0.35 0.03 0  0.36 0.03 0  0.37 0.03 0  0.38 0.03 0  0.39 0.03 0  0.4 0.03 0  0.41 0.03 0  0.42 0.03 0  0.43 0.03 0  0.44 0.03 0  0.45 0.03 0  0.46 0.03 0  0.47 0.03 0  0.48 0.03 0  0.49 0.03 0  0.5 0.03 0  0.51 0.03 0  0.52 0.03 0  0.53 0.03 0  0.54 0.03 0  0.55 0.03 0  0.5600000000000001 0.03 0  0.57 0.03 0  0.58 0.03 0  0.59 0.03 0  0.6 0.03 0  0.61 0.03 0  0.62 0.03 0  0.63 0.03 0  0.64 0.03 0  0.65 0.03 0  0.66 0.03 0  0.67 0.03 0  0.68 0.03 0  0.6899999999999999 0.03 0  0.7 0.03 0  0.71 0.03 0  0.72 0.03 0  0.73 0.03 0  0.74 0.03 0  0.75 0.03 0  0.76 0.03 0  0.77 0.03 0  0.78 0.03 0  0.79 0.03 0  0.8 0.03 0  0.8100000000000001 0.03 0  0.82 0.03 0  0.83 0.03 0  0.84 0.03 0  0.85 0.03 0  0.86 0.03 0  0.87 0.03 0  0.88 0.03 0  0.89 0.03 0  0.9 0.03 0  0.91 0.03 0  0.92 0.03 0  0.93 0.03 0  0.9399999999999999 0.03 0  0.95 0.03 0  0.96 0.03 0  0.97 0.03 0  0.98 0.03 0  0.99 0.03 0  1 0.03 0  0 0.04 0  0.01 0.04 0  0.02 0.04 0  0.03 0.04 0  0.04 0.04 0  0.05 0.04 0  0.06 0.04 0  0.07000000000000001 0.04 0  0.08 0.04 0  0.09 0.04 0  0.1 0.04 0  0.11 0.04 0  0.12 0.04 0  0.13 0.04 0  0.14 0.04 0  0.15 0.04 0  0.16 0.04 0  0.17 0.04 0  0.18 0.04 0  0.19 0.04 0  0.2 0.04 0  0.21 0.04 0  0.22 0.04 0  0.23 0.04 0  0.24 0.04 0  0.25 0.04 0  0.26 0.04 0  0.27 0.04 0  0.28 0.04 0  0.29 0.04 0  0.3 0.04 0  0.31 0.04 0  0.32 0.04 0  0.33 0.04 0  0.34 0.04 0  0.35 0.04 0  0.36 0.04 0  0.37 0.04 0  0.38 0.04 0  0.39 0.04 0  0.4 0.04 0  0.41 0.04 0  0.42 0.04 0  0.43 0.04 0  0.44 0.04 0  0.45 0.04 0  0.46 0.04 0  0.47 0.04 0  0.48 0.04 0  0.49 0.04 0  0.5 0.04 0  0.51 0.04 0  0.52 0.04 0  0.53 0.04 0  0.54 0.04 0  0.55 0.04 0  0.5600000000000001 0.04 0  0.57 0.04 0  0.58 0.04 0  0.59 0.04 0  0.6 0.04 0  0.61 0.04 0  0.62 0.04 0  0.63 0.04 0  0.64 0.04 0  0.65 0.04 0  0.66 0.04 0  0.67 0.04 0  0.68 0.04 0  0.6899999999999999 0.04 0  0.7 0.04 0  0.71 0.04 0  0.72 0.04 0  0.73 0.04 0  0.74 0.04 0  0.75 0.04 0  0.76 0.04 0  0.77 0.04 0  0.78 0.04 0  0.79 0.04 0  0.8 0.04 0  0.8100000000000001 0.04 0  0.82 0.04 0  0.83 0.04 0  0.84 0.04 0  0.85 0.04 0  0.86 0.04 0  0.87 0.04 0  0.88 0.04 0  0.89 0.04 0  0.9 0.04 0  0.91 0.04 0  0.92 0.04 0  0.93 0.04 0  0.9399999999999999 0.04 0  0.95 0.04 0  0.96 0.04 0  0.97 0.04 0  0.98 0.04 0  0.99 0.04 0  1 0.04 0  0 0.05 0  0.01 0.05 0  0.02 0.05 0  0.03 0.05 0  0.04 0.05 0  0.05 0.05 0  0.06 0.05 0  0.07000000000000001 0.05 0  0.08 0.05 0  0.09 0.05 0  0.1 0.05 0  0.11 0.05 0  0.12 0.05 0  0.13 0.05 0  0.14 0.05 0  0.15 0.05 0  0.16 0.05 0  0.17 0.05 0  0.18 0.05 0  0.19 0.05 0  0.2 0.05 0  0.21 0.05 0  0.22 0.05 0  0.23 0.05 0  0.24 0.05 0  0.25 0.05 0  0.26 0.05 0  0.27 0.05 0  0.28 0.05 0  0.29 0.05 0  0.3 0.05 0  0.31 0.05 0  0.32 0.05 0  0.33 0.05 0  0.34 0.05 0  0.35 0.05 0  0.36 0.05 0  0.37 0.05 0  0.38 0.05 0  0.39 0.05 0  0.4 0.05 0  0.41 0.05 0  0.42 0.05 0  0.43 0.05 0  0.44 0.05 0  0.45 0.05 0  0.46 0.05 0  0.47 0.05 0  0.48 0.05 0  0.49 0.05 0  0.5 0.05 0  0.51 0.05 0  0.52 0.05 0  0.53 0.05 0  0.54 0.05 0  0.55 0.05 0  0.5600000000000001 0.05 0  0.57 0.05 0  0.58 0.05 0  0.59 0.05 0  0.6 0.05 0  0.61 0.05 0  0.62 0.05 0  0.63 0.05 0  0.64 0.05 0  0.65 0.05 0  0.66 0.05 0  0.67 0.05 0  0.68 0.05 0  0.6899999999999999 0.05 0  0.7 0.05 0  0.71 0.05 0  0.72 0.05 0  0.73 0.05 0  0.74 0.05 0  0.75 0.05 0  0.76 0.05 0  0.77 0.05 0  0.78 0.05 0  0.79 0.05 0  0.8 0.05 0  0.8100000000000001 0.05 0  0.82 0.05 0  0.83 0.05 0  0.84 0.05 0  0.85 0.05 0  0.86 0.05 0  0.87 0.05 0  0.88 0.05 0  0.89 0.05 0  0.9 0.05 0  0.91 0.05 0  0.92 0.05 0  0.93 0.05 0  0.9399999999999999 0.05 0  0.95 0.05 0  0.96 0.05 0  0.97 0.05 0  0.98 0.05 0  0.99 0.05 0  1 0.05 0  0 0.06 0  0.01 0.06 0  0.02 0.06 0  0.03 0.06 0  0.04 0.06 0  0.05 0.06 0  0.06 0.06 0  0.07000000000000001 0.06 0  0.08 0.06 0  0.09 0.06 0  0.1 0.06 0  0.11 0.06 0  0.12 0.06 0  0.13 0.06 0  0.14 0.06 0  0.15 0.06 0  0.16 0.06 0  0.17 0.06 0  0.18 0.06 0  0.19 0.06 0  0.2 0.06 0  0.21 0.06 0  0.22 0.06 0  0.23 0.06 0  0.24 0.06 0  0.25 0.06 0  0.26 0.06 0  0.27 0.06 0  0.28 0.06 0  0.29 0.06 0  0.3 0.06 0  0.31 0.06 0  0.32 0.06 0  0.33 0.06 0  0.34 0.06 0  0.35 0.06 0  0.36 0.06 0  0.37 0.06 0  0.38 0.06 0  0.39 0.06 0  0.4 0.06 0  0.41 0.06 0  0.42 0.06 0  0.43 0.06 0  0.44 0.06 0  0.45 0.06 0  0.46 0.06 0  0.47 0.06 0  0.48 0.06 0  0.49 0.06 0  0.5 0.06 0  0.51 0.06 0  0.52 0.06 0  0.53 0.06 0  0.54 0.06 0  0.55 0.06 0  0.5600000000000001 0.06 0  0.57 0.06 0  0.58 0.06 0  0.59 0.06 0  0.6 0.06 0  0.61 0.06 0  0.62 0.06 0  0.63 0.06 0  0.64 0.06 0  0.65 0.06 0  0.66 0.06 0  0.67 0.06 0  0.68 0.06 0  0.6899999999999999 0.06 0  0.7 0.06 0  0.71 0.06 0  0.72 0.06 0  0.73 0.06 0  0.74 0.06 0  0.75 0.06 0  0.76 0.06 0  0.77 0.06 0  0.78 0.06 0  0.79 0.06 0  0.8 0.06 0  0.8100000000000001 0.06 0  0.82 0.06 0  0.83 0.06 0  0.84 0.06 0  0.85 0.06 0  0.86 0.06 0  0.87 0.06 0  0.88 0.06 0  0.89 0.06 0  0.9 0.06 0  0.91 0.06 0  0.92 0.06 0  0.93 0.06 0  0.9399999999999999 0.06 0  0.95 0.06 0  0.96 0.06 0  0.97 0.06 0  0.98 0.06 0  0.99 0.06 0  1 0.06 0  0 0.07000000000000001 0  0.01 0.07000000000000001 0  0.02 0.07000000000000001 0  0.03 0.07000000000000001 0  0.04 0.07000000000000001 0  0.05 0.07000000000000001 0  0.06 0.07000000000000001 0  0.07000000000000001 0.07000000000000001 0  0.08 0.07000000000000001 0  0.09 0.07000000000000001 0  0.1 0.07000000000000001 0  0.11 0.07000000000000001 0  0.12 0.07000000000000001 0  0.13 0.07000000000000001 0  0.14 0.07000000000000001 0  0.15 0.07000000000000001 0  0.16 0.07000000000000001 0  0.17 0.0700
[...]
<PointData  Scalars="Indicator Function"> 
<DataArray  type="Float64"  Name="Indicator Function"  format="ascii">-5.2261504618219703e-19  8.2059125825005384e-19  3.4591461888865340e-17  1.5918226068853279e-18  8.5873513539837359e-17  -1.7600960019120597e-19  -6.6158576247274037e-19  4.3333681203340501e-17  1.8610792115311539e-16  -2.5567175874976632e-19  5.8858005924035634e-17  4.4176712742180579e-17  -3.5007020779554796e-19  -4.9185287199304283e-19  5.2622275445499394e-16  1.1555579666323415e-33  -1.6141662369125915e-18  4.4604372508760701e-16  -9.1870332019748130e-19  -1.3292388678802523e-18  1.0073700718059683e-15  -2.4650734963071525e-18  -9.1576651329505759e-19  4.4872559151458424e-17  -3.9002226292227961e-19  -1.0518145348629374e-18  -7.8146080921320142e-19  -1.5447690020686350e-18  1.1345032706762392e-15  -2.9973432414837707e-18  -4.3386567039681333e-18  -2.1693283519840678e-18  -2.1626786183009630e-18  -2.4100751461481961e-18  9.9913521097610057e-17  -1.2066800342391826e-18  -4.3656249226501709e-18  -6.6609975866795239e-18  -5.9494665057536910e-18  -7.2876504625517795e-18  5.5552598984275114e-16  -1.0551020531039407e-18  -1.8301706242435945e-18  -3.5039430639789191e-18  -2.4217441290192319e-18  -1.2108720645095805e-18  1.7738273959848522e-16  -1.2039139064553962e-18  -2.1801151158471714e-19  -7.6526478750571820e-19  -3.8263239375285919e-19  -8.2811888596728942e-19  -2.7862212335112749e-19  -1.1224758757810736e-18  -6.4628263753219851e-19  -1.6978814808468018e-19  3.3189466595042534e-17  -2.9066211197103026e-20  -4.7080458158952652e-20  -2.3613066224454819e-19  8.4259435066941569e-35  -7.7337691978290025e-20  -1.7074370038639924e-19  -8.0401550371403794e-20  -8.4965898388905062e-20  -1.4757255191280959e-19  -3.1703577585962774e-20  -3.7438454838731725e-20  4.2661709726741947e-17  -1.2682044392034137e-19  -8.8497838958003410e-21  -1.2037062152420224e-35  -3.4463428785141640e-22  -7.9574817591595331e-20  -2.1954957725172246e-19  -1.8288234395828069e-19  -5.6010656853271510e-20  -1.4941544469542786e-19  -1.1175379035899862e-19  -3.0298766015835273e-20  -3.3738323487737640e-20  5.2464124893833031e-17  -2.3136867779825508e-20  -1.6552319919129571e-19  -1.2078306011995422e-19  -6.9488666248741482e-20  -2.1064858766735392e-35  -2.9986535229764068e-20  -7.4748063315258950e-20  -1.6967220375472076e-20  -1.1125518954283389e-20  1.2037062152420224e-35  -3.1032464473456473e-20  4.1605650516878040e-17  -1.8083288444600582e-20  -6.2044948111844128e-21  -4.3063672940568965e-21  -1.0904955106781386e-21  -6.4581740161674421e-21  7.5231638452626401e-37  6.0185310762101120e-36  0.0000000000000000e+00  1.7977061434668137e-02  3.7634449563135393e-02  8.3095189746033565e-03  7.7277405487375297e-03  1.4307001310548090e-03  5.3323859071199558e-03  9.2518766198234782e-03  3.9743615100958377e-02  3.2284919845487342e-02  4.6057729497384113e-03  4.4357277954961465e-02  1.2612608459052340e-02  1.7720867288231204e-02  6.2194207718666442e-03  6.7370916762845776e-02  3.3500831210427962e-02  1.2327818247080354e-02  3.3099775444043307e-02  4.7890877360574485e-02  1.8561002335861210e-02  6.4134126876922826e-02  4.4406816317639104e-02  1.6496982912136218e-02  1.4052032943703812e-02  3.7895612378172759e-02  2.8155092873417786e-02  7.5615947225813112e-03  2.4047287047068371e-02  2.1780061471626703e-02  4.3105304885977781e-02  7.8158290861117558e-02  1.9038743163537961e-02  2.9439982896240443e-02  6.1104499700034363e-02  4.3698019418339444e-02  2.1737615010220000e-02  9.9206611392688063e-02  1.5648019517233575e-01  1.5809722063240289e-01  1.2205858701410190e-01  6.0140486365244772e-02  1.9007028852786986e-02  6.2071357426686818e-02  4.0182472504371784e-02  4.3626263828150789e-02  3.2392959779816557e-02  1.0022609299151879e-02  2.3160699149421971e-02  3.9273462493416497e-03  1.3785784847402055e-02  9.7592873956650148e-03  1.0038419927210511e-02  4.5155321142003341e-03  1.7962961686499884e-02  6.8504078281657992e-03  3.0586313617843885e-03  1.0472206233307589e-03  1.6962522705687311e-03  3.3332643535998329e-03  2.5871196731812652e-03  1.2678666883364831e-04  3.6646294901525422e-03  1.2435303166679168e-03  1.4483855691706570e-03  2.3779930376444623e-03  2.3655691874024123e-03  5.7112088080981402e-04  3.8887080463925625e-04  1.3129334339964641e-03  1.6281272989322089e-03  2.4178230298749849e-04  1.2416758802774362e-05  7.0798972040982187e-04  2.7112722520664756e-03  4.1975437582767961e-03  1.9143796437793767e-03  1.0089982933326807e-03  2.6365384158514166e-03  2.0637049968299627e-03  1.2155512086998706e-03  1.5819883153638824e-04  8.3359351289394074e-04  1.1491199561175431e-03  2.6301738820272802e-03  2.1228950714453263e-03  1.1355281197713198e-03  1.3980100594133621e-04  9.8467022220816874e-04  8.5420628926898110e-04  9.1590330860018442e-05  1.5462436663724686e-04  1.0152535861442401e-04  5.0826850244897054e-04  3.2209609176256533e-04  2.6713078236057912e-04  1.5515323312668091e-04  1.1295011735114153e-05  1.3794692176072749e-04  9.9065448400622826e-05  1.7108437493883144e-21  -1.0224293236718975e-18  4.0563398090788351e-03  7.5061203641499010e-03  1.8837267667996796e-03  9.7063417512149482e-03  3.4430762663464613e-02  3.4651122156517250e-03  3.1302797711430103e-02  3.8194318180475146e-03  1.1369300817449288e-02  3.7646913994908104e-02  3.2603588079012168e-02  2.5786066233299001e-02  7.1016294614461448e-02  6.6446766240752533e-02  4.9955778683876031e-02  4.4432921123503709e-03  8.2214928489986475e-02  1.9074357249969042e-02  1.6033734422602693e-02  2.6468751854880106e-02  4.4145019255976137e-02  3.1961005749302045e-02  3.5187172092645401e-02  2.3470031421334348e-02  2.6762812499526536e-03  3.7577373484147754e-02  4.6039348724385719e-02  6.2549905874073400e-02  1.7190000786457771e-02  7.3035708277751799e-02  5.5073671326654784e-02  5.4240008910963151e-02  4.5469642096205978e-02  6.0597521884961855e-02  6.4562214307036611e-02  3.0323892158546548e-03  7.5096493350858898e-02  1.4624858918924374e-01  1.6949756675295147e-01  1.8619162042868048e-01  1.0186161446726882e-01  1.1868983479497998e-02  3.3515354265223160e-02  7.2105609244287300e-02  1.3404889985471773e-02  1.0723519182062019e-02  9.6989242569553193e-03  2.3862382179475287e-02  7.9374461564412652e-03  1.9648081815641389e-02  4.6858481045528233e-03  1.0500218091607937e-02  7.9362854688813048e-03  2.0804696982965946e-02  1.2221054804536377e-02  6.7820145272825400e-04  1.0921129416471716e-03  5.8068458516066161e-04  1.1442999653108515e-03  6.3875179207584327e-03  1.5157798857041601e-03  3.0781352325227203e-03  3.7401606489053754e-03  1.5521348761396048e-03  1.6972369406012509e-03  3.4478568653309566e-03  5.9627661428905806e-04  1.1257746864671990e-03  9.2432990566298080e-04  2.0522083877650907e-03  7.7872725662728464e-04  3.4830111371319912e-05  7.6068596758948449e-06  1.9934622587571261e-03  4.3184617920308107e-03  3.7344490485302366e-03  8.3446325573471107e-06  2.3713663228001809e-03  2.6646003389586997e-03  1.6396959014809719e-03  8.1488489607446884e-04  1.2729591216620467e-03  2.2065595621425038e-04  2.5476650736578556e-03  2.5615541959423320e-03  1.9310513173818834e-03  8.3370891147266965e-05  7.8355714905505686e-04  1.1368958239574502e-03  2.6776795360166028e-04  3.8167191677855231e-04  1.0802867268353691e-04  7.6733233649014642e-04  1.7880403681955350e-04  5.5600855860327353e-04  1.9889536878975873e-04  8.9155791463196450e-05  1.2455013149047901e-04  2.3651989732414452e-04  5.9082713053029865e-20  7.7037197775489434e-34  2.7629181081586379e-02  8.8200205319962539e-03  5.0492891697376661e-02  2.2141026032250804e-02  2.9602413984626342e-03  3.8630117963465707e-03  3.7426975661642172e-03  1.2312091432634587e-02  6.1189068538781456e-02  8.9178150508463741e-02  4.8923657946141071e-02  5.8267555647437318e-02  2.9731544244821998e-02  8.3818220798847314e-03  3.4661359212423783e-02  1.2848076164062522e-01  2.5239271050618022e-03  1.9262943679581906e-02  5.0263703554263718e-02  9.0923369447388755e-02  6.9474912316958140e-02  1.3305618245577586e-01  1.2383009327335348e-01  7.3743146624255337e-02  3.6018846153090422e-02  6.3337662642633366e-02  6.4926049763726693e-02  2.3104110709001140e-02  4.5543918593688927e-02  3.9823556929545458e-02  6.9305313799019941e-02  1.4211482983507348e-01  7.0418777570896721e-02  1.0296141326010358e-02  7.7549405376686267e-02  5.3323710090976056e-02  3.7103007038589521e-02  1.2423666704640568e-01  1.8493021393604167e-01  1.6533241413120417e-01  1.3671799509246715e-01  7.2757173613372250e-02  3.9439969216815772e-02  7.2632636776012796e-02  3.9368250564462942e-02  8.2560164185449036e-02  8.6661386854981745e-02  5.0896664729727918e-02  5.1999465112348160e-02  2.4457115977804863e-02  3.1500947706589316e-02  2.4416981726751243e-02  7.2623901458249984e-03  7.8414049038873015e-03  2.3455083142440006e-02  1.6668100386154508e-03  5.0875331143999305e-03  5.0875196073929697e-03  4.6690640405395436e-03  5.3048905265051230e-03  2.6333978674382501e-03  1.6991912143037669e-03  6.1808792554377641e-03  3.8129972131754666e-05  2.2846272826178176e-03  2.1734509112679391e-03  3.0673756794789560e-03  1.5957908846235466e-03  4.5314916685141166e-05  2.0374639995217746e-03  1.7315124280391334e-03  2.1508214254827685e-04  3.6202299603679350e-04  7.1020314177183794e-04  3.4105907510510983e-03  4.9477158958830909e-03  1.3224551510865456e-03  1.4660993770467640e-03  2.9112955094028723e-03  1.8840751210053269e-03  1.2586563757755944e-03  3.3256149979105608e-04  1.2540458655205845e-03  1.8727755579409256e-03  3.0013463605955137e-03  1.8128397763587892e-03  1.2169408056156305e-03  2.4923728735888742e-04  1.5104508222777615e-03  7.0131688374227110e-04  5.1100719137258939e-04  1.0491364745364936e-04  3.3869246594931781e-05  9.8321887254513110e-04  2.2488204694469987e-04  4.3865411143499021e-04  2.4744472052623773e-04  4.4608766066736580e-05  1.0576499442553630e-04  -6.6203841838311232e-35  -2.9633650643092165e-19  8.0683573138738678e-03  1.0760413132414276e-02  2.2354115471698768e-02  3.6517430438177500e-03  6.4123320658087350e-03  3.2604931892335050e-02  3.1726410010908812e-02  3.9615613191126518e-02  1.0625864955156158e-02  1.2505476597243223e-02  2.1210964731191734e-02  5.1404963918261631e-02  7.0549770918423918e-02  7.2446808459596571e-02  1.2092701830035217e-01  8.7253031470537427e-03  1.0665878501599311e-02  1.0309097531814222e-01  4.8987479877658217e-02  4.9931427813165508e-02  6.3172141174456173e-02  1.6064668590795288e-02  1.0299332109444679e-02  1.9251500854477414e-02  2.4545688107025506e-02  9.3856732497473866e-03  7.5004193721411233e-02  8.9611141617077270e-02  9.3815683530461061e-02  3.3735866272456623e-02  8.4834991035164523e-02  7.6858632482085423e-02  8.1061227451923637e-02  9.9990476352171440e-02  4.5295341375439599e-02  6.3782331517561422e-02  5.5842404376125099e-04  7.8716148937782657e-02  1.5332936859085841e-01  1.8280033515819136e-01  1.9679849068586922e-01  8.5718646105664612e-02  2.1480949970678807e-02  2.4310796589967536e-02  8.5145379099420312e-02  2.6131113033621516e-02  3.2091875905029946e-02  4.4502586922018937e-02  4.3617750378207865e-03  4.7355014952411610e-03  1.8605600067088654e-02  1.7126095704888611e-03  1.7353805178056802e-02  7.2539168521819830e-03  2.7756194757548112e-02  1.0650309450575282e-02  4.9394257514130012e-03  1.0026196118602367e-03  3.4046792948536574e-03  4.1545799591218048e-03  9.2903208940298201e-03  3.9813433666405522e-03  3.4893489514890028e-03  5.0683207545433291e-03  3.3883366026833165e-03  1.4573638021788736e-03  3.6483767237275736e-03  4.6684619079637824e-04  1.7652753582254315e-03  1.6706287893650657e-03  2.4457147683818016e-03  5.2096073790763311e-04  2.2047887620130791e-04  5.1596744337100407e-04  2.0865323799831637e-03  4.7167287018447376e-03  3.8393965212578235e-03  8.6755979501957161e-04  2.5328099034905532e-03  2.5616837131275548e-03  1.3458599432561167e-03  8.9985292281864596e-04  1.7225975423763920e-03  3.0636916523477673e-04  3.0861881589245954e-03  2.4161506081139396e-03  1.5976844270645712e-03  1.9364271295053918e-04  8.3088095084795212e-04  1.3985676712661903e-03  5.2422538682006466e-06  6.8065527173300031e-04  2.6630074176270656e-04  9.5483968206405722e-04  2.4187996557022067e-04  7.3379137639214556e-04  2.6819592211831437e-04  2.3834008553832585e-04  2.8262519400210939e-05  -1.3496926752737253e-20  -1.6561443362889931e-18  5.0487551472364146e-02  4.5381406709972739e-02  5.8104339167701826e-03  5.4895070321652577e-02  4.9647722359750138e-02  7.4613632872169884e-03  2.0826097474190897e-02  4.8998497640493034e-03  3.4164693799787337e-02  5.9018496633434753e-02  1.0009897831613870e-01  9.2262432522962207e-02  2.6860173997330688e-02  3.5911845607675151e-02  3.3647736990977305e-02  8.7999087949466696e-03  1.4907257192931991e-01  3.1693755244079885e-02  4.5078102591004802e-02  3.2460774369562038e-02  8.8477776903594943e-02  7.7915850347960516e-02  1.5570604640899555e-01  1.6368411453932466e-01  1.1888865998721364e-01  5.9052993818375983e-02  6.1438187846472272e-02  6.3741802569524789e-02  1.7418564490785736e-02  7.7998293862603679e-02  6.9758601718424837e-02  9.1487795844906697e-02  1.8880273474379933e-01  7.9627980460913128e-02  2.1564249101570260e-02  8.7816291343661965e-02  5.7405581731152483e-02  5.3082194496516112e-02  1.3751634225935855e-01  1.8990899785140603e-01  1.6456561899089198e-01  1.5605131155744648e-01  7.0330287612256001e-02  6.4990737666474604e-02  6.7401587036123076e-02  3.9759274745852356e-02  1.0237793149613787e-01  1.0503455576475187e-01  6.1140678573357109e-02  6.4274842114279668e-02  3.9666204816650737e-02  4.3792404679418681e-02  3.3393866387338024e-02  6.4195950083465849e-03  7.9992143611957740e-03  2.9287264690088948e-02  2.9224587105834898e-03  7.2901324598237368e-03  7.2968443469586574e-03  5.0035706805263763e-03  4.6135968255205531e-03  4.2005570742822693e-03  4.2923361819568488e-03  7.8793127683076791e-03  1.0739402186941249e-04  3.5647497688126389e-03  1.6788452312015553e-03  3.6371241565441160e-03  2.1649035099413571e-03  7.3361289273528367e-05  2.7389396959413888e-03  1.8836825916122733e-03  5.6441954790168011e-04  5.2208156870134944e-04  3.4757861335051737e-04  3.6621132169681893e-03  5.2506845664261987e-03  9.9266059925276029e-04  2.0326331021248037e-03  3.0115434984483392e-03  1.7180096662163084e-03  1.2069445700872972e-03  2.2293867330067078e-04  1.6632451711636289e-03  2.3255162900960198e-03  3.3211020167544032e-03  1.5477902851069665e-03  1.1900963679902425e-03  6.3891026374037483e-04  1.8505949469279860e-03  6.8734699455058601e-04  7.9143137059902986e-04  1.2022414565791228e-04  9.8126138008930824e-05  1.3602961201869548e-03  6.1160062375998888e-05  6.7058285429578469e-04  3.3487347274450805e-04  1.8323132681070660e-04  0.0000000000000000e+00  -2.3054171626386138e-20  2.9834444063131481e-02  4.3234218582096770e-03  1.1892391926892116e-02  4.3725378244071147e-02  2.7716439217346164e-02  9.2180697210800461e-04  2.1371430142882928e-02  4.1398769598955817e-02  3.2911743544198624e-02  8.0613770685383085e-03  2.7188159516728601e-02  1.2724827144282304e-02  1.5790429245723818e-02  9.2837846606192917e-02  3.9465345962391603e-02  1.2353845307631996e-01  1.8434133073069923e-02  4.0094557838775684e-02  8.5590291031152912e-02  4.5280937423314557e-02  5.5562755557962605e-02  8.8004026554470330e-02  1.0839813643488985e-02  2.3311538803338052e-02  2.7545374642242691e-02  6.1761630425741440e-03  1.5097302765532030e-02  9.2783964884246464e-02  1.1996200393046096e-01  1.0355631924191747e-01  2.2210579056700930e-02  9.5809566125467607e-02  7.5349260379459077e-02  1.0672900954364443e-01  1.4073856101833412e-01  2.7952384178154609e-02  6.5018362991303078e-02  3.2299098632374052e-03  8.8205559014472718e-02  1.7011751974801737e-01  1.9963997235746511e-01  1.9449718164268048e-01  8.2169900750339281e-02  1.7636863460682557e-02  3.3734155423363478e-02  9.2477377674469188e-02  3.3311927044232019e-02  5.1474412141887901e-02  7.9270996069665589e-02  2.1351356360695874e-02  1.1147977807413509e-02  5.9146562074323750e-03  9.0721284407807284e-03  2.7814984566528107e-02  3.8390924292107179e-03  3.0865990164626211e-02  1.2074742157683048e-02  9.7957660501278871e-03  1.5861953626761743e-03  6.4004955801396533e-03  6.3587805233624806e-03  1.0532051598965664e-02  4.3903887901466663e-03  2.3310015318676542e-03  6.5929953175156908e-03  4.6013950920397399e-03  1.9349347235448307e-03  3.3593549857837439e-03  8.1278618104166996e-04  2.3222795658442946e-03  2.2113155268196137e-03  2.9604028612932923e-03  4.6559604721224332e-04  4.8481200361587669e-04  8.7792587092192247e-04  2.0045475476685964e-03  5.0322619435411555e-03  3.8998025002415942e-03  1.5938689743942986e-03  2.8390868270432232e-03  2.5637978064939849e-03  1.1594472473818527e-03  9.6621239940351594e-04  1.7309200565001125e-03  2.3211701353788661e-04  3.6990886461088558e-03  2.5062143097699194e-03  1.2872947655744131e-03  7.5416330928778275e-05  6.9917563187722048e-04  1.7719957152162091e-03  1.8796239118577668e-04  9.5853758498727691e-04  3.7802181865556774e-04  8.6380419719974246e-04  5.1693602786528979e-04  6.3534125817219184e-04  3.7546428138605659e-04  3.0229259499701451e-04  -1.6780609956968658e-20  -5.6152899668916460e-19  4.1530703498372876e-04  2.0296803228637261e-02  1.2112625802282510e-02  3.3921614296137798e-02  3.6190075871045932e-02  5.6757844895363167e-02  1.6121164855783898e-03  3.7815109695042391e-02  1.8704725583871887e-02  4.4019884926355154e-02  4.7538107510400343e-02  8.2427529859512752e-02  8.0048965441962050e-02  1.1072722030431243e-02  6.3159491034428918e-03  4.0995984068091677e-02  2.5180173375566797e-02  1.2942973803287064e-01  2.4881909933538310e-02  4.7005936309604715e-02  1.6086583939709968e-02  6.7864762040729804e-02  5.1465038927456561e-02  1.3509556406912515e-01  1.4432438195731789e-01  1.0791480042762734e-01  5.6933554748182132e-02  5.1224923750979819e-02  4.2964375326897557e-02  3.2266930771630408e-03  9.6734882763917979e-02  9.3779830045316814e-02  9.6496819175445003e-02  2.1197272146403481e-01  6.3721066667432866e-02  6.2697466695079820e-02  8.4543930243252810e-02  5.3845114540162317e-02  6.7504915863435030e-02  1.5007561802022956e-01  1.9593905144340987e-01  1.7699961812625789e-01  1.6720564029546714e-01  5.7686906913699161e-02  7.7071054481630638e-02  6.5223564272339732e-02  3.8971131868331156e-02  1.0922974239456799e-01  9.6727270503532373e-02  3.5523912777678253e-02  4.7349015527672060e-02  3.2999943508635006e-02  4.0774073796220847e-02  3.0511393936176263e-02  1.1697427757650728e-02  1.0551601315587786e-02  3.3811596943737990e-02  4.8555135638861024e-03  1.0525021189968580e-02  7.5366086648247970e-03  2.7007427516834840e-03  2.4248358602099668e-03  5.9192417083966187e-03  5.9364911439692978e-03  8.1579547879028162e-03  6.0190400598380590e-04  5.0370354872386440e-03  1.6264572337585728e-03  3.6925466155538884e-03  2.1665794659733234e-03  1.9609376833159742e-04  3.4439263930501197e-03  2.1531021128840247e-03  7.2069129851133303e-04  4.2831731119388614e-04  4.3322368549855459e-05  3.7918578406230608e-03  5.4477864799728892e-03  8.2449227999848210e-04  2.8579542776822242e-03  3.1967307134925576e-03  1.6945553174206264e-03  1.1022416196586843e-03  9.0436252121341233e-05  1.7693889672680595e-03  2.5651117295751326e-03  3.8098107900380825e-03  1.5085218663774260e-03  9.3644547226141123e-04  6.1040963796632648e-04  2.0333226727310407e-03  9.7754407718958470e-04  9.1856145071660513e-04  2.1612330716411880e-04  1.7974528911413130e-04  1.4189973831197473e-03  9.9645979029596853e-05  7.0631157298138548e-04  3.2352129606148913e-04  -4.4897598980504736e-20  -3.4624026419076907e-19  1.2145769502138380e-02  9.2394221830645155e-03  1.3086868020595189e-02  1.8632156146594490e-02  2.0550381563359674e-02  4.9849759060225228e-02  3.1099173082583470e-03  9.1810233978677873e-03  3.3921767914788327e-02  2.7549759458838276e-02  1.5752894438724717e-03  1.4777268139374159e-02  1.3199818954692206e-02  1.5295479144886973e-02  7.4295416355119437e-02  2.6636942902666154e-02  1