<?xml version="1.0"?>
<VTKFile type="UnstructuredGrid"  version="0.1"  >
<UnstructuredGrid>
<Piece  NumberOfPoints="10201" NumberOfCells="20000">
<Points>
<DataArray  type="Float64"  NumberOfComponents="3"  format="ascii">0 0 0  0.01 0 0  0.02 0 0  0.03 0 0  0.04 0 0  0.05 0 0  0.06 0 0  0.07000000000000001 0 0  0.08 0 0  0.09 0 0  0.1 0 0  0.11 0 0  0.12 0 0  0.13 0 0  0.14 0 0  0.15 0 0  0.16 0 0  0.17 0 0  0.18 0 0  0.19 0 0  0.2 0 0  0.21 0 0  0.22 0 0  0.23 0 0  0.24 0 0  0.25 0 0  0.26 0 0  0.27 0 0  0.28 0 0  0.29 0 0  0.3 0 0  0.31 0 0  0.32 0 0  0.33 0 0  0.34 0 0  0.35 0 0  0.36 0 0  0.37 0 0  0.38 0 0  0.39 0 0  0.4 0 0  0.41 0 0  0.42 0 0  0.43 0 0  0.44 0 0  0.45 0 0  0.46 0 0  0.47 0 0  0.48 0 0  0.49 0 0  0.5 0 0  0.51 0 0  0.52 0 0  0.53 0 0  0.54 0 0  0.55 0 0  0.5600000000000001 0 0  0.57 0 0  0.58 0 0  0.59 0 0  0.6 0 0  0.61 0 0  0.62 0 0  0.63 0 0  0.64 0 0  0.65 0 0  0.66 0 0  0.67 0 0  0.68 0 0  0.6899999999999999 0 0  0.7 0 0  0.71 0 0  0.72 0 0  0.73 0 0  0.74 0 0  0.75 0 0  0.76 0 0  0.77 0 0  0.78 0 0  0.79 0 0  0.8 0 0  0.8100000000000001 0 0  0.82 0 0  0.83 0 0  0.84 0 0  0.85 0 0  0.86 0 0  0.87 0 0  0.88 0 0  0.89 0 0  0.9 0 0  0.91 0 0  0.92 0 0  0.93 0 0  0.9399999999999999 0 0  0.95 0 0  0.96 0 0  0.97 0 0  0.98 0 0  0.99 0 0  1 0 0  0 0.01 0  0.01 0.01 0  0.02 0.01 0  0.03 0.01 0  0.04 0.01 0  0.05 0.01 0  0.06 0.01 0  0.07000000000000001 0.01 0  0.08 0.01 0  0.09 0.01 0  0.1 0.01 0  0.11 0.01 0  0.12 0.01 0  0.13 0.01 0  0.14 0.01 0  0.15 0.01 0  0.16 0.01 0  0.17 0.01 0  0.18 0.01 0  0.19 0.01 0  0.2 0.01 0  0.21 0.01 0  0.22 0.01 0  0.23 0.01 0  0.24 0.01 0  0.25 0.01 0  0.26 0.01 0  0.27 0.01 0  0.28 0.01 0  0.29 0.01 0  0.3 0.01 0  0.31 0.01 0  0.32 0.01 0  0.33 0.01 0  0.34 0.01 0  0.35 0.01 0  0.36 0.01 0  0.37 0.01 0  0.38 0.01 0  0.39 0.01 0  0.4 0.01 0  0.41 0.01 0  0.42 0.01 0  0.43 0.01 0  0.44 0.01 0  0.45 0.01 0  0.46 0.01 0  0.47 0.01 0  0.48 0.01 0  0.49 0.01 0  0.5 0.01 0  0.51 0.01 0  0.52 0.01 0  0.53 0.01 0  0.54 0.01 0  0.55 0.01 0  0.5600000000000001 0.01 0  0.57 0.01 0  0.58 0.01 0  0.59 0.01 0  0.6 0.01 0  0.61 0.01 0  0.62 0.01 0  0.63 0.01 0  0.64 0.01 0  0.65 0.01 0  0.66 0.01 0  0.67 0.01 0  0.68 0.01 0  0.6899999999999999 0.01 0  0.7 0.01 0  0.71 0.01 0  0.72 0.01 0  0.73 0.01 0  0.74 0.01 0  0.75 0.01 0  0.76 0.01 0  0.77 0.01 0  0.78 0.01 0  0.79 0.01 0  0.8 0.01 0  0.8100000000000001 0.01 0  0.82 0.01 0  0.83 0.01 0  0.84 0.01 0  0.85 0.01 0  0.86 0.01 0  0.87 0.01 0  0.88 0.01 0  0.89 0.01 0  0.9 0.01 0  0.91 0.01 0  0.92 0.01 0  0.93 0.01 0  0.9399999999999999 0.01 0  0.95 0.01 0  0.96 0.01 0  0.97 0.01 0  0.98 0.01 0  0.99 0.01 0  1 0.01 0  0 0.02 0  0.01 0.02 0  0.02 0.02 0  0.03 0.02 0  0.04 0.02 0  0.05 0.02 0  0.06 0.02 0  0.07000000000000001 0.02 0  0.08 0.02 0  0.09 0.02 0  0.1 0.02 0  0.11 0.02 0  0.12 0.02 0  0.13 0.02 0  0.14 0.02 0  0.15 0.02 0  0.16 0.02 0  0.17 0.02 0  0.18 0.02 0  0.19 0.02 0  0.2 0.02 0  0.21 0.02 0  0.22 0.02 0  0.23 0.02 0  0.24 0.02 0  0.25 0.02 0  0.26 0.02 0  0.27 0.02 0  0.28 0.02 0  0.29 0.02 0  0.3 0.02 0  0.31 0.02 0  0.32 0.02 0  0.33 0.02 0  0.34 0.02 0  0.35 0.02 0  0.36 0.02 0  0.37 0.02 0  0.38 0.02 0  0.39 0.02 0  0.4 0.02 0  0.41 0.02 0  0.42 0.02 0  0.43 0.02 0  0.44 0.02 0  0.45 0.02 0  0.46 0.02 0  0.47 0.02 0  0.48 0.02 0  0.49 0.02 0  0.5 0.02 0  0.51 0.02 0  0.52 0.02 0  0.53 0.02 0  0.54 0.02 0  0.55 0.02 0  0.5600000000000001 0.02 0  0.57 0.02 0  0.58 0.02 0  0.59 0.02 0  0.6 0.02 0  0.61 0.02 0  0.62 0.02 0  0.63 0.02 0  0.64 0.02 0  0.65 0.02 0  0.66 0.02 0  0.67 0.02 0  0.68 0.02 0  0.6899999999999999 0.02 0  0.7 0.02 0  0.71 0.02 0  0.72 0.02 0  0.73 0.02 0  0.74 0.02 0  0.75 0.02 0  0.76 0.02 0  0.77 0.02 0  0.78 0.02 0  0.79 0.02 0  0.8 0.02 0  0.8100000000000001 0.02 0  0.82 0.02 0  0.83 0.02 0  0.84 0.02 0  0.85 0.02 0  0.86 0.02 0  0.87 0.02 0  0.88 0.02 0  0.89 0.02 0  0.9 0.02 0  0.91 0.02 0  0.92 0.02 0  0.93 0.02 0  0.9399999999999999 0.02 0  0.95 0.02 0  0.96 0.02 0  0.97 0.02 0  0.98 0.02 0  0.99 0.02 0  1 0.02 0  0 0.03 0  0.01 0.03 0  0.02 0.03 0  0.03 0.03 0  0.04 0.03 0  0.05 0.03 0  0.06 0.03 0  0.07000000000000001 0.03 0  0.08 0.03 0  0.09 0.03 0  0.1 0.03 0  0.11 0.03 0  0.12 0.03 0  0.13 0.03 0  0.14 0.03 0  0.15 0.03 0  0.16 0.03 0  0.17 0.03 0  0.18 0.03 0  0.19 0.03 0  0.2 0.03 0  0.21 0.03 0  0.22 0.03 0  0.23 0.03 0  0.24 0.03 0  0.25 0.03 0  0.26 0.03 0  0.27 0.03 0  0.28 0.03 0  0.29 0.03 0  0.3 0.03 0  0.31 0.03 0  0.32 0.03 0  0.33 0.03 0  0.34 0.03 0  0.35 0.03 0  0.36 0.03 0  0.37 0.03 0  0.38 0.03 0  0.39 0.03 0  0.4 0.03 0  0.41 0.03 0  0.42 0.03 0  0.43 0.03 0  0.44 0.03 0  0.45 0.03 0  0.46 0.03 0  0.47 0.03 0  0.48 0.03 0  0.49 0.03 0  0.5 0.03 0  0.51 0.03 0  0.52 0.03 0  0.53 0.03 0  0.54 0.03 0  0.55 0.03 0  0.5600000000000001 0.03 0  0.57 0.03 0  0.58 0.03 0  0.59 0.03 0  0.6 0.03 0  0.61 0.03 0  0.62 0.03 0  0.63 0.03 0  0.64 0.03 0  0.65 0.03 0  0.66 0.03 0  0.67 0.03 0  0.68 0.03 0  0.6899999999999999 0.03 0  0.7 0.03 0  0.71 0.03 0  0.72 0.03 0  0.73 0.03 0  0.74 0.03 0  0.75 0.03 0  0.76 0.03 0  0.77 0.03 0  0.78 0.03 0  0.79 0.03 0  0.8 0.03 0  0.8100000000000001 0.03 0  0.82 0.03 0  0.83 0.03 0  0.84 0.03 0  0.85 0.03 0  0.86 0.03 0  0.87 0.03 0  0.88 0.03 0  0.89 0.03 0  0.9 0.03 0  0.91 0.03 0  0.92 0.03 0  0.93 0.03 0  0.9399999999999999 0.03 0  0.95 0.03 0  0.96 0.03 0  0.97 0.03 0  0.98 0.03 0  0.99 0.03 0  1 0.03 0  0 0.04 0  0.01 0.04 0  0.02 0.04 0  0.03 0.04 0  0.04 0.04 0  0.05 0.04 0  0.06 0.04 0  0.07000000000000001 0.04 0  0.08 0.04 0  0.09 0.04 0  0.1 0.04 0  0.11 0.04 0  0.12 0.04 0  0.13 0.04 0  0.14 0.04 0  0.15 0.04 0  0.16 0.04 0  0.17 0.04 0  0.18 0.04 0  0.19 0.04 0  0.2 0.04 0  0.21 0.04 0  0.22 0.04 0  0.23 0.04 0  0.24 0.04 0  0.25 0.04 0  0.26 0.04 0  0.27 0.04 0  0.28 0.04 0  0.29 0.04 0  0.3 0.04 0  0.31 0.04 0  0.32 0.04 0  0.33 0.04 0  0.34 0.04 0  0.35 0.04 0  0.36 0.04 0  0.37 0.04 0  0.38 0.04 0  0.39 0.04 0  0.4 0.04 0  0.41 0.04 0  0.42 0.04 0  0.43 0.04 0  0.44 0.04 0  0.45 0.04 0  0.46 0.04 0  0.47 0.04 0  0.48 0.04 0  0.49 0.04 0  0.5 0.04 0  0.51 0.04 0  0.52 0.04 0  0.53 0.04 0  0.54 0.04 0  0.55 0.04 0  0.5600000000000001 0.04 0  0.57 0.04 0  0.58 0.04 0  0.59 0.04 0  0.6 0.04 0  0.61 0.04 0  0.62 0.04 0  0.63 0.04 0  0.64 0.04 0  0.65 0.04 0  0.66 0.04 0  0.67 0.04 0  0.68 0.04 0  0.6899999999999999 0.04 0  0.7 0.04 0  0.71 0.04 0  0.72 0.04 0  0.73 0.04 0  0.74 0.04 0  0.75 0.04 0  0.76 0.04 0  0.77 0.04 0  0.78 0.04 0  0.79 0.04 0  0.8 0.04 0  0.8100000000000001 0.04 0  0.82 0.04 0  0.83 0.04 0  0.84 0.04 0  0.85 0.04 0  0.86 0.04 0  0.87 0.04 0  0.88 0.04 0  0.89 0.04 0  0.9 0.04 0  0.91 0.04 0  0.92 0.04 0  0.93 0.04 0  0.9399999999999999 0.04 0  0.95 0.04 0  0.96 0.04 0  0.97 0.04 0  0.98 0.04 0  0.99 0.04 0  1 0.04 0  0 0.05 0  0.01 0.05 0  0.02 0.05 0  0.03 0.05 0  0.04 0.05 0  0.05 0.05 0  0.06 0.05 0  0.07000000000000001 0.05 0  0.08 0.05 0  0.09 0.05 0  0.1 0.05 0  0.11 0.05 0  0.12 0.05 0  0.13 0.05 0  0.14 0.05 0  0.15 0.05 0  0.16 0.05 0  0.17 0.05 0  0.18 0.05 0  0.19 0.05 0  0.2 0.05 0  0.21 0.05 0  0.22 0.05 0  0.23 0.05 0  0.24 0.05 0  0.25 0.05 0  0.26 0.05 0  0.27 0.05 0  0.28 0.05 0  0.29 0.05 0  0.3 0.05 0  0.31 0.05 0  0.32 0.05 0  0.33 0.05 0  0.34 0.05 0  0.35 0.05 0  0.36 0.05 0  0.37 0.05 0  0.38 0.05 0  0.39 0.05 0  0.4 0.05 0  0.41 0.05 0  0.42 0.05 0  0.43 0.05 0  0.44 0.05 0  0.45 0.05 0  0.46 0.05 0  0.47 0.05 0  0.48 0.05 0  0.49 0.05 0  0.5 0.05 0  0.51 0.05 0  0.52 0.05 0  0.53 0.05 0  0.54 0.05 0  0.55 0.05 0  0.5600000000000001 0.05 0  0.57 0.05 0  0.58 0.05 0  0.59 0.05 0  0.6 0.05 0  0.61 0.05 0  0.62 0.05 0  0.63 0.05 0  0.64 0.05 0  0.65 0.05 0  0.66 0.05 0  0.67 0.05 0  0.68 0.05 0  0.6899999999999999 0.05 0  0.7 0.05 0  0.71 0.05 0  0.72 0.05 0  0.73 0.05 0  0.74 0.05 0  0.75 0.05 0  0.76 0.05 0  0.77 0.05 0  0.78 0.05 0  0.79 0.05 0  0.8 0.05 0  0.8100000000000001 0.05 0  0.82 0.05 0  0.83 0.05 0  0.84 0.05 0  0.85 0.05 0  0.86 0.05 0  0.87 0.05 0  0.88 0.05 0  0.89 0.05 0  0.9 0.05 0  0.91 0.05 0  0.92 0.05 0  0.93 0.05 0  0.9399999999999999 0.05 0  0.95 0.05 0  0.96 0.05 0  0.97 0.05 0  0.98 0.05 0  0.99 0.05 0  1 0.05 0  0 0.06 0  0.01 0.06 0  0.02 0.06 0  0.03 0.06 0  0.04 0.06 0  0.05 0.06 0  0.06 0.06 0  0.07000000000000001 0.06 0  0.08 0.06 0  0.09 0.06 0  0.1 0.06 0  0.11 0.06 0  0.12 0.06 0  0.13 0.06 0  0.14 0.06 0  0.15 0.06 0  0.16 0.06 0  0.17 0.06 0  0.18 0.06 0  0.19 0.06 0  0.2 0.06 0  0.21 0.06 0  0.22 0.06 0  0.23 0.06 0  0.24 0.06 0  0.25 0.06 0  0.26 0.06 0  0.27 0.06 0  0.28 0.06 0  0.29 0.06 0  0.3 0.06 0  0.31 0.06 0  0.32 0.06 0  0.33 0.06 0  0.34 0.06 0  0.35 0.06 0  0.36 0.06 0  0.37 0.06 0  0.38 0.06 0  0.39 0.06 0  0.4 0.06 0  0.41 0.06 0  0.42 0.06 0  0.43 0.06 0  0.44 0.06 0  0.45 0.06 0  0.46 0.06 0  0.47 0.06 0  0.48 0.06 0  0.49 0.06 0  0.5 0.06 0  0.51 0.06 0  0.52 0.06 0  0.53 0.06 0  0.54 0.06 0  0.55 0.06 0  0.5600000000000001 0.06 0  0.57 0.06 0  0.58 0.06 0  0.59 0.06 0  0.6 0.06 0  0.61 0.06 0  0.62 0.06 0  0.63 0.06 0  0.64 0.06 0  0.65 0.06 0  0.66 0.06 0  0.67 0.06 0  0.68 0.06 0  0.6899999999999999 0.06 0  0.7 0.06 0  0.71 0.06 0  0.72 0.06 0  0.73 0.06 0  0.74 0.06 0  0.75 0.06 0  0.76 0.06 0  0.77 0.06 0  0.78 0.06 0  0.79 0.06 0  0.8 0.06 0  0.8100000000000001 0.06 0  0.82 0.06 0  0.83 0.06 0  0.84 0.06 0  0.85 0.06 0  0.86 0.06 0  0.87 0.06 0  0.88 0.06 0  0.89 0.06 0  0.9 0.06 0  0.91 0.06 0  0.92 0.06 0  0.93 0.06 0  0.9399999999999999 0.06 0  0.95 0.06 0  0.96 0.06 0  0.97 0.06 0  0.98 0.06 0  0.99 0.06 0  1 0.06 0  0 0.07000000000000001 0  0.01 0.07000000000000001 0  0.02 0.07000000000000001 0  0.03 0.07000000000000001 0  0.04 0.07000000000000001 0  0.05 0.07000000000000001 0  0.06 0.07000000000000001 0  0.07000000000000001 0.07000000000000001 0  0.08 0.07000000000000001 0  0.09 0.07000000000000001 0  0.1 0.07000000000000001 0  0.11 0.07000000000000001 0  0.12 0.07000000000000001 0  0.13 0.07000000000000001 0  0.14 0.07000000000000001 0  0.15 0.07000000000000001 0  0.16 0.07000000000000001 0  0.17 0.0700
[...]
<PointData  Scalars="Indicator Function"> 
<DataArray  type="Float64"  Name="Indicator Function"  format="ascii">-7.5104620062298444e-19  3.8555420008566971e-17  1.2247785458910749e-16  2.4709598579959868e-18  4.1532158423615154e-17  -1.6086387604869530e-18  -8.5648711170404821e-19  9.2654196725092992e-17  8.8649004466569054e-16  -1.3921771423039176e-18  3.0059712599411099e-16  6.6107633433194136e-16  -4.0395122484926167e-20  -3.6874644546568254e-18  2.7347484888470594e-16  -7.5105644331707458e-18  -7.7511446400216530e-18  6.2550667364234976e-16  -3.4069940470590265e-18  -4.5270218994337383e-18  2.1777932127211801e-15  -3.4756105596182142e-18  -2.4469846037118587e-18  1.7339120233764754e-15  -1.6175094897856923e-18  -3.0358314381740863e-18  -2.0168406475784879e-18  -8.6713447533906834e-19  1.3274644628456896e-15  -5.0011745654513652e-19  -1.9235122774724389e-18  -1.9627028971261404e-18  -2.1924090413310720e-18  -2.9684740869331012e-18  -9.2109307040421207e-17  -1.9110676419879728e-18  -3.9766152520635961e-18  -1.1548103414280362e-17  -1.4063288445394658e-17  -9.7525041069097370e-18  2.0669533864229445e-15  -1.3735774664214876e-33  -2.5320964013381430e-18  -3.6709613045712296e-18  -1.2024565519510788e-18  -1.8986632740860651e-18  3.3515157065721762e-16  -1.6804345541147969e-18  -1.6005585582582736e-18  -7.9987930413372437e-19  -6.7814556092473594e-19  -3.2691388316241893e-19  -4.2017094478802250e-19  -1.3003363792151689e-18  -4.1961681257920776e-19  -1.4192856963603141e-18  4.4346188820634987e-16  -7.1975634240041672e-19  -7.6809359632281744e-19  -9.5215238960626943e-19  -8.3957835079421579e-20  -1.0132402089928736e-18  -3.7411845357143568e-19  -8.8051682891995648e-21  -6.9021581006186925e-20  -2.8766480016768422e-19  -1.2233467396255997e-19  -7.4435883180988367e-20  2.6135141431800004e-17  -3.4178074237986673e-19  -9.2993948141106003e-20  -1.4795665403157568e-19  -4.5023056779082111e-20  -1.0082273210463711e-18  -1.1085048391457606e-18  -5.2157221434281960e-19  -8.6505770697784288e-20  -2.9532322883817431e-19  -3.1063977143693577e-19  -3.0109047355840060e-19  -1.0820614578122774e-19  3.6192859548609491e-16  -1.6722827645890623e-19  -6.4684814701316106e-19  -5.3168969630465130e-19  -3.8466852890660497e-19  1.0731073956417872e-35  -2.5732443013385581e-19  -2.5711402601148557e-19  -5.7595690342851935e-20  -5.0044921768714950e-21  -1.7159522012577376e-20  -8.2285666687859888e-20  1.6260093189771057e-16  -5.3848885354125762e-20  -3.0761638636180711e-20  -7.1484202474340961e-21  -1.6551024906459784e-20  -1.0415939594041654e-20  -1.3413842445522340e-36  2.1462147912835744e-35  1.3735774664214876e-33  1.3529645557054838e-02  8.5380794013341491e-02  2.4976201063817260e-02  4.3924261426129207e-02  5.0164313046441908e-02  2.8978659689211105e-02  1.5429100148471830e-02  8.1662277596000768e-02  8.9265664695560951e-02  2.5079233837254314e-02  1.2878353269335430e-01  1.4553876685656057e-03  1.3285490835147409e-01  3.2285696332449492e-03  1.0893062569496856e-01  1.0272721751828073e-01  8.8268599690845315e-02  1.2274989696630820e-01  1.6310315311510090e-01  7.4944087217020935e-02  1.2522206736945232e-01  8.8161911595665637e-02  3.2906475533176259e-03  1.1284603422192035e-02  1.0937735466976357e-01  7.2664342311201155e-02  3.1241812000136565e-02  1.8468476107077660e-02  1.8018630327505263e-02  1.0763596930161508e-03  7.0713824289090219e-02  7.8989860332658576e-02  1.5964012497389792e-03  5.3475275167084016e-02  6.8853468162694748e-02  1.3432880796991006e-02  6.4919891471062266e-02  1.7557219119802484e-01  1.6555558681012034e-01  9.2907702042171872e-02  5.0541620366564677e-02  1.2189425829759043e-03  4.5614193638130546e-02  4.3323063034368697e-02  6.8406553709410997e-02  6.1923630306642823e-02  2.5514318021094509e-02  3.0272017726927621e-02  1.3697090842762660e-02  7.5607991227707120e-03  1.2216384381934387e-02  1.5138253683033979e-02  4.6849555463117872e-02  1.5118288966160930e-02  2.4135069651005168e-02  4.0571988843155597e-02  2.5931955163456536e-02  2.7673488273480838e-02  3.4304905176245772e-02  3.0248997982281318e-03  9.5477501717089724e-03  1.3479037824773946e-02  3.1723962100938994e-04  2.4867645319998875e-03  1.5490744215859106e-03  4.4075711365782070e-03  2.6818353260549235e-03  3.6281112132321987e-03  6.0527733926266925e-03  3.1305877997841692e-03  2.2531317535986737e-03  1.6221265738668386e-03  6.4207473392006763e-03  1.4952235079876424e-02  1.2492930382122739e-02  3.1493445295831357e-03  1.5583494267197547e-03  4.5408956200379356e-03  3.3255408255403892e-03  3.8985372625564970e-03  1.5369049582115225e-03  1.2737370830300529e-04  7.2058987836740593e-03  8.0496309035780408e-03  5.5532546208284161e-03  4.1529448633655644e-03  2.1777517683293501e-03  5.1133021808370044e-03  2.0751034365297156e-03  1.8030583282349690e-04  6.1823693553359480e-04  4.2742486850420202e-04  1.2686143570813900e-03  7.5369681973813066e-04  5.9320687019156376e-04  2.5754898210105518e-04  1.1161890530581071e-04  2.4234730575242293e-04  6.6463233821546872e-05  1.8447253119931523e-21  -3.3408566593971977e-20  1.5895275023483490e-02  3.1281654126393756e-02  6.4282734164695654e-02  2.1403174420523082e-02  7.7910651024647254e-02  3.7298307005709658e-02  1.1605880840600494e-01  2.9643495525365419e-03  1.1862248553529048e-01  2.0794355993150640e-01  5.7360784349384859e-02  7.7970398122149176e-02  2.3066764643465834e-01  1.8341648373285507e-01  2.7139464216848097e-01  1.9419391342985242e-02  1.7255320328658599e-01  1.7646330976774521e-02  1.0620097558743542e-01  4.0225491234444711e-03  2.0856123366823121e-01  9.7323878629225674e-02  7.9768780384593729e-02  1.3128202639406686e-01  3.5704889149478516e-02  2.2806994342315239e-02  7.2896495200576047e-02  2.9202239466663858e-02  3.7298448846255126e-02  1.4866340635445471e-01  9.4677758003348850e-02  8.9064246439385847e-02  8.6154528640095929e-02  1.4257135111125444e-01  3.2532800792269782e-03  6.4206303488324512e-02  1.1815376066780857e-01  1.6429185854440270e-01  1.7163726184101408e-01  2.5615965116960343e-01  8.5151587914450308e-02  4.7851540818497872e-02  1.1309020338790655e-02  1.8971295486145904e-02  7.6042815782345593e-03  3.5612693624748329e-03  2.7988511244741521e-03  3.5390441254363331e-02  5.7726731982110108e-03  4.8221493897325940e-02  5.3758258121204328e-02  2.4160709255226773e-02  1.3404287031080842e-02  6.3106635470979722e-02  1.9153559859433351e-02  1.4765133774958453e-02  5.2040766456101627e-03  1.0548167193873809e-03  2.6342619740675247e-03  4.1902407799991763e-02  1.9038015184187573e-02  3.0911580281247322e-02  4.1091614999803341e-03  2.1796441448905489e-03  5.1091823701508946e-03  9.2020346728029796e-03  1.5180187389311757e-03  8.5635038506933858e-04  9.8362910495763921e-03  6.7857689438764069e-03  1.1638993576075654e-03  3.6094917911511878e-03  3.0387337378577016e-03  1.7186974373518259e-02  2.1922706171766528e-02  6.7282051090715488e-03  8.2799940753692613e-04  5.1494266648107346e-03  4.2108644100140365e-03  4.2274484080563101e-03  3.3109918406167772e-03  5.2761607820801925e-03  7.9527317128689490e-03  1.2952915402576730e-02  7.2445057889749974e-03  7.3548468425415929e-03  1.5666961478981222e-03  6.8573036396746912e-03  4.9216394978967449e-03  2.6568061616846474e-04  3.7103145541923799e-04  1.2393735066205864e-03  2.9687283321517886e-03  1.3907751594750410e-04  1.7852436766441922e-03  3.7341424551808614e-04  1.2313951755341438e-04  3.5091165739741475e-04  5.0970909356280140e-04  1.2732542359520473e-19  3.7773380326590909e-33  7.2529296026712098e-02  6.6235541546590268e-02  1.8470551305318136e-01  6.5379707126401357e-02  1.0508431012606609e-02  1.2284397072699602e-01  1.3961086893721367e-01  9.0515720583810952e-02  1.5322031256180357e-01  3.2754364163392274e-01  2.3738397280798310e-01  2.2552342282614080e-01  2.2996673795481104e-01  1.5275049390745107e-01  1.3259660607183402e-01  3.0398067178029486e-01  1.2980215111576537e-01  1.6100517582198928e-01  1.0796410086105010e-01  3.7644728409953981e-01  3.3861070623054629e-01  3.5433169153817173e-01  2.9181837289735990e-01  3.5444273335790984e-02  7.2913303226246173e-02  1.9999035166226947e-01  2.7910385532652604e-01  1.3928411467088433e-01  4.8893557663446122e-02  2.8424801775387146e-02  5.4888025403706721e-02  1.3503072452955317e-01  1.7081745671337267e-01  6.8206448551769897e-02  1.4252895981284636e-01  8.4660709611619034e-02  5.0230478615653357e-02  1.5086888365491946e-01  3.1517303663692103e-01  1.7443145887011682e-01  1.0949375610924848e-01  7.5729907725252052e-02  3.5038717625143462e-02  7.6115336518983528e-02  3.0784433693708407e-02  1.6791460085985377e-01  1.8535326597412385e-01  9.3177684613582626e-02  8.2952479948163002e-02  1.5004858937921780e-03  2.7629743572154756e-02  5.2106939858347454e-02  2.2813607447804509e-03  9.0400573802586578e-02  4.2458048693859073e-02  4.6265897253639117e-02  9.7290398147570525e-02  8.1779256297177583e-02  6.8926430843595787e-02  7.6953720550766408e-02  1.3638244823492048e-02  5.8752102724655081e-03  3.1035358418795136e-02  9.8604090686238485e-03  3.4415232171783237e-03  2.6513861695097365e-04  1.0309586983120875e-02  9.1045941528571737e-03  7.8453147904430139e-03  1.2334900419689999e-02  2.8153077489771168e-03  1.0053293339996690e-03  2.9664033791233888e-03  1.2615036107455437e-02  2.6405657498412068e-02  1.6870570141908372e-02  3.2655996635290725e-03  4.2163372700964709e-03  6.2483423355719110e-03  2.0136680795892576e-03  5.5013166528613379e-03  3.4754821957718616e-03  5.8309217980443361e-04  1.6009461323799198e-02  1.2910199193291692e-02  4.6119646365997526e-03  5.9046589173808121e-03  1.3195147199456584e-03  1.0419060764937742e-02  1.7135344150372759e-03  2.1921219966586484e-03  1.2719451868167583e-03  2.5726178826187570e-04  3.4004341362918935e-03  4.3087762936188756e-04  1.3308297265217229e-03  4.8527983202639269e-04  3.7281457222378968e-06  2.0147238093239076e-04  -2.3340085855208871e-34  -9.8534522355400017e-20  8.9244219028441443e-02  7.2421003977027137e-02  8.5937807588564855e-02  6.3322991803173134e-02  4.5389117499044999e-02  1.1627602737820290e-01  8.8592343110226457e-02  1.3314085756187141e-01  1.7438428311026839e-02  5.7782914360858979e-02  1.4741615439703770e-01  9.9909668779844071e-02  7.3507728862620525e-02  2.6312746989781804e-01  4.7152313836846599e-01  2.0514364797801005e-01  5.9691100190132317e-02  2.0595423212385591e-01  3.1299839505007651e-04  2.4256491698761912e-01  2.5480991628309901e-01  1.2160581530594085e-01  7.2567593525511162e-02  2.0861862375757925e-01  2.0589109720870102e-01  8.1326925663235683e-02  1.0650777553608114e-01  1.0675711490473838e-02  2.6310023539053286e-02  1.2773270715341220e-02  1.8709091086665436e-01  1.8864787885593756e-01  1.5838389015192880e-01  2.7271541786564507e-01  1.1596976058461203e-01  4.6403074851719711e-02  9.6729918060035308e-02  1.7621600971922929e-01  1.8190675702747189e-01  2.5263482567783913e-01  2.9992144148210909e-01  2.8355144413453855e-03  8.7127261527742209e-02  2.1035169344210958e-02  2.9772393086004885e-02  2.0171406746987215e-02  1.0076617401184813e-01  9.1432535496056677e-02  6.2251008970038262e-03  2.2389794315098379e-02  5.1591377997416747e-02  7.4713681374630192e-02  2.9373307821373634e-02  2.9154014040288247e-02  1.2803435987243808e-01  7.3963005249560704e-02  7.2035471684607430e-03  4.2451066725064254e-02  4.4740047735319144e-02  3.6486401239978407e-02  8.5869644001869500e-02  4.9728142084651872e-02  4.3605336408505391e-02  6.9355566139748396e-03  1.1310009827204910e-02  8.9290466736676177e-03  1.2591620420067137e-02  1.3583044606300624e-03  5.7173611171366205e-03  1.5606313147163015e-02  9.6207994955750126e-03  1.6244403706393465e-03  3.7496853227852013e-03  2.6364205378582471e-03  2.3689982731714056e-02  2.9120639897181146e-02  3.0787676026078361e-03  7.8342935040205536e-03  7.2013635138906493e-03  3.6601289989690098e-03  2.4859556175990945e-03  4.2134100069765937e-03  9.9103872070919630e-03  1.1206342817230808e-02  1.9502547351933769e-02  7.3085772846418944e-03  5.6122816484725415e-03  2.2356474055756272e-04  7.6795427033586614e-03  7.7019533867077432e-03  1.4766679535466220e-03  2.0721565048164602e-03  2.3217488144693021e-03  4.0170001310513648e-03  4.8488915036067678e-04  2.3245477331643029e-03  5.2406119824410715e-04  4.3507009274293260e-04  4.3454480398426159e-05  -1.5091631000972792e-20  -7.7327732588718230e-18  2.2866632380520890e-01  1.6238450974195262e-01  2.4736299540060708e-02  2.3026747318115051e-01  1.9742609652841447e-01  2.4643557439708863e-02  6.3755010051781885e-02  1.7142449259865636e-01  2.0967588779880220e-01  1.3536314521401147e-01  4.0924557053996730e-01  4.5199477706078528e-01  1.1094093535511744e-01  3.3865852866313745e-01  8.6894036602894381e-02  4.2878135623419661e-02  4.8789040386944271e-01  4.1405998882559657e-02  1.4771322858704192e-01  9.6827948513612955e-03  2.9401753560588312e-01  4.0498585184202590e-01  5.0593664637875224e-01  4.1209343900074935e-01  2.3487277805509570e-02  1.9098957826117929e-01  1.1987313254138678e-01  3.4462451018698081e-01  2.3393555095550789e-01  5.1509634385064944e-02  4.2740130803677452e-02  1.8376464750087010e-01  2.2005390737304659e-01  1.0052710838306264e-01  1.6154510357875098e-02  2.3741628438989332e-01  3.6712499698710793e-02  5.7384667976025379e-02  2.3065283565879485e-01  3.3157564326251654e-01  1.4216384839321231e-01  1.6591845592494933e-01  4.2153951142373081e-02  1.1750861739787022e-01  6.2683211579389428e-02  5.4339098102373336e-03  1.8326896088758612e-01  2.0101407043447705e-01  1.0778597008638457e-01  1.0704096557128401e-01  1.4498098097063225e-02  4.6717697721811974e-02  9.7108112773047678e-02  2.4225015747298840e-02  8.3603524947120922e-02  1.3941784765526580e-02  2.2887285227590665e-02  1.1175223610406738e-01  9.3570906860806227e-02  7.0381365283201811e-02  7.8954434872850060e-02  2.3397294598135926e-03  1.6391656323706719e-02  4.7304163467566690e-02  1.6287343640868715e-02  7.3706793777657004e-04  3.1138565158621784e-03  1.5638624988149229e-02  1.3153782247962539e-02  7.1457387060764842e-03  1.7577148991554395e-02  3.0463519011216041e-03  1.5583545116409120e-03  4.5973888567344160e-03  1.3618515220859257e-02  3.2638068697455523e-02  2.0226186935738095e-02  1.0033541809615054e-02  8.5701282645293843e-03  7.4331019535822029e-03  3.0760221767128098e-04  5.0828472645689160e-03  3.8283310439689148e-03  4.5194864345928058e-03  2.1346642431648709e-02  1.6671080953325777e-02  2.4196031588865560e-03  5.1684483949997802e-03  1.1253298270915845e-03  1.2960931109069223e-02  1.9540055461249651e-03  4.1960332771995915e-03  9.1312286531655467e-04  4.9030809162960956e-04  5.1360587180421203e-03  1.7615577937765784e-04  2.1230509913396961e-03  6.3423576953250643e-04  2.7429642263400184e-04  4.2924295825671489e-35  -2.9337184263574773e-19  2.0841444242703705e-01  1.0019146264276793e-01  6.9990523107040514e-02  2.0219251880466835e-01  6.4817224851629621e-02  4.0566979372732286e-02  7.4318502791660052e-02  1.8252237368539873e-01  4.7956526551455374e-02  4.0767102694620236e-02  9.7404999877841753e-03  5.3826557701445552e-02  1.0179432799510298e-01  1.9232801761184362e-01  4.1264199682352364e-02  4.9401704498074406e-01  2.3689224150425497e-02  2.1951894426443633e-02  2.2188112201163993e-01  8.1407887094249232e-02  1.7173046122368027e-01  4.6028818957984524e-01  9.0924521724010110e-02  5.9295904911322077e-02  3.7933269117626106e-01  2.3505824855710925e-01  1.9111621322919600e-02  1.8222648383786347e-01  1.9810498282453368e-01  2.9488735569001341e-02  5.8384523376512490e-03  1.1865885877090841e-01  1.6599496189426924e-01  1.7116866230746508e-01  3.6347873485242838e-01  2.8816226438101621e-02  5.7564459452010674e-03  1.1189556710149698e-01  1.8231663596810666e-01  2.3253841166000608e-01  3.3443829403055653e-01  2.4871094155318482e-01  4.6629839441751086e-02  7.8959004303141525e-02  7.0803768457730127e-05  5.6837913913804626e-02  4.5814995302550302e-03  1.7983368055461021e-01  1.8840793772721942e-01  4.8083401290416668e-02  5.8476466236620651e-02  3.0908206941829015e-02  6.0890591374808872e-02  4.6743158046067927e-03  1.4677468084054287e-02  1.5462959706993373e-01  9.6463945279188959e-02  1.7886184501661458e-02  8.0489965660038604e-02  8.5541869007603688e-02  6.5650335660610973e-02  1.1361941024810718e-01  6.1413908379849141e-02  3.8809237049212533e-02  1.6958060262134415e-02  2.0535725272084630e-02  9.0806879431567736e-03  1.1948994426089649e-02  1.9442703335750520e-03  1.0664688819627404e-02  1.8538647170391102e-02  1.3467350264755274e-02  2.9082667835826676e-03  2.7378134378596639e-03  7.9400184773087152e-04  2.6746949557895576e-02  3.4556165004021346e-02  2.0924789100437544e-03  1.5386459623444249e-02  9.4807002547769685e-03  3.6830664807581291e-03  3.9877995221307335e-04  4.3795998156865440e-03  1.2007604241546259e-02  1.0500894460413098e-02  2.5260927330165859e-02  8.5422914753785183e-03  2.7133586302652011e-03  1.1765545027424820e-04  6.4126391718273053e-03  1.0587275102421689e-02  2.7445611347995417e-03  3.9884134408564639e-03  2.7727586881033145e-03  3.8270248097978881e-03  1.8113331325999191e-03  1.9570381881461457e-03  9.6501135432345989e-04  5.5640274768684159e-04  2.4144916401940210e-35  4.8075211324752065e-33  1.0253700309223908e-01  7.6064199426855536e-02  5.7076848484153182e-02  1.9003415885413322e-01  1.2094369017680442e-01  2.4720631463371939e-01  3.2813268688807964e-04  4.1593678267822752e-02  9.5708068266337071e-02  2.2727250320725140e-01  1.0644556046060794e-01  3.2742013687256388e-01  3.8691101302795583e-01  3.8996097802535629e-02  1.8709551599110896e-01  1.5173228368702715e-01  2.0175087723881704e-01  4.4121134160983405e-01  4.0813210275785536e-02  9.9929770109366156e-02  3.4492793303879717e-03  1.2661033528022064e-01  1.8456425765722750e-01  4.4083793635915886e-01  3.5849207021652552e-01  8.1386514201011395e-02  2.3459332408009487e-01  5.2975839512771891e-02  2.1512622181205138e-01  1.8487923371892856e-01  3.0064948536947238e-02  2.2169828603145814e-02  2.2015558139097000e-01  3.1215999008595030e-01  1.1763200776814172e-02  1.5739870296069636e-01  2.2909614515362284e-01  2.3019221048584150e-03  5.6259021931049473e-02  2.7324501112935512e-01  3.1178123471846925e-01  1.9287240943535072e-01  1.9582772790999933e-01  4.0729341377005616e-02  1.6068592097154241e-01  3.3525058291467590e-02  1.0317918732825539e-02  1.6715813242509661e-01  1.1930988041804597e-01  2.9550620110253643e-02  7.6970038146390737e-02  5.0563181718827161e-03  3.8586355055449738e-02  1.0857262324855306e-01  2.5383765401194924e-02  7.3007467354695890e-02  3.4851262769320275e-02  2.4375578716427444e-02  9.1823620841122583e-02  6.0586205834332350e-02  3.2732318484444287e-02  5.0163652202195673e-02  3.3712470323226912e-02  3.9942682790474547e-02  5.4978693628629421e-02  1.4781972586383311e-02  8.4320113675179116e-03  5.2953953685603130e-03  1.7800758658600306e-02  1.2938727254463810e-02  3.7542338842264295e-03  2.2075107792279416e-02  5.1756428826021409e-03  3.3382514590134605e-03  5.1092682885050368e-03  1.2575138971357671e-02  3.6982094632339507e-02  2.4165469609593100e-02  1.4379696869958771e-02  1.5175583164088438e-02  8.8430134941222312e-03  3.4303868302701027e-04  3.4534867839817085e-03  3.6349973878182754e-03  7.6170891790312903e-03  2.3787624666100522e-02  2.1307741153743259e-02  1.9630748683247697e-03  2.6787905698864201e-03  1.8598229639898147e-03  1.3488051010859889e-02  4.0768048004845249e-03  5.6081043670149844e-03  1.5320261950984125e-04  1.0393709163988138e-03  5.7251071317501456e-03  2.2117564632903974e-04  2.2836617975550613e-03  6.7849552108485895e-04  -9.4160168701681692e-20  -1.0301830998161156e-33  4.6268580522842995e-02  2.4009266847236980e-02  6.0710649747967894e-02  1.3988642163733711e-01  4.6306934491851498e-02  2.1926607509532522e-01  9.1404371987273865e-03  1.0447575082332553e-02  1.4783984355435256e-01  2.5643953031022721e-03  9.5640389284966515e-02  7.0582801364750841e-02  1.1865615187570883e-01  2.9963062130547130e-01  9.6184971496984323e-02  8.9033081147545642e-02 