<?xml version="1.0"?>
<VTKFile type="UnstructuredGrid"  version="0.1"  >
<UnstructuredGrid>
<Piece  NumberOfPoints="10201" NumberOfCells="20000">
<Points>
<DataArray  type="Float64"  NumberOfComponents="3"  format="ascii">0 0 0  0.01 0 0  0.02 0 0  0.03 0 0  0.04 0 0  0.05 0 0  0.06 0 0  0.07000000000000001 0 0  0.08 0 0  0.09 0 0  0.1 0 0  0.11 0 0  0.12 0 0  0.13 0 0  0.14 0 0  0.15 0 0  0.16 0 0  0.17 0 0  0.18 0 0  0.19 0 0  0.2 0 0  0.21 0 0  0.22 0 0  0.23 0 0  0.24 0 0  0.25 0 0  0.26 0 0  0.27 0 0  0.28 0 0  0.29 0 0  0.3 0 0  0.31 0 0  0.32 0 0  0.33 0 0  0.34 0 0  0.35 0 0  0.36 0 0  0.37 0 0  0.38 0 0  0.39 0 0  0.4 0 0  0.41 0 0  0.42 0 0  0.43 0 0  0.44 0 0  0.45 0 0  0.46 0 0  0.47 0 0  0.48 0 0  0.49 0 0  0.5 0 0  0.51 0 0  0.52 0 0  0.53 0 0  0.54 0 0  0.55 0 0  0.5600000000000001 0 0  0.57 0 0  0.58 0 0  0.59 0 0  0.6 0 0  0.61 0 0  0.62 0 0  0.63 0 0  0.64 0 0  0.65 0 0  0.66 0 0  0.67 0 0  0.68 0 0  0.6899999999999999 0 0  0.7 0 0  0.71 0 0  0.72 0 0  0.73 0 0  0.74 0 0  0.75 0 0  0.76 0 0  0.77 0 0  0.78 0 0  0.79 0 0  0.8 0 0  0.8100000000000001 0 0  0.82 0 0  0.83 0 0  0.84 0 0  0.85 0 0  0.86 0 0  0.87 0 0  0.88 0 0  0.89 0 0  0.9 0 0  0.91 0 0  0.92 0 0  0.93 0 0  0.9399999999999999 0 0  0.95 0 0  0.96 0 0  0.97 0 0  0.98 0 0  0.99 0 0  1 0 0  0 0.01 0  0.01 0.01 0  0.02 0.01 0  0.03 0.01 0  0.04 0.01 0  0.05 0.01 0  0.06 0.01 0  0.07000000000000001 0.01 0  0.08 0.01 0  0.09 0.01 0  0.1 0.01 0  0.11 0.01 0  0.12 0.01 0  0.13 0.01 0  0.14 0.01 0  0.15 0.01 0  0.16 0.01 0  0.17 0.01 0  0.18 0.01 0  0.19 0.01 0  0.2 0.01 0  0.21 0.01 0  0.22 0.01 0  0.23 0.01 0  0.24 0.01 0  0.25 0.01 0  0.26 0.01 0  0.27 0.01 0  0.28 0.01 0  0.29 0.01 0  0.3 0.01 0  0.31 0.01 0  0.32 0.01 0  0.33 0.01 0  0.34 0.01 0  0.35 0.01 0  0.36 0.01 0  0.37 0.01 0  0.38 0.01 0  0.39 0.01 0  0.4 0.01 0  0.41 0.01 0  0.42 0.01 0  0.43 0.01 0  0.44 0.01 0  0.45 0.01 0  0.46 0.01 0  0.47 0.01 0  0.48 0.01 0  0.49 0.01 0  0.5 0.01 0  0.51 0.01 0  0.52 0.01 0  0.53 0.01 0  0.54 0.01 0  0.55 0.01 0  0.5600000000000001 0.01 0  0.57 0.01 0  0.58 0.01 0  0.59 0.01 0  0.6 0.01 0  0.61 0.01 0  0.62 0.01 0  0.63 0.01 0  0.64 0.01 0  0.65 0.01 0  0.66 0.01 0  0.67 0.01 0  0.68 0.01 0  0.6899999999999999 0.01 0  0.7 0.01 0  0.71 0.01 0  0.72 0.01 0  0.73 0.01 0  0.74 0.01 0  0.75 0.01 0  0.76 0.01 0  0.77 0.01 0  0.78 0.01 0  0.79 0.01 0  0.8 0.01 0  0.8100000000000001 0.01 0  0.82 0.01 0  0.83 0.01 0  0.84 0.01 0  0.85 0.01 0  0.86 0.01 0  0.87 0.01 0  0.88 0.01 0  0.89 0.01 0  0.9 0.01 0  0.91 0.01 0  0.92 0.01 0  0.93 0.01 0  0.9399999999999999 0.01 0  0.95 0.01 0  0.96 0.01 0  0.97 0.01 0  0.98 0.01 0  0.99 0.01 0  1 0.01 0  0 0.02 0  0.01 0.02 0  0.02 0.02 0  0.03 0.02 0  0.04 0.02 0  0.05 0.02 0  0.06 0.02 0  0.07000000000000001 0.02 0  0.08 0.02 0  0.09 0.02 0  0.1 0.02 0  0.11 0.02 0  0.12 0.02 0  0.13 0.02 0  0.14 0.02 0  0.15 0.02 0  0.16 0.02 0  0.17 0.02 0  0.18 0.02 0  0.19 0.02 0  0.2 0.02 0  0.21 0.02 0  0.22 0.02 0  0.23 0.02 0  0.24 0.02 0  0.25 0.02 0  0.26 0.02 0  0.27 0.02 0  0.28 0.02 0  0.29 0.02 0  0.3 0.02 0  0.31 0.02 0  0.32 0.02 0  0.33 0.02 0  0.34 0.02 0  0.35 0.02 0  0.36 0.02 0  0.37 0.02 0  0.38 0.02 0  0.39 0.02 0  0.4 0.02 0  0.41 0.02 0  0.42 0.02 0  0.43 0.02 0  0.44 0.02 0  0.45 0.02 0  0.46 0.02 0  0.47 0.02 0  0.48 0.02 0  0.49 0.02 0  0.5 0.02 0  0.51 0.02 0  0.52 0.02 0  0.53 0.02 0  0.54 0.02 0  0.55 0.02 0  0.5600000000000001 0.02 0  0.57 0.02 0  0.58 0.02 0  0.59 0.02 0  0.6 0.02 0  0.61 0.02 0  0.62 0.02 0  0.63 0.02 0  0.64 0.02 0  0.65 0.02 0  0.66 0.02 0  0.67 0.02 0  0.68 0.02 0  0.6899999999999999 0.02 0  0.7 0.02 0  0.71 0.02 0  0.72 0.02 0  0.73 0.02 0  0.74 0.02 0  0.75 0.02 0  0.76 0.02 0  0.77 0.02 0  0.78 0.02 0  0.79 0.02 0  0.8 0.02 0  0.8100000000000001 0.02 0  0.82 0.02 0  0.83 0.02 0  0.84 0.02 0  0.85 0.02 0  0.86 0.02 0  0.87 0.02 0  0.88 0.02 0  0.89 0.02 0  0.9 0.02 0  0.91 0.02 0  0.92 0.02 0  0.93 0.02 0  0.9399999999999999 0.02 0  0.95 0.02 0  0.96 0.02 0  0.97 0.02 0  0.98 0.02 0  0.99 0.02 0  1 0.02 0  0 0.03 0  0.01 0.03 0  0.02 0.03 0  0.03 0.03 0  0.04 0.03 0  0.05 0.03 0  0.06 0.03 0  0.07000000000000001 0.03 0  0.08 0.03 0  0.09 0.03 0  0.1 0.03 0  0.11 0.03 0  0.12 0.03 0  0.13 0.03 0  0.14 0.03 0  0.15 0.03 0  0.16 0.03 0  0.17 0.03 0  0.18 0.03 0  0.19 0.03 0  0.2 0.03 0  0.21 0.03 0  0.22 0.03 0  0.23 0.03 0  0.24 0.03 0  0.25 0.03 0  0.26 0.03 0  0.27 0.03 0  0.28 0.03 0  0.29 0.03 0  0.3 0.03 0  0.31 0.03 0  0.32 0.03 0  0.33 0.03 0  0.34 0.03 0  0.35 0.03 0  0.36 0.03 0  0.37 0.03 0  0.38 0.03 0  0.39 0.03 0  0.4 0.03 0  0.41 0.03 0  0.42 0.03 0  0.43 0.03 0  0.44 0.03 0  0.45 0.03 0  0.46 0.03 0  0.47 0.03 0  0.48 0.03 0  0.49 0.03 0  0.5 0.03 0  0.51 0.03 0  0.52 0.03 0  0.53 0.03 0  0.54 0.03 0  0.55 0.03 0  0.5600000000000001 0.03 0  0.57 0.03 0  0.58 0.03 0  0.59 0.03 0  0.6 0.03 0  0.61 0.03 0  0.62 0.03 0  0.63 0.03 0  0.64 0.03 0  0.65 0.03 0  0.66 0.03 0  0.67 0.03 0  0.68 0.03 0  0.6899999999999999 0.03 0  0.7 0.03 0  0.71 0.03 0  0.72 0.03 0  0.73 0.03 0  0.74 0.03 0  0.75 0.03 0  0.76 0.03 0  0.77 0.03 0  0.78 0.03 0  0.79 0.03 0  0.8 0.03 0  0.8100000000000001 0.03 0  0.82 0.03 0  0.83 0.03 0  0.84 0.03 0  0.85 0.03 0  0.86 0.03 0  0.87 0.03 0  0.88 0.03 0  0.89 0.03 0  0.9 0.03 0  0.91 0.03 0  0.92 0.03 0  0.93 0.03 0  0.9399999999999999 0.03 0  0.95 0.03 0  0.96 0.03 0  0.97 0.03 0  0.98 0.03 0  0.99 0.03 0  1 0.03 0  0 0.04 0  0.01 0.04 0  0.02 0.04 0  0.03 0.04 0  0.04 0.04 0  0.05 0.04 0  0.06 0.04 0  0.07000000000000001 0.04 0  0.08 0.04 0  0.09 0.04 0  0.1 0.04 0  0.11 0.04 0  0.12 0.04 0  0.13 0.04 0  0.14 0.04 0  0.15 0.04 0  0.16 0.04 0  0.17 0.04 0  0.18 0.04 0  0.19 0.04 0  0.2 0.04 0  0.21 0.04 0  0.22 0.04 0  0.23 0.04 0  0.24 0.04 0  0.25 0.04 0  0.26 0.04 0  0.27 0.04 0  0.28 0.04 0  0.29 0.04 0  0.3 0.04 0  0.31 0.04 0  0.32 0.04 0  0.33 0.04 0  0.34 0.04 0  0.35 0.04 0  0.36 0.04 0  0.37 0.04 0  0.38 0.04 0  0.39 0.04 0  0.4 0.04 0  0.41 0.04 0  0.42 0.04 0  0.43 0.04 0  0.44 0.04 0  0.45 0.04 0  0.46 0.04 0  0.47 0.04 0  0.48 0.04 0  0.49 0.04 0  0.5 0.04 0  0.51 0.04 0  0.52 0.04 0  0.53 0.04 0  0.54 0.04 0  0.55 0.04 0  0.5600000000000001 0.04 0  0.57 0.04 0  0.58 0.04 0  0.59 0.04 0  0.6 0.04 0  0.61 0.04 0  0.62 0.04 0  0.63 0.04 0  0.64 0.04 0  0.65 0.04 0  0.66 0.04 0  0.67 0.04 0  0.68 0.04 0  0.6899999999999999 0.04 0  0.7 0.04 0  0.71 0.04 0  0.72 0.04 0  0.73 0.04 0  0.74 0.04 0  0.75 0.04 0  0.76 0.04 0  0.77 0.04 0  0.78 0.04 0  0.79 0.04 0  0.8 0.04 0  0.8100000000000001 0.04 0  0.82 0.04 0  0.83 0.04 0  0.84 0.04 0  0.85 0.04 0  0.86 0.04 0  0.87 0.04 0  0.88 0.04 0  0.89 0.04 0  0.9 0.04 0  0.91 0.04 0  0.92 0.04 0  0.93 0.04 0  0.9399999999999999 0.04 0  0.95 0.04 0  0.96 0.04 0  0.97 0.04 0  0.98 0.04 0  0.99 0.04 0  1 0.04 0  0 0.05 0  0.01 0.05 0  0.02 0.05 0  0.03 0.05 0  0.04 0.05 0  0.05 0.05 0  0.06 0.05 0  0.07000000000000001 0.05 0  0.08 0.05 0  0.09 0.05 0  0.1 0.05 0  0.11 0.05 0  0.12 0.05 0  0.13 0.05 0  0.14 0.05 0  0.15 0.05 0  0.16 0.05 0  0.17 0.05 0  0.18 0.05 0  0.19 0.05 0  0.2 0.05 0  0.21 0.05 0  0.22 0.05 0  0.23 0.05 0  0.24 0.05 0  0.25 0.05 0  0.26 0.05 0  0.27 0.05 0  0.28 0.05 0  0.29 0.05 0  0.3 0.05 0  0.31 0.05 0  0.32 0.05 0  0.33 0.05 0  0.34 0.05 0  0.35 0.05 0  0.36 0.05 0  0.37 0.05 0  0.38 0.05 0  0.39 0.05 0  0.4 0.05 0  0.41 0.05 0  0.42 0.05 0  0.43 0.05 0  0.44 0.05 0  0.45 0.05 0  0.46 0.05 0  0.47 0.05 0  0.48 0.05 0  0.49 0.05 0  0.5 0.05 0  0.51 0.05 0  0.52 0.05 0  0.53 0.05 0  0.54 0.05 0  0.55 0.05 0  0.5600000000000001 0.05 0  0.57 0.05 0  0.58 0.05 0  0.59 0.05 0  0.6 0.05 0  0.61 0.05 0  0.62 0.05 0  0.63 0.05 0  0.64 0.05 0  0.65 0.05 0  0.66 0.05 0  0.67 0.05 0  0.68 0.05 0  0.6899999999999999 0.05 0  0.7 0.05 0  0.71 0.05 0  0.72 0.05 0  0.73 0.05 0  0.74 0.05 0  0.75 0.05 0  0.76 0.05 0  0.77 0.05 0  0.78 0.05 0  0.79 0.05 0  0.8 0.05 0  0.8100000000000001 0.05 0  0.82 0.05 0  0.83 0.05 0  0.84 0.05 0  0.85 0.05 0  0.86 0.05 0  0.87 0.05 0  0.88 0.05 0  0.89 0.05 0  0.9 0.05 0  0.91 0.05 0  0.92 0.05 0  0.93 0.05 0  0.9399999999999999 0.05 0  0.95 0.05 0  0.96 0.05 0  0.97 0.05 0  0.98 0.05 0  0.99 0.05 0  1 0.05 0  0 0.06 0  0.01 0.06 0  0.02 0.06 0  0.03 0.06 0  0.04 0.06 0  0.05 0.06 0  0.06 0.06 0  0.07000000000000001 0.06 0  0.08 0.06 0  0.09 0.06 0  0.1 0.06 0  0.11 0.06 0  0.12 0.06 0  0.13 0.06 0  0.14 0.06 0  0.15 0.06 0  0.16 0.06 0  0.17 0.06 0  0.18 0.06 0  0.19 0.06 0  0.2 0.06 0  0.21 0.06 0  0.22 0.06 0  0.23 0.06 0  0.24 0.06 0  0.25 0.06 0  0.26 0.06 0  0.27 0.06 0  0.28 0.06 0  0.29 0.06 0  0.3 0.06 0  0.31 0.06 0  0.32 0.06 0  0.33 0.06 0  0.34 0.06 0  0.35 0.06 0  0.36 0.06 0  0.37 0.06 0  0.38 0.06 0  0.39 0.06 0  0.4 0.06 0  0.41 0.06 0  0.42 0.06 0  0.43 0.06 0  0.44 0.06 0  0.45 0.06 0  0.46 0.06 0  0.47 0.06 0  0.48 0.06 0  0.49 0.06 0  0.5 0.06 0  0.51 0.06 0  0.52 0.06 0  0.53 0.06 0  0.54 0.06 0  0.55 0.06 0  0.5600000000000001 0.06 0  0.57 0.06 0  0.58 0.06 0  0.59 0.06 0  0.6 0.06 0  0.61 0.06 0  0.62 0.06 0  0.63 0.06 0  0.64 0.06 0  0.65 0.06 0  0.66 0.06 0  0.67 0.06 0  0.68 0.06 0  0.6899999999999999 0.06 0  0.7 0.06 0  0.71 0.06 0  0.72 0.06 0  0.73 0.06 0  0.74 0.06 0  0.75 0.06 0  0.76 0.06 0  0.77 0.06 0  0.78 0.06 0  0.79 0.06 0  0.8 0.06 0  0.8100000000000001 0.06 0  0.82 0.06 0  0.83 0.06 0  0.84 0.06 0  0.85 0.06 0  0.86 0.06 0  0.87 0.06 0  0.88 0.06 0  0.89 0.06 0  0.9 0.06 0  0.91 0.06 0  0.92 0.06 0  0.93 0.06 0  0.9399999999999999 0.06 0  0.95 0.06 0  0.96 0.06 0  0.97 0.06 0  0.98 0.06 0  0.99 0.06 0  1 0.06 0  0 0.07000000000000001 0  0.01 0.07000000000000001 0  0.02 0.07000000000000001 0  0.03 0.07000000000000001 0  0.04 0.07000000000000001 0  0.05 0.07000000000000001 0  0.06 0.07000000000000001 0  0.07000000000000001 0.07000000000000001 0  0.08 0.07000000000000001 0  0.09 0.07000000000000001 0  0.1 0.07000000000000001 0  0.11 0.07000000000000001 0  0.12 0.07000000000000001 0  0.13 0.07000000000000001 0  0.14 0.07000000000000001 0  0.15 0.07000000000000001 0  0.16 0.07000000000000001 0  0.17 0.0700
[...]
<PointData  Scalars="Indicator Function"> 
<DataArray  type="Float64"  Name="Indicator Function"  format="ascii">-1.0058350594551321e-18  1.5635418690003201e-17  7.1789763653264573e-17  1.7339008540792777e-18  1.4520688313727183e-16  -4.0942437442975463e-19  -4.1422857678201440e-19  1.2252404373668408e-16  4.5310553383312621e-16  -3.5653859486375024e-19  2.0976501219537667e-16  1.1575643640987832e-16  -2.8859929619995951e-19  -2.2958389447915264e-18  2.7188683517158188e-16  -2.2348065186254614e-18  -5.3349559760592028e-18  4.6818015199434649e-16  -1.9435660421787069e-18  -2.3719558275230851e-18  1.4094412435756383e-15  -2.9293772666776839e-18  -1.7836503775465533e-18  7.0776285045480648e-16  -2.8975523163836700e-19  -1.9791338941538255e-18  -1.4623720383483596e-18  -9.1774517729031346e-19  -3.1118031589516660e-18  -1.6684016235877603e-18  -2.9494949455838479e-18  -1.7417485211824660e-18  -1.9228339832309263e-18  -2.9130079084054945e-18  5.0688170359171501e-17  -1.0291161218586130e-18  -4.5523362459205072e-18  -8.4945656975038740e-18  -8.9407244908496003e-18  -9.6725313863910065e-18  1.1991327876212656e-15  -5.5545505068048081e-19  -3.4041458667016979e-18  -3.1234687767793951e-18  -1.9443044392860614e-18  -9.7215221964299063e-19  2.2848259316426806e-16  -1.1896503605343641e-18  -2.2589534693941731e-19  -8.6489662777708335e-19  -4.3244831388854177e-19  -4.8599852384271681e-19  -1.5607732650424617e-19  -1.0452775507826813e-18  -8.6276019832847527e-19  -5.0725553132191036e-20  9.9929339670436938e-18  -1.1641809364942102e-19  -4.1430280184285787e-20  -2.0654240754890437e-20  -1.9564085841435796e-20  -6.7679552172574636e-20  -2.9347809869365478e-20  -4.4670038389832497e-22  -7.2517905734803866e-21  -6.4861659434650266e-20  -8.1667744187658012e-20  -2.0162079105303875e-34  1.9398954725011459e-17  -1.9540639224908530e-19  -6.0185310762101120e-36  -3.0092655381050560e-36  -3.0800219130405916e-20  -3.7984245425085675e-19  -7.4425365632188852e-19  -4.4573068571485015e-19  -8.4927838415056679e-20  -2.3412588142208529e-19  -2.6462592853165489e-19  -1.6218176387841170e-19  -7.6748467441562651e-20  -1.2059744806207742e-18  -1.2323614558424050e-19  -2.4204814451966586e-19  -2.1502771153395860e-19  -1.2836141136327625e-19  -5.4631972719474553e-20  -3.3622658098931377e-20  -4.1214003104372844e-20  -1.6888624964133403e-20  -1.8807909613156600e-36  -3.6191496447483120e-21  -3.0896402465391570e-21  4.6606869407628295e-18  -9.4039548065783001e-38  -7.3541415835768905e-22  -1.8786160536180834e-21  -1.9910417539621479e-21  -2.3316222174367173e-21  -8.1595143828906143e-23  -6.8178672347692675e-37  0.0000000000000000e+00  1.8119513595833286e-02  6.7780284655541104e-02  2.2145836251235420e-02  1.6768623295602886e-02  1.2709185630084377e-02  7.3755338404729648e-03  7.4620786561667559e-03  5.5912439757176073e-02  5.5616501494172590e-02  6.4228283318862626e-03  9.0435517305633165e-02  1.0397885462604239e-02  6.9833374395573675e-02  6.4414704672763603e-03  9.9762868583520292e-02  8.1437163518215894e-02  5.5387441224165071e-02  7.0024346426607750e-02  8.5458715047776940e-02  2.7503514499475395e-02  9.0239022732077803e-02  5.2770969466548877e-02  5.7459039694369319e-03  1.0439532425881602e-02  7.1305813345819855e-02  5.2687505335861619e-02  3.3065254707725152e-02  2.4731502239906914e-03  1.2318151339381451e-02  2.3896176051485939e-02  6.2753103927763704e-02  4.3671999180628439e-02  1.2802698051182280e-02  4.6074736297698052e-02  3.7077815863387348e-02  1.6076243897010557e-02  7.3969477334665912e-02  1.5382138875953807e-01  1.4454040817344752e-01  1.0197463090319601e-01  5.0894520688728635e-02  1.0006188637062680e-02  5.8148708240051077e-02  2.7193057156802699e-02  3.5025474993054022e-02  4.2215143443496216e-02  5.7222603954413575e-03  2.1430835681614954e-02  4.0693688012043575e-03  1.5580592522283483e-02  6.2633855352772485e-03  5.6232783158840565e-03  6.3680700221958328e-03  1.5646011341716594e-02  7.7191003599505629e-03  9.1379032873726207e-04  4.1944038654297281e-03  1.4926831551984379e-03  7.4414744773876069e-04  7.0487047764267727e-04  5.5768252069044756e-04  9.4036516343481286e-04  3.1438615514645774e-04  2.1789108071304869e-04  4.8366274701852678e-04  1.1658594391509584e-03  8.8826556959142303e-04  1.2537801443984122e-03  3.0305707215114142e-03  2.0048432605194663e-03  5.2754886194349604e-04  1.1096948431890050e-03  2.1144711822744943e-03  8.3149566321967325e-03  9.2498036410231781e-03  3.4046683798603867e-03  1.5299239257577240e-03  3.4526749664423066e-03  3.4423132529090594e-03  2.6006956122415765e-03  1.4695810493964986e-03  1.5442271276032008e-03  2.6293230172605088e-03  3.1877964130336647e-03  2.7381056895925391e-03  1.9350446439523291e-03  1.1635698108445273e-03  8.7904745272697612e-04  5.4117305645533177e-04  2.0365989716632972e-04  8.7524537796755856e-06  6.5196803965946216e-05  7.9417527616217212e-05  4.8006362069245063e-05  1.1464228085745173e-05  1.3248043718170701e-05  2.7218116377101172e-05  3.4435991815466315e-05  3.0859702159365845e-05  8.5652879676006594e-22  -8.5308821947365463e-19  1.0634318331078080e-02  1.6186871673120721e-02  3.0522561357252263e-02  2.9585051763570163e-02  5.8014176684010439e-02  5.7379946770558425e-03  5.6642070293367527e-02  7.1005573518074386e-03  4.7230324194680644e-02  1.0678981449831813e-01  6.2959308204261946e-02  2.0329323633400755e-02  1.2106566199786292e-01  1.2462368017751210e-01  1.5241291741423402e-01  3.2927523243776811e-02  1.2927359328465696e-01  3.6778324256593422e-03  4.3586458422971021e-02  1.4191378968889432e-02  1.1998999425514610e-01  5.5277341142570151e-02  4.6101020098225694e-03  2.2941243862466702e-02  1.2719096744460498e-02  3.5760639252573833e-03  2.4109316789288147e-02  2.2100110667740834e-02  3.9369672884727010e-03  1.0023892675147826e-01  6.8775235221880740e-02  5.1628398813882002e-02  5.6548805502092556e-02  7.7479623153342378e-02  3.8928280300003913e-02  7.6430439655142857e-04  8.2669644829758512e-02  1.3273725703530076e-01  1.6012199856744971e-01  2.0832984973775218e-01  8.1531242279712354e-02  2.5246071674025847e-02  2.5105811059173925e-02  4.9625498841454611e-02  1.1007950264216925e-02  2.1939959083103276e-02  4.6122427865703227e-03  4.6232917763683455e-02  2.2908277666289886e-02  2.8866830186424452e-02  5.6225475337903542e-03  1.5794613692159648e-03  1.0081922179680314e-02  2.8234064725275395e-02  8.9257055394686598e-03  2.2721460531491149e-03  1.6301103603435152e-03  3.6283171777954479e-03  2.6481230839207454e-03  1.3705216397660871e-03  1.3602040607710822e-03  1.9511943365511399e-03  2.6087938648858055e-04  4.2156227182986683e-04  1.8310081381630477e-04  1.1828246868668376e-03  1.5772221234264083e-03  7.8592282343118640e-04  3.1157105365614375e-03  3.8116380366388166e-03  5.5106135652255794e-04  1.0956061965201440e-03  2.8567341959027850e-04  7.5458573769955290e-03  1.2831543214231685e-02  7.2169027266377047e-03  4.6892464191936539e-04  3.4216041480247153e-03  4.1575837083773510e-03  3.7201853665959502e-03  2.4174981153061632e-03  1.6105879392706382e-03  2.7915184627430537e-03  3.9334869455382830e-03  3.6747384773869319e-03  2.7837044244298646e-03  1.7355005036285593e-03  1.1989862000639714e-03  9.0892223029618885e-04  3.8895233642018514e-04  6.1858886159256939e-05  6.9126475204241112e-05  1.1251660837349788e-04  9.8282515104683414e-05  4.3640701057555665e-05  9.1868210806350859e-06  1.5960318771783411e-05  3.0875054728783325e-05  4.1556949035745132e-05  6.9907810733026887e-21  1.5407439555097887e-33  5.0382302388132988e-02  3.9231997362464882e-02  1.2079574936735027e-01  4.1700270933020339e-02  1.3034453366620256e-02  2.3325286104447972e-02  4.6425586745854466e-02  3.0864601109681897e-02  9.1561581488264085e-02  1.7870428940559022e-01  1.1125503209333340e-01  1.3475201251366631e-01  9.8412039068557597e-02  7.6304353293010441e-02  6.2011764864081234e-02  2.1439746479721375e-01  8.0127059244853110e-02  8.2187270507508042e-02  7.5583648780583781e-02  1.8494173470307171e-01  1.4947015949309292e-01  2.1504639783803700e-01  1.7571773563805865e-01  3.9149747814386460e-02  8.5438085879110687e-03  1.2268175829743165e-01  1.6806469065946836e-01  1.0618222821646682e-01  1.3728297725585838e-02  1.9199625318307547e-03  6.8996423872416598e-02  1.2786150717350178e-01  1.1277613476074613e-01  2.4791974958754619e-02  7.9456752616204537e-02  5.1424556893088731e-02  3.8996200337635810e-02  1.2139489863258505e-01  2.2507616322089855e-01  1.4368566418927969e-01  1.2655610774754783e-01  6.6851060988049951e-02  3.7604087310375484e-02  8.4230222723549297e-02  1.1326420805309998e-02  8.1826714135814937e-02  1.2237624104776568e-01  5.4904496556082143e-02  5.5768866157064147e-02  3.0928005056573771e-02  4.2336125129519335e-02  2.4706023659995559e-02  1.9184717498474595e-03  1.0078418875838166e-02  2.7248795491140562e-02  1.6294559372159747e-03  4.2287885610636719e-03  9.7859245873451271e-03  3.7334508326782017e-03  1.4048017031194266e-03  1.1111944870234533e-03  6.9398564699150241e-04  1.5870138352148016e-03  1.3014416391307688e-04  4.1252554107412025e-04  8.1120283698957857e-04  1.8039875692085912e-03  9.9106934214497904e-04  1.5280444657707461e-03  4.8452044899337261e-03  2.1808590031800251e-03  3.4809689507581587e-04  2.2014468097770763e-03  3.3886067450163929e-03  1.3049857151570440e-02  1.1874461508065901e-02  1.3735598917634145e-03  3.2607104650998232e-03  3.7869669832816442e-03  3.7969078826100675e-03  3.0978482128564936e-03  1.6833281014267429e-03  2.1553290980081273e-03  3.9044928629818594e-03  4.2401569954442393e-03  3.1984036051081314e-03  2.2218304697597248e-03  1.3158559916309717e-03  1.1766280357480845e-03  6.8423257656298833e-04  1.6665244651787038e-04  4.1268783157521667e-05  1.0412515233193794e-04  1.2580161686920644e-04  8.1433645240472900e-05  3.1518418454043083e-05  6.3643892199523475e-06  8.3434760614425655e-06  1.5373315561558373e-05  -1.2037062152420224e-35  -5.1828266157324572e-19  4.5791739052704908e-02  4.3513042142489355e-02  5.9266594330633485e-02  2.5562141823616161e-02  4.5260679989495810e-02  5.6006834541912111e-02  5.8785822452372807e-02  6.9417635048300966e-02  2.8662620629476714e-02  1.6247027408593668e-04  7.1708468302443859e-02  1.0732659124001707e-01  1.2947477959739381e-01  1.2269566257370572e-01  2.6808654818026600e-01  9.1860784115779887e-02  7.1240302419652976e-03  1.5556107256042381e-01  7.5949870384534567e-03  1.0861713157975719e-01  1.1432355529120092e-01  7.8853337915437152e-02  3.4606735158758617e-02  5.2820717861925041e-02  3.6676659949541356e-02  3.4970948753486553e-02  7.9754995551725827e-02  3.3663119545729522e-02  4.5859985440932040e-02  2.3754030813870324e-02  1.1745232664414712e-01  1.1547022239316961e-01  9.2906570640574407e-02  1.5916807623973672e-01  5.6226800094580573e-02  1.8236352656492722e-02  9.3354820866456119e-04  8.9128773841154516e-02  1.3284563933946586e-01  2.0132774227646577e-01  2.2460711115089807e-01  3.7234185071837379e-02  4.0060967519479442e-02  6.9818906763761748e-03  6.9671865198848978e-02  2.6086025758512200e-02  7.8644016996572471e-03  3.6475094400484347e-02  3.3797128153239521e-02  2.9164679077189493e-02  3.0343969294180411e-02  7.9609152049542439e-04  1.0338456907305742e-02  1.1968088429293077e-02  4.0987134404634681e-02  7.5770211155749148e-03  3.2900776388456484e-03  4.6863241046892997e-04  7.9092518496631254e-03  5.4011001521544755e-03  2.9844421352392572e-03  2.3342641226372605e-03  2.9366121755382141e-03  1.0595917253234420e-04  3.3949919462520771e-04  7.0858331711236907e-05  1.4225492297512588e-03  1.9189678005587763e-03  2.6762354848558847e-04  3.6245116247072260e-03  4.8394065916035059e-03  4.2397617939794247e-04  9.1815187718941754e-04  1.4843200595936522e-03  9.2011515834114471e-03  1.5833101003622507e-02  6.5842841462448480e-03  3.2977848818579254e-03  4.1074708269304020e-03  3.6178080057030632e-03  3.4121789413607533e-03  2.1928865127881616e-03  1.3708277140952363e-03  3.1643518028956854e-03  4.5672324842709984e-03  3.8352941177886551e-03  2.6045712333107669e-03  1.5737767507586998e-03  1.1586200003611863e-03  1.0389873123165360e-03  3.8151948435434155e-04  4.8015592242357312e-06  8.8278350292485215e-05  1.1969484058072487e-04  1.1235062600849666e-04  5.1378743932957752e-05  1.9981649133435715e-05  5.0454776317993610e-07  5.5222620004136035e-06  -1.2197931010917540e-21  -3.6590254454964439e-18  1.2859396846203608e-01  9.6194063556544446e-02  1.5110019953731360e-02  1.4135186780114961e-01  1.1866904978323720e-01  2.1303160697663998e-02  1.4982022276751631e-02  4.2819599380927678e-02  8.5868089733991154e-02  7.6708658574885707e-02  1.9909376267135559e-01  2.2048618068142553e-01  5.3183026897352575e-02  1.1906654488821923e-01  3.5113071164997275e-02  1.0869466502256215e-02  2.8796652576807613e-01  2.5518698860394696e-02  9.0390137234414081e-02  2.5489496918709633e-02  1.5511108748166721e-01  1.8555290640195218e-01  2.8297267881432081e-01  2.4461941724086722e-01  7.7071695667444221e-02  2.8489712402280126e-02  8.4335163820588074e-02  1.9451551293176342e-01  1.5330749150995954e-01  1.4192046386044368e-03  1.2436299458092758e-02  1.3680804245763481e-01  1.9058919921187162e-01  9.4355567075625910e-02  3.0471928696207632e-03  1.1513149842806433e-01  4.7376477265996177e-02  6.2535199611774561e-02  1.4681331881656048e-01  2.1901053266017448e-01  1.2359779215639230e-01  1.6612489644700965e-01  4.9021706334561134e-02  8.0061049660069036e-02  7.3995065796940138e-02  1.2385043731413430e-03  1.0028093454886898e-01  1.5045170268468591e-01  7.7165686064857228e-02  7.8847646635520865e-02  5.8088123388145591e-02  6.1699273868411016e-02  3.5268220217330393e-02  1.0493843730444783e-03  7.0328356785527108e-03  3.9925764510378027e-02  5.2344900596180194e-03  7.6489394973641876e-03  1.2019875031116317e-02  3.0381864829951144e-03  5.5059154383167253e-04  4.3102630599990704e-04  2.6984874374745761e-04  2.4968762214163044e-03  4.7984346033730683e-04  6.4860995070984871e-04  7.6385464088422081e-04  2.0082341476812468e-03  9.8969651538677664e-04  1.0353539706039376e-03  5.6866386465837309e-03  2.4688130260882490e-03  1.4812978414799379e-03  2.8834239126002900e-03  2.8054514119904336e-03  1.5108255288938314e-02  1.3591614282131433e-02  4.0972816997959230e-04  5.1486877345279262e-03  3.7172108257679617e-03  3.3106145566669473e-03  2.9188601403401372e-03  1.3961611951626826e-03  2.0164095816880205e-03  4.2705552662326866e-03  4.5656513328635262e-03  3.0906320529894941e-03  2.0018444232789861e-03  1.1458866007987517e-03  1.1804628251786695e-03  7.3920423740666879e-04  1.1722612535510433e-04  8.4089171667176867e-05  1.1131259132961370e-04  1.2754138859884416e-04  8.2232238460554926e-05  2.7176621634169740e-05  7.5003948757842368e-06  1.6236523565881166e-06  -9.0130811513546926e-23  -1.1718902214278731e-18  1.0283685704855569e-01  4.0882689889718923e-02  3.4291285664700806e-02  1.2334518914745936e-01  5.0042524560069100e-02  3.7520425888178402e-02  2.3658010624066139e-02  8.8133434868429200e-02  4.0554416808197380e-02  8.4658947859812018e-03  2.3903395159810152e-02  2.0610230657952078e-02  7.0354364029309481e-03  1.8791610818756208e-01  2.3033444678377930e-02  2.7370930259441434e-01  1.5225593508945167e-03  5.6567523757733627e-02  1.5073560406724482e-01  1.9451726191755812e-02  8.9517713956413544e-02  1.9836405617108455e-01  9.1725118819385304e-03  3.4465977620006000e-02  1.4832111774335285e-01  7.0694921636777860e-02  6.3510803614732722e-04  1.1909973513239043e-01  1.3001263298978702e-01  8.1900407462251967e-02  2.8549570805248527e-02  9.1288810441621557e-02  9.5766186712894691e-02  1.1794673433608154e-01  2.2180319871287393e-01  9.5105997576204904e-03  2.4069577545809639e-02  1.4600307238267041e-02  8.8762571899182158e-02  1.5507736200408426e-01  2.3786080231139275e-01  1.9022465699429195e-01  2.7187111790326353e-02  3.0816268882799515e-02  1.9988522382778318e-02  8.6283302766738235e-02  4.6082133168064116e-02  4.1444189371042238e-02  9.5334552489021687e-02  4.3853498380452046e-03  8.9683045364927355e-03  1.0297107984853835e-02  1.9438879946514134e-02  2.5315443775552369e-02  8.3991794376035676e-03  4.3159385257388515e-02  1.3744574570999785e-02  1.1303849723433101e-02  4.8739755708547138e-04  1.0960888254802129e-02  6.4686850565559553e-03  3.3536863748096116e-03  2.4349553716104966e-03  3.1439388107947614e-03  4.8300068132002772e-04  1.1628942595477439e-04  1.5808491514909633e-04  1.4352211114999043e-03  2.1227134228087095e-03  8.9320894340257334e-05  3.5704392709073347e-03  5.6781223518806035e-03  7.9356291147782165e-04  2.3864497405415934e-04  2.4760481107120908e-03  9.7264292310140082e-03  1.8059883283622780e-02  6.8009863084421097e-03  5.6008606779911979e-03  5.0307781161755011e-03  3.0394875719698573e-03  3.0171135340000656e-03  2.0457628989584463e-03  1.2034600776079736e-03  3.3271611630340601e-03  5.0020699697708336e-03  3.9715262174910429e-03  2.3992697024947779e-03  1.3841993083125201e-03  1.0729936565276115e-03  1.0920336609642966e-03  3.9073730675040621e-04  5.2594510642296458e-05  1.1920134286868212e-04  1.2895295169404331e-04  1.1950809669654271e-04  5.3104972863532523e-05  1.6182215601875680e-05  5.5606277871335986e-07  -3.0867685003228858e-23  2.5037089277034066e-33  4.5518690858085950e-02  4.6766719969255563e-02  1.3439003587192645e-02  9.9478690310340817e-02  7.1436736899549810e-02  1.4344322704944579e-01  9.5005505798513535e-05  5.6713622293194765e-02  9.4275158862449759e-03  9.9161218153898362e-02  5.4973803383527524e-02  1.4461281891877170e-01  1.8341724411357110e-01  3.7143610786752137e-03  2.4380676874554811e-02  5.6743553528763514e-02  1.0126298498694558e-01  2.4497023208931959e-01  5.6480373442427954e-04  7.7094868489530163e-02  1.2547667538990354e-02  8.2938760419074276e-02  1.0230502729684982e-01  2.5123889344646738e-01  2.0668725556291551e-01  4.2664529530184687e-02  3.0760799213030373e-02  5.0089510686426843e-02  1.2318682386224795e-01  1.2464279667302863e-01  2.7251070182380259e-02  6.0425386068503326e-02  1.4916728238335186e-01  2.3407498813993982e-01  4.7626358932010414e-02  8.5059316652794037e-02  1.0892555389030903e-01  3.0909292821386214e-02  7.9550674106649608e-02  1.5274544051537967e-01  2.0296512917691228e-01  1.5054698900427979e-01  1.8039188772444711e-01  1.2499980588119070e-02  9.6667057834323653e-02  5.8060710448392519e-02  4.0332112358428497e-03  1.0550217986946460e-01  1.2545384832973419e-01  3.9400530849197139e-02  6.2392256830046289e-02  5.7361698080220340e-02  5.8926789119410829e-02  2.8029111554554741e-02  1.0139280473234763e-02  8.4781363746722366e-03  4.7350483521786890e-02  6.1982524885364860e-03  1.3364841611049541e-02  1.2492389705199515e-02  1.0873580857020052e-03  5.6900473180634883e-04  1.3366886575794993e-04  2.7104326284261752e-05  2.9770612820001468e-03  5.5773262957580069e-04  6.0145605724853891e-04  6.9880942409452653e-04  2.0956757698609024e-03  1.1892211024412123e-03  5.7509465163256665e-04  6.0541875060652747e-03  3.0144147354651167e-03  2.2201865684520639e-03  2.7898690587539322e-03  2.0533774204283340e-03  1.6390911585310853e-02  1.5465961479795520e-02  1.2992363554265337e-03  7.3118160650040591e-03  4.0618722556840774e-03  2.6632955082721128e-03  2.6202103658833037e-03  1.1749651442146966e-03  1.9575890191821806e-03  4.6089994997008709e-03  4.9764787135065580e-03  3.1339559557968040e-03  1.7955437826923716e-03  1.0123694877546949e-03  1.1538115649867722e-03  7.9860603590235107e-04  1.0549731758249879e-04  1.2812206624623725e-04  1.3127059908850321e-04  1.3759023198219348e-04  9.3051435602993388e-05  3.4587591535079850e-05  1.1299706814412261e-05  9.9605208736444037e-22  3.8518598887744717e-34  5.6041984790577617e-03  1.8614362214536079e-02  4.0021544135485421e-02  6.8995132353432687e-02  4.0325877625320528e-02  1.2374246890489818e-01  1.3426817799233904e-02  7.7848891584578568e-03  7.0413180947342294e-02  2.4742768221302915e-02  1.1521445132058347e-02  1.5456533383823216e-02  3.0464989830405576e-02  9.0616703152560957e-02  1.2065403406550861e-01  1.4605018973769148e-