<?xml version="1.0"?>
<VTKFile type="UnstructuredGrid"  version="0.1"  >
<UnstructuredGrid>
<Piece  NumberOfPoints="10201" NumberOfCells="20000">
<Points>
<DataArray  type="Float64"  NumberOfComponents="3"  format="ascii">0 0 0  0.01 0 0  0.02 0 0  0.03 0 0  0.04 0 0  0.05 0 0  0.06 0 0  0.07000000000000001 0 0  0.08 0 0  0.09 0 0  0.1 0 0  0.11 0 0  0.12 0 0  0.13 0 0  0.14 0 0  0.15 0 0  0.16 0 0  0.17 0 0  0.18 0 0  0.19 0 0  0.2 0 0  0.21 0 0  0.22 0 0  0.23 0 0  0.24 0 0  0.25 0 0  0.26 0 0  0.27 0 0  0.28 0 0  0.29 0 0  0.3 0 0  0.31 0 0  0.32 0 0  0.33 0 0  0.34 0 0  0.35 0 0  0.36 0 0  0.37 0 0  0.38 0 0  0.39 0 0  0.4 0 0  0.41 0 0  0.42 0 0  0.43 0 0  0.44 0 0  0.45 0 0  0.46 0 0  0.47 0 0  0.48 0 0  0.49 0 0  0.5 0 0  0.51 0 0  0.52 0 0  0.53 0 0  0.54 0 0  0.55 0 0  0.5600000000000001 0 0  0.57 0 0  0.58 0 0  0.59 0 0  0.6 0 0  0.61 0 0  0.62 0 0  0.63 0 0  0.64 0 0  0.65 0 0  0.66 0 0  0.67 0 0  0.68 0 0  0.6899999999999999 0 0  0.7 0 0  0.71 0 0  0.72 0 0  0.73 0 0  0.74 0 0  0.75 0 0  0.76 0 0  0.77 0 0  0.78 0 0  0.79 0 0  0.8 0 0  0.8100000000000001 0 0  0.82 0 0  0.83 0 0  0.84 0 0  0.85 0 0  0.86 0 0  0.87 0 0  0.88 0 0  0.89 0 0  0.9 0 0  0.91 0 0  0.92 0 0  0.93 0 0  0.9399999999999999 0 0  0.95 0 0  0.96 0 0  0.97 0 0  0.98 0 0  0.99 0 0  1 0 0  0 0.01 0  0.01 0.01 0  0.02 0.01 0  0.03 0.01 0  0.04 0.01 0  0.05 0.01 0  0.06 0.01 0  0.07000000000000001 0.01 0  0.08 0.01 0  0.09 0.01 0  0.1 0.01 0  0.11 0.01 0  0.12 0.01 0  0.13 0.01 0  0.14 0.01 0  0.15 0.01 0  0.16 0.01 0  0.17 0.01 0  0.18 0.01 0  0.19 0.01 0  0.2 0.01 0  0.21 0.01 0  0.22 0.01 0  0.23 0.01 0  0.24 0.01 0  0.25 0.01 0  0.26 0.01 0  0.27 0.01 0  0.28 0.01 0  0.29 0.01 0  0.3 0.01 0  0.31 0.01 0  0.32 0.01 0  0.33 0.01 0  0.34 0.01 0  0.35 0.01 0  0.36 0.01 0  0.37 0.01 0  0.38 0.01 0  0.39 0.01 0  0.4 0.01 0  0.41 0.01 0  0.42 0.01 0  0.43 0.01 0  0.44 0.01 0  0.45 0.01 0  0.46 0.01 0  0.47 0.01 0  0.48 0.01 0  0.49 0.01 0  0.5 0.01 0  0.51 0.01 0  0.52 0.01 0  0.53 0.01 0  0.54 0.01 0  0.55 0.01 0  0.5600000000000001 0.01 0  0.57 0.01 0  0.58 0.01 0  0.59 0.01 0  0.6 0.01 0  0.61 0.01 0  0.62 0.01 0  0.63 0.01 0  0.64 0.01 0  0.65 0.01 0  0.66 0.01 0  0.67 0.01 0  0.68 0.01 0  0.6899999999999999 0.01 0  0.7 0.01 0  0.71 0.01 0  0.72 0.01 0  0.73 0.01 0  0.74 0.01 0  0.75 0.01 0  0.76 0.01 0  0.77 0.01 0  0.78 0.01 0  0.79 0.01 0  0.8 0.01 0  0.8100000000000001 0.01 0  0.82 0.01 0  0.83 0.01 0  0.84 0.01 0  0.85 0.01 0  0.86 0.01 0  0.87 0.01 0  0.88 0.01 0  0.89 0.01 0  0.9 0.01 0  0.91 0.01 0  0.92 0.01 0  0.93 0.01 0  0.9399999999999999 0.01 0  0.95 0.01 0  0.96 0.01 0  0.97 0.01 0  0.98 0.01 0  0.99 0.01 0  1 0.01 0  0 0.02 0  0.01 0.02 0  0.02 0.02 0  0.03 0.02 0  0.04 0.02 0  0.05 0.02 0  0.06 0.02 0  0.07000000000000001 0.02 0  0.08 0.02 0  0.09 0.02 0  0.1 0.02 0  0.11 0.02 0  0.12 0.02 0  0.13 0.02 0  0.14 0.02 0  0.15 0.02 0  0.16 0.02 0  0.17 0.02 0  0.18 0.02 0  0.19 0.02 0  0.2 0.02 0  0.21 0.02 0  0.22 0.02 0  0.23 0.02 0  0.24 0.02 0  0.25 0.02 0  0.26 0.02 0  0.27 0.02 0  0.28 0.02 0  0.29 0.02 0  0.3 0.02 0  0.31 0.02 0  0.32 0.02 0  0.33 0.02 0  0.34 0.02 0  0.35 0.02 0  0.36 0.02 0  0.37 0.02 0  0.38 0.02 0  0.39 0.02 0  0.4 0.02 0  0.41 0.02 0  0.42 0.02 0  0.43 0.02 0  0.44 0.02 0  0.45 0.02 0  0.46 0.02 0  0.47 0.02 0  0.48 0.02 0  0.49 0.02 0  0.5 0.02 0  0.51 0.02 0  0.52 0.02 0  0.53 0.02 0  0.54 0.02 0  0.55 0.02 0  0.5600000000000001 0.02 0  0.57 0.02 0  0.58 0.02 0  0.59 0.02 0  0.6 0.02 0  0.61 0.02 0  0.62 0.02 0  0.63 0.02 0  0.64 0.02 0  0.65 0.02 0  0.66 0.02 0  0.67 0.02 0  0.68 0.02 0  0.6899999999999999 0.02 0  0.7 0.02 0  0.71 0.02 0  0.72 0.02 0  0.73 0.02 0  0.74 0.02 0  0.75 0.02 0  0.76 0.02 0  0.77 0.02 0  0.78 0.02 0  0.79 0.02 0  0.8 0.02 0  0.8100000000000001 0.02 0  0.82 0.02 0  0.83 0.02 0  0.84 0.02 0  0.85 0.02 0  0.86 0.02 0  0.87 0.02 0  0.88 0.02 0  0.89 0.02 0  0.9 0.02 0  0.91 0.02 0  0.92 0.02 0  0.93 0.02 0  0.9399999999999999 0.02 0  0.95 0.02 0  0.96 0.02 0  0.97 0.02 0  0.98 0.02 0  0.99 0.02 0  1 0.02 0  0 0.03 0  0.01 0.03 0  0.02 0.03 0  0.03 0.03 0  0.04 0.03 0  0.05 0.03 0  0.06 0.03 0  0.07000000000000001 0.03 0  0.08 0.03 0  0.09 0.03 0  0.1 0.03 0  0.11 0.03 0  0.12 0.03 0  0.13 0.03 0  0.14 0.03 0  0.15 0.03 0  0.16 0.03 0  0.17 0.03 0  0.18 0.03 0  0.19 0.03 0  0.2 0.03 0  0.21 0.03 0  0.22 0.03 0  0.23 0.03 0  0.24 0.03 0  0.25 0.03 0  0.26 0.03 0  0.27 0.03 0  0.28 0.03 0  0.29 0.03 0  0.3 0.03 0  0.31 0.03 0  0.32 0.03 0  0.33 0.03 0  0.34 0.03 0  0.35 0.03 0  0.36 0.03 0  0.37 0.03 0  0.38 0.03 0  0.39 0.03 0  0.4 0.03 0  0.41 0.03 0  0.42 0.03 0  0.43 0.03 0  0.44 0.03 0  0.45 0.03 0  0.46 0.03 0  0.47 0.03 0  0.48 0.03 0  0.49 0.03 0  0.5 0.03 0  0.51 0.03 0  0.52 0.03 0  0.53 0.03 0  0.54 0.03 0  0.55 0.03 0  0.5600000000000001 0.03 0  0.57 0.03 0  0.58 0.03 0  0.59 0.03 0  0.6 0.03 0  0.61 0.03 0  0.62 0.03 0  0.63 0.03 0  0.64 0.03 0  0.65 0.03 0  0.66 0.03 0  0.67 0.03 0  0.68 0.03 0  0.6899999999999999 0.03 0  0.7 0.03 0  0.71 0.03 0  0.72 0.03 0  0.73 0.03 0  0.74 0.03 0  0.75 0.03 0  0.76 0.03 0  0.77 0.03 0  0.78 0.03 0  0.79 0.03 0  0.8 0.03 0  0.8100000000000001 0.03 0  0.82 0.03 0  0.83 0.03 0  0.84 0.03 0  0.85 0.03 0  0.86 0.03 0  0.87 0.03 0  0.88 0.03 0  0.89 0.03 0  0.9 0.03 0  0.91 0.03 0  0.92 0.03 0  0.93 0.03 0  0.9399999999999999 0.03 0  0.95 0.03 0  0.96 0.03 0  0.97 0.03 0  0.98 0.03 0  0.99 0.03 0  1 0.03 0  0 0.04 0  0.01 0.04 0  0.02 0.04 0  0.03 0.04 0  0.04 0.04 0  0.05 0.04 0  0.06 0.04 0  0.07000000000000001 0.04 0  0.08 0.04 0  0.09 0.04 0  0.1 0.04 0  0.11 0.04 0  0.12 0.04 0  0.13 0.04 0  0.14 0.04 0  0.15 0.04 0  0.16 0.04 0  0.17 0.04 0  0.18 0.04 0  0.19 0.04 0  0.2 0.04 0  0.21 0.04 0  0.22 0.04 0  0.23 0.04 0  0.24 0.04 0  0.25 0.04 0  0.26 0.04 0  0.27 0.04 0  0.28 0.04 0  0.29 0.04 0  0.3 0.04 0  0.31 0.04 0  0.32 0.04 0  0.33 0.04 0  0.34 0.04 0  0.35 0.04 0  0.36 0.04 0  0.37 0.04 0  0.38 0.04 0  0.39 0.04 0  0.4 0.04 0  0.41 0.04 0  0.42 0.04 0  0.43 0.04 0  0.44 0.04 0  0.45 0.04 0  0.46 0.04 0  0.47 0.04 0  0.48 0.04 0  0.49 0.04 0  0.5 0.04 0  0.51 0.04 0  0.52 0.04 0  0.53 0.04 0  0.54 0.04 0  0.55 0.04 0  0.5600000000000001 0.04 0  0.57 0.04 0  0.58 0.04 0  0.59 0.04 0  0.6 0.04 0  0.61 0.04 0  0.62 0.04 0  0.63 0.04 0  0.64 0.04 0  0.65 0.04 0  0.66 0.04 0  0.67 0.04 0  0.68 0.04 0  0.6899999999999999 0.04 0  0.7 0.04 0  0.71 0.04 0  0.72 0.04 0  0.73 0.04 0  0.74 0.04 0  0.75 0.04 0  0.76 0.04 0  0.77 0.04 0  0.78 0.04 0  0.79 0.04 0  0.8 0.04 0  0.8100000000000001 0.04 0  0.82 0.04 0  0.83 0.04 0  0.84 0.04 0  0.85 0.04 0  0.86 0.04 0  0.87 0.04 0  0.88 0.04 0  0.89 0.04 0  0.9 0.04 0  0.91 0.04 0  0.92 0.04 0  0.93 0.04 0  0.9399999999999999 0.04 0  0.95 0.04 0  0.96 0.04 0  0.97 0.04 0  0.98 0.04 0  0.99 0.04 0  1 0.04 0  0 0.05 0  0.01 0.05 0  0.02 0.05 0  0.03 0.05 0  0.04 0.05 0  0.05 0.05 0  0.06 0.05 0  0.07000000000000001 0.05 0  0.08 0.05 0  0.09 0.05 0  0.1 0.05 0  0.11 0.05 0  0.12 0.05 0  0.13 0.05 0  0.14 0.05 0  0.15 0.05 0  0.16 0.05 0  0.17 0.05 0  0.18 0.05 0  0.19 0.05 0  0.2 0.05 0  0.21 0.05 0  0.22 0.05 0  0.23 0.05 0  0.24 0.05 0  0.25 0.05 0  0.26 0.05 0  0.27 0.05 0  0.28 0.05 0  0.29 0.05 0  0.3 0.05 0  0.31 0.05 0  0.32 0.05 0  0.33 0.05 0  0.34 0.05 0  0.35 0.05 0  0.36 0.05 0  0.37 0.05 0  0.38 0.05 0  0.39 0.05 0  0.4 0.05 0  0.41 0.05 0  0.42 0.05 0  0.43 0.05 0  0.44 0.05 0  0.45 0.05 0  0.46 0.05 0  0.47 0.05 0  0.48 0.05 0  0.49 0.05 0  0.5 0.05 0  0.51 0.05 0  0.52 0.05 0  0.53 0.05 0  0.54 0.05 0  0.55 0.05 0  0.5600000000000001 0.05 0  0.57 0.05 0  0.58 0.05 0  0.59 0.05 0  0.6 0.05 0  0.61 0.05 0  0.62 0.05 0  0.63 0.05 0  0.64 0.05 0  0.65 0.05 0  0.66 0.05 0  0.67 0.05 0  0.68 0.05 0  0.6899999999999999 0.05 0  0.7 0.05 0  0.71 0.05 0  0.72 0.05 0  0.73 0.05 0  0.74 0.05 0  0.75 0.05 0  0.76 0.05 0  0.77 0.05 0  0.78 0.05 0  0.79 0.05 0  0.8 0.05 0  0.8100000000000001 0.05 0  0.82 0.05 0  0.83 0.05 0  0.84 0.05 0  0.85 0.05 0  0.86 0.05 0  0.87 0.05 0  0.88 0.05 0  0.89 0.05 0  0.9 0.05 0  0.91 0.05 0  0.92 0.05 0  0.93 0.05 0  0.9399999999999999 0.05 0  0.95 0.05 0  0.96 0.05 0  0.97 0.05 0  0.98 0.05 0  0.99 0.05 0  1 0.05 0  0 0.06 0  0.01 0.06 0  0.02 0.06 0  0.03 0.06 0  0.04 0.06 0  0.05 0.06 0  0.06 0.06 0  0.07000000000000001 0.06 0  0.08 0.06 0  0.09 0.06 0  0.1 0.06 0  0.11 0.06 0  0.12 0.06 0  0.13 0.06 0  0.14 0.06 0  0.15 0.06 0  0.16 0.06 0  0.17 0.06 0  0.18 0.06 0  0.19 0.06 0  0.2 0.06 0  0.21 0.06 0  0.22 0.06 0  0.23 0.06 0  0.24 0.06 0  0.25 0.06 0  0.26 0.06 0  0.27 0.06 0  0.28 0.06 0  0.29 0.06 0  0.3 0.06 0  0.31 0.06 0  0.32 0.06 0  0.33 0.06 0  0.34 0.06 0  0.35 0.06 0  0.36 0.06 0  0.37 0.06 0  0.38 0.06 0  0.39 0.06 0  0.4 0.06 0  0.41 0.06 0  0.42 0.06 0  0.43 0.06 0  0.44 0.06 0  0.45 0.06 0  0.46 0.06 0  0.47 0.06 0  0.48 0.06 0  0.49 0.06 0  0.5 0.06 0  0.51 0.06 0  0.52 0.06 0  0.53 0.06 0  0.54 0.06 0  0.55 0.06 0  0.5600000000000001 0.06 0  0.57 0.06 0  0.58 0.06 0  0.59 0.06 0  0.6 0.06 0  0.61 0.06 0  0.62 0.06 0  0.63 0.06 0  0.64 0.06 0  0.65 0.06 0  0.66 0.06 0  0.67 0.06 0  0.68 0.06 0  0.6899999999999999 0.06 0  0.7 0.06 0  0.71 0.06 0  0.72 0.06 0  0.73 0.06 0  0.74 0.06 0  0.75 0.06 0  0.76 0.06 0  0.77 0.06 0  0.78 0.06 0  0.79 0.06 0  0.8 0.06 0  0.8100000000000001 0.06 0  0.82 0.06 0  0.83 0.06 0  0.84 0.06 0  0.85 0.06 0  0.86 0.06 0  0.87 0.06 0  0.88 0.06 0  0.89 0.06 0  0.9 0.06 0  0.91 0.06 0  0.92 0.06 0  0.93 0.06 0  0.9399999999999999 0.06 0  0.95 0.06 0  0.96 0.06 0  0.97 0.06 0  0.98 0.06 0  0.99 0.06 0  1 0.06 0  0 0.07000000000000001 0  0.01 0.07000000000000001 0  0.02 0.07000000000000001 0  0.03 0.07000000000000001 0  0.04 0.07000000000000001 0  0.05 0.07000000000000001 0  0.06 0.07000000000000001 0  0.07000000000000001 0.07000000000000001 0  0.08 0.07000000000000001 0  0.09 0.07000000000000001 0  0.1 0.07000000000000001 0  0.11 0.07000000000000001 0  0.12 0.07000000000000001 0  0.13 0.07000000000000001 0  0.14 0.07000000000000001 0  0.15 0.07000000000000001 0  0.16 0.07000000000000001 0  0.17 0.0700
[...]
<PointData  Scalars="Indicator Function"> 
<DataArray  type="Float64"  Name="Indicator Function"  format="ascii">-2.9923383620685695e-19  1.1289464963191333e-18  2.1319974246432185e-17  7.5078639371170151e-19  5.7161852197346500e-17  -1.4978774870261349e-19  -5.7256842635923583e-20  2.2429482131642074e-17  1.0249944091886949e-16  -1.0899002255598819e-19  3.0864212349402956e-17  2.9454713306962630e-17  -2.0860573899174428e-20  -4.0094588801848607e-19  2.0323882736334172e-16  1.2037062152420224e-34  -2.9813093844509002e-19  2.3557378609868825e-16  -5.0156528613306185e-19  -6.3659878632471362e-19  5.4394051788341956e-16  -1.2130541446082450e-18  -6.3202006879366434e-19  3.0968983370889866e-17  -2.2193044705227791e-19  -5.1887916900734253e-19  -5.2710193335341023e-19  -5.7167175952645814e-19  8.4077538953635595e-16  -8.5026011173764796e-19  -1.8207234369561716e-18  -9.1036171847808618e-19  -9.4294294452055423e-19  -1.1575861925826322e-18  5.0645354424026909e-17  -4.8364048887232252e-19  -2.2681967724717668e-18  -3.8460146574558794e-18  -4.2913196384713602e-18  -3.5360808019758346e-18  4.7130433487279903e-16  -8.3050121061811505e-20  -9.5717440911051020e-19  -8.3101235308755562e-19  -9.9367773025029720e-19  -4.9683886512512607e-19  1.3275087691593989e-16  -5.7388121571853403e-19  -1.5573430984808763e-19  -3.9855318199790249e-19  -1.9927659099895129e-19  -2.2465759688694333e-19  -4.7438795508155087e-20  -3.9663977354991205e-19  -1.9280781320137545e-19  2.7685242950566515e-34  2.2803010541544873e-31  -1.9442889893630559e-20  -2.2569491535787920e-36  -8.8992461731971395e-21  -3.7615819226313200e-37  -1.0945788177269207e-21  -1.9212302383349155e-20  -1.7378864745672298e-20  -1.2830425845524911e-20  -1.1255279973157246e-20  -1.3417024706864785e-20  6.5451525453784968e-35  1.3102379076997450e-17  -2.7965722644482290e-20  -7.7886068362283739e-21  -3.3293912124077555e-21  -1.6828437631010346e-21  -6.0183980774673346e-20  -1.0113796493471474e-19  -5.5683854541796811e-20  -2.0016570794880771e-20  -4.1753650765905165e-20  -4.8081748752117464e-20  -4.0632582342279074e-20  -1.8013508087648184e-20  2.9452009565748225e-18  -2.7254116198576708e-20  -4.3922995297563320e-20  -4.2372303303659724e-20  -3.3806420442956431e-20  -2.0347996815900964e-20  -9.5456997927605796e-21  -7.5004120636824622e-21  -3.8176348439395785e-21  -9.4039548065783001e-38  -9.4039548065783001e-38  -4.1248740183758748e-22  1.9471812284818281e-19  -9.0536293788608346e-22  -6.5759541750856080e-22  -4.1839135084855203e-22  -1.5521340033679087e-22  -2.9241529160822376e-22  -1.3823895623520223e-22  9.4039548065783001e-38  0.0000000000000000e+00  1.1341262870505651e-02  2.0189568645258234e-02  4.3564008378050058e-03  5.9662593143709431e-03  1.2708820713812567e-03  2.0628951612763928e-03  1.2771565303934286e-03  1.6770691491433030e-02  1.5794111892746623e-02  1.9633896998809837e-03  2.1255502405246828e-02  7.5158138271245447e-04  1.4445598015005948e-02  1.1061783443012878e-02  2.5877517825126099e-02  1.0741299066311690e-02  8.3564177139763374e-04  1.8070793885846665e-02  2.2935888455011582e-02  1.6825858430621819e-02  2.7451434026447358e-02  2.1852440774551708e-02  1.1385461385239408e-02  7.9958870291744442e-03  1.8694592257534236e-02  1.8990848565093497e-02  1.0827979756970141e-02  4.8843330142411918e-03  1.1151377803547063e-02  9.7412355877851339e-03  3.2799237568882172e-02  2.3319056082314393e-02  5.3270219331404290e-03  1.8189708015687252e-02  9.2616232549950963e-03  1.2244047217741385e-02  3.4738176948356542e-02  5.1914552238540773e-02  5.1348265979718845e-02  3.8026235738661936e-02  2.0673466128602963e-02  1.4960979770681977e-03  1.6494872260260567e-02  6.7227515646912902e-03  1.7900506622726388e-02  2.4427692953548304e-02  7.7946764504337298e-03  1.0338124917059667e-02  2.8054599192025961e-03  7.1796958477323165e-03  4.6758174886329948e-03  1.7091627341874586e-03  2.6670749849047478e-03  5.8116894529864314e-03  5.6747205625812074e-04  1.2052315898863173e-03  8.3721055894386354e-04  1.5887273705062312e-04  2.1516491626215206e-04  5.2732108866879727e-05  3.9436358045140777e-05  1.2694861691474375e-04  2.8262376296095024e-04  1.7175791369045284e-04  1.4525344738241659e-04  2.3650662442070074e-04  1.2344631767067762e-04  9.0770866120394521e-05  4.4634307512072250e-04  2.8061413476298706e-04  1.1995396018856141e-04  6.0630836355396614e-05  3.5425351311426523e-04  1.0784366530483076e-03  1.2827212782478125e-03  3.6175050713604966e-04  3.6058648309224072e-04  5.7187366257663286e-04  5.8022695176511549e-04  4.4185805490059812e-04  1.7281412766033009e-04  2.6768029271012731e-04  4.7015380368214125e-04  5.5616943917933821e-04  4.8522683788709706e-04  3.6638891109496693e-04  2.4476742510270917e-04  1.7210364331852186e-04  1.1319627074629464e-04  5.2543216735518931e-05  1.7287105499536152e-05  1.1928988997032281e-06  7.4307124368432277e-06  1.1432708396108746e-05  1.0969748060017184e-05  8.5759492134162710e-06  5.5921520953574309e-06  5.7420459797076698e-07  4.9805832943115412e-06  1.3823895623520275e-22  -7.3284364553124728e-19  1.7866999951180508e-03  5.0618155858839576e-03  1.3928415403137071e-03  6.5146823693387652e-03  2.0626449568395017e-02  4.7866303088469593e-03  1.5097634249289378e-02  4.1061484977220879e-03  1.1209397536484388e-02  2.7436784624505616e-02  2.0631799561181614e-02  8.6682074759732840e-03  3.4239315329707316e-02  3.7747562874836701e-02  2.2131702341036799e-02  9.6764256534840679e-03  4.1875862706049420e-02  1.5078285880119162e-02  8.8415147883807565e-03  5.7996634862286954e-03  2.1427102441279995e-02  2.7233283125892144e-02  2.9231097671367785e-02  1.5783834064863281e-02  1.1505804731001018e-04  1.5210803510054709e-02  2.4108471497188776e-02  3.8060079767866906e-02  1.9186776571991925e-02  3.3838892002688276e-02  4.1122904109006604e-02  9.5720939939199969e-03  2.9178607199635029e-02  2.0920373594011776e-02  2.0247512735713034e-02  1.1723530874427360e-02  3.8525116160586480e-02  6.0842240682131649e-02  6.4703630896514555e-02  7.6732949418279031e-02  3.8847098735862111e-02  8.5639476284493383e-03  2.9968063778755736e-03  2.1562210912979784e-02  1.6863369882730659e-02  8.3915051846437123e-03  6.9433964122642194e-03  1.3750063074557775e-02  8.5133431700137614e-03  1.3121337713578396e-02  3.0075336948205602e-03  3.3553128723966910e-03  1.5195896322265185e-03  1.0952453157558561e-02  2.3629721877850007e-03  2.2527314293130263e-04  1.7951663235860772e-03  7.7210173541795968e-04  1.4134289786702585e-04  2.5844306771217242e-04  2.9916267307228381e-05  3.5153372640649905e-05  4.4612468340604844e-04  2.9229748879210782e-04  2.3310988136412316e-04  2.3541203380095610e-04  3.7141049584547104e-04  1.0148989226699219e-05  4.0896280680483666e-04  7.2705048097336533e-04  1.3909846273322255e-04  9.3586043799040534e-05  3.8389362399082180e-05  1.1151161610018199e-03  1.8972808513115459e-03  1.0890219158204196e-03  3.7503544510278071e-04  7.6592087019727243e-04  6.8301767486881454e-04  7.2607642858438400e-04  3.3457330759546929e-04  2.5311746650767431e-04  5.9624511934888529e-04  7.7523546585406007e-04  7.1613406434119188e-04  5.4772926086609907e-04  3.9062343976276634e-04  2.6395506793009830e-04  1.9604332544560847e-04  1.0551787355015341e-04  3.4943862983869899e-05  3.5324486065266497e-06  1.1400002930666322e-05  2.0880934021260369e-05  2.3247354107974395e-05  2.1242489637166442e-05  1.6978223452015787e-05  1.0139032062242915e-05  2.7011468993720137e-06  -1.6660636213821301e-21  3.8518598887744717e-34  1.4879114105430816e-02  5.8887522503631154e-03  2.9082368250637834e-02  1.5316911267357593e-02  2.1671047112581501e-04  4.3893865631992423e-04  3.9585988171820087e-04  1.2495489664039829e-03  3.1086578865197133e-02  5.2230405902302240e-02  3.1163037151592882e-02  3.2893705888319420e-02  2.3587733896205703e-02  1.3114023129027239e-02  2.4261346724006518e-02  6.7729796986038593e-02  6.7392359189979642e-03  4.3151305769891591e-03  2.9127595564968963e-02  5.1648820596116064e-02  4.9580359814192190e-02  7.2265595894878923e-02  7.4653476005646147e-02  4.9914443287857060e-02  2.4303174336194514e-02  3.7381051681507536e-02  4.3675810593673217e-02  2.0745532463900443e-02  2.1245866584508905e-02  2.9191502646147189e-02  2.7161466542520739e-02  8.1339373004979190e-02  6.2477750004754432e-02  1.3381262549680491e-03  3.0312290143777013e-02  1.1539386086323260e-02  3.3081217312002607e-02  6.4663728081528662e-02  8.4253076853694389e-02  6.8950835991738471e-02  5.6045171776968661e-02  2.9627071246428837e-02  1.7188497974769738e-02  2.4432698098843113e-02  4.4181173149799718e-03  4.6989728318876246e-02  6.4448486936403579e-02  3.1035245546125967e-02  2.9082308326243644e-02  1.6528892096388376e-02  2.0847239107407337e-02  1.4345181113482436e-02  3.4346997175930334e-04  5.8582568154727770e-03  1.2547839868519154e-02  3.5591132303568170e-03  1.4823673438308480e-03  1.9322704255463081e-03  2.8004616400129480e-04  4.0168843017044878e-04  9.5257700480805575e-05  2.5459838535551984e-05  1.9184545820384903e-04  5.7161362617821801e-04  2.2036382801598019e-04  2.3792501832139992e-04  4.1273350042546315e-04  2.1796238428258794e-04  1.4250109594287285e-05  8.8628395692867202e-04  4.5474653897656570e-04  5.5953679751045125e-04  2.1004743428794021e-04  5.7846353323883599e-04  1.9623246732858148e-03  2.0366486649656267e-03  5.0836592229367298e-05  9.9758689773579994e-04  8.0644497940662526e-04  6.4643984929093560e-04  6.0162780549140413e-04  1.2380716060264235e-04  5.0619967857047361e-04  8.9397530705242394e-04  8.8642630616515806e-04  6.6691557663151187e-04  4.7698277166451216e-04  3.2922156419619420e-04  2.5145745874009069e-04  1.7555506636204957e-04  7.2314132523734946e-05  1.7162810937596519e-05  4.6019702361915194e-06  1.8861683772476490e-05  2.7686057425951559e-05  2.8108909456182464e-05  2.5685814434034006e-05  2.2309611905888514e-05  1.1850097291575841e-05  -1.6445313571444623e-21  -3.0078097931925506e-19  6.5924960259795889e-03  7.4924047292731222e-03  1.2816041598560840e-02  2.1933589916876248e-04  2.2454241535500435e-03  2.0582031266134733e-02  2.3223875694805041e-02  2.2988190897862745e-02  1.3164633662589718e-02  3.5478018646950393e-03  1.6822593383791492e-02  3.0400539408801230e-02  3.8459193322950141e-02  3.5280820444490095e-02  7.6071663781990553e-02  3.1258122594444174e-04  2.4298306070239099e-03  5.4855034081072070e-02  3.5714382536048243e-02  2.9541568727445164e-02  3.0928469257114056e-02  3.3330498491690127e-03  1.3195425520167191e-02  1.6697917470782607e-02  1.3693330461436587e-02  5.7950021405063674e-03  4.0461125322853106e-02  5.4960210438539929e-02  6.2431015049350148e-02  2.9697449712615086e-02  4.8942489535271159e-02  5.7945736524343844e-02  3.2599675137021944e-02  7.1817150447787970e-02  1.5877790773302473e-02  2.1406179263162073e-02  2.0117156883639440e-02  5.3244230751599210e-02  7.8053878319093425e-02  8.2570953581354051e-02  9.0152319603443151e-02  3.1180527904989791e-02  1.9444519079583469e-02  2.9338172838007763e-03  3.1285220791572969e-02  2.9787077935823626e-02  6.8977568637023749e-03  3.4528723415169993e-02  1.5044490272546035e-03  6.9134298298883998e-03  1.2070443893401804e-02  7.1446923703597539e-04  9.5998107349639390e-03  7.5836587572562645e-04  1.7402155495069661e-02  3.5366733299134691e-03  3.8005019523135483e-03  2.4088475850409441e-03  1.3007276523451297e-03  1.1915974601948256e-04  4.3933112277186375e-04  2.6174592731787674e-05  8.5501205365402357e-05  5.7368345574232546e-04  3.9672315304151428e-04  2.2452564407825945e-04  2.6053206910338784e-04  5.3167674738561078e-04  1.1693949334262933e-04  4.2911692224805392e-04  1.1277803739946398e-03  3.2194813261638902e-04  3.8251993118975698e-04  2.3332301138985709e-04  1.4370619938766569e-03  2.5791419066335448e-03  1.2364975715245979e-03  1.1521532435893815e-03  1.1997813131449926e-03  6.4761911972441148e-04  6.7120866587566414e-04  2.7824213869255651e-04  1.3688851227858383e-04  8.4059148944251930e-04  1.0483718045127164e-03  8.3934339791830691e-04  5.5679048435704377e-04  3.8365980591425423e-04  2.7455588367728434e-04  2.3210296100296002e-04  1.3166744187513896e-04  4.1847508500638441e-05  7.7353326180076638e-06  7.3708368858806268e-06  2.0641965672725450e-05  2.6400943811767772e-05  2.5854244231856890e-05  2.2912612556554044e-05  1.7402482931262672e-05  4.3471433780851743e-21  -9.4748567878351274e-19  2.9012281120841338e-02  2.5563642057302022e-02  3.0757646566275075e-03  3.3011302611151726e-02  3.1699155795623150e-02  3.8690085402576894e-03  1.1847351604223059e-02  8.2870571421018533e-03  1.5882588618268557e-02  2.9188786542454329e-02  6.0998857516141258e-02  5.8345878899353283e-02  1.5575319952788377e-02  2.5599664976230084e-02  1.1243642638782973e-02  4.7192210389281584e-03  8.2052438021799942e-02  2.7324482226769628e-02  2.0518124616019106e-02  1.5821968186282873e-02  5.1350103883590813e-02  5.4431841515502628e-02  8.7259496682676949e-02  1.0193706723004202e-01  7.8113293153758201e-02  3.8512767943822787e-02  3.7522610293544971e-02  4.2529473353978359e-02  1.3873156287092769e-02  4.6840551301775578e-02  5.1041103364497444e-02  4.5679283899906269e-02  1.1828282050052048e-01  6.8052611060882923e-02  1.6387494400370323e-02  3.7930028806407126e-02  1.3900764365598730e-02  4.8538528545088826e-02  8.0678631537696888e-02  9.4364995383027200e-02  7.2214038231805347e-02  6.9178698317984275e-02  2.5404922021966907e-02  3.9354168213678431e-02  2.4937731800548649e-02  4.2899728154736491e-03  6.6533773377737818e-02  7.7430736067400460e-02  3.3687221007053861e-02  3.6312409235774640e-02  2.7371265744168316e-02  2.9454329179371169e-02  1.9505754949186053e-02  1.7087091652735261e-03  6.4993131880793798e-03  1.8861728059045717e-02  6.2606962650346128e-03  3.8234579344091955e-04  2.5958711668342808e-03  3.4953522134380829e-04  4.0091317733801035e-04  1.4070515707465743e-04  2.8283805126576882e-05  1.6594402471644364e-04  7.1790241131112727e-04  2.1201540673922969e-04  2.3687836419807097e-04  4.2610662790237651e-04  3.2289963630112775e-04  1.8678131069694247e-04  1.0600572912739950e-03  7.1399375882880622e-04  9.2879461593057882e-04  1.9900528423803216e-04  3.8720763502642699e-04  2.3815113684921246e-03  2.5419927298951880e-03  3.0808033455881416e-04  1.6772719998417460e-03  1.0006792187154140e-03  5.2073903597791779e-04  5.8068645643203493e-04  1.6674611985435896e-05  4.6390718460138968e-04  1.1296265349128552e-03  1.0364902822464842e-03  6.8981615824434362e-04  4.4130123549877685e-04  3.0325559284841982e-04  2.5385835768535636e-04  1.9597807504943617e-04  8.3025294193209465e-05  2.1746348421034430e-05  2.7611819144447657e-06  1.0267220639936304e-05  2.0463898449014314e-05  2.1787641392250861e-05  1.9614991557006989e-05  1.5266412783787375e-05  -8.4745614879962765e-22  -1.2467079204717374e-19  1.8500957379979661e-02  3.6394480607845497e-03  5.6522584052592665e-03  2.6649605365426560e-02  1.5579937549967197e-02  2.2637681035107518e-03  1.4627681136907333e-02  2.7966220205477017e-02  2.1351494068755118e-02  1.1298234555960674e-02  1.2754594254931076e-02  6.9264230348936107e-03  7.4421149415379168e-03  5.4296937594841992e-02  1.6589204102860071e-02  7.9690464484790502e-02  1.4366999908042051e-02  1.7632246608716470e-02  4.2839958016519145e-02  3.4474273389479934e-02  3.2854921121023527e-02  4.8605158567092355e-02  1.5015373127659333e-02  1.0091986079278118e-02  1.6382085841080102e-02  7.9451823510171132e-03  1.1863350479929440e-02  5.4233065937225378e-02  7.5386428398475966e-02  6.9569662706952390e-02  1.9664986641469949e-02  6.2195269802341704e-02  5.5829252209358249e-02  5.8913823559614019e-02  1.0109323709157594e-01  1.0827971168214325e-02  2.4231893178546748e-02  1.9026716477123135e-02  6.4582626482455857e-02  9.3257756157709731e-02  9.5995061977692059e-02  9.0364734712363934e-02  2.8882819988621938e-02  2.1668976340004118e-02  1.4699802900570491e-02  3.7756193480633318e-02  3.6932204159727609e-02  2.5290655465380410e-02  6.0258701873354401e-02  1.4079422320621487e-02  2.7503810508431909e-03  2.8538914898514310e-03  9.2181341886533198e-03  1.7229644970138749e-02  3.4900186503756094e-04  2.0214113360695247e-02  6.9248967624793148e-03  8.0571562350417823e-03  2.2655304145193398e-03  1.8434984973239620e-03  7.8597111582324306e-05  4.6413929556965422e-04  5.2529587778783644e-05  5.1753456140423410e-05  6.1810104799010139e-04  5.2404623793883011e-04  1.8986312346649836e-04  2.8224329422312893e-04  5.7516558571568861e-04  9.9805825122858206e-05  2.7271825408492001e-04  1.4095689980121642e-03  2.6509574069042238e-04  7.5802553359887890e-04  4.3524933396315587e-04  1.4643785189572892e-03  3.0843165770178768e-03  1.5007817152372148e-03  1.7218674741735487e-03  1.6650146506745924e-03  6.4313932161878535e-04  4.9955782784319002e-04  2.5697814089515605e-04  3.0827778319480122e-05  9.3147020475674172e-04  1.2697535601278679e-03  9.0336430615658829e-04  5.2251900601493230e-04  3.3250131551566732e-04  2.5444976383067960e-04  2.4013016877167390e-04  1.4385037689156556e-04  4.5201536222770725e-05  1.0623665430943671e-05  1.4536379370710953e-06  1.3907257523896677e-05  1.9521330027026342e-05  1.7575450448340730e-05  1.2163831407034786e-05  -6.7522828478743077e-22  -3.8154735174901920e-19  2.2458693304305555e-03  1.1602327092743935e-02  6.2335422577943769e-03  2.0766659403054694e-02  2.1529478822929844e-02  3.5544429499866803e-02  2.1888676749571429e-03  2.2886486808022320e-02  1.7153300045704742e-02  2.3262453200963842e-02  2.1208781551951154e-02  5.0582133977719324e-02  4.9756488550161015e-02  7.3310181910272347e-03  5.0841557456239184e-03  1.6255405612281226e-02  1.9492372947479079e-02  7.0842105450383872e-02  2.2305378562622980e-02  2.1314119716512970e-02  3.0935495912655753e-03  3.8356087036975683e-02  3.6178340482077270e-02  7.3276463194980171e-02  8.9840039191408608e-02  6.9163456869637929e-02  3.5097947243196155e-02  2.9839799926308162e-02  2.7539842005945687e-02  1.1669927909510060e-03  6.3186854069258350e-02  6.5147199284630336e-02  5.5147686400960259e-02  1.3603939755858555e-01  5.2158686257558061e-02  4.8491054606307100e-02  3.8591751770030144e-02  1.4149407007501938e-02  5.8649104947173056e-02  9.3313084648133413e-02  1.0243399219155243e-01  8.1564665509858247e-02  7.6623520552948063e-02  1.6331612620233183e-02  5.2146043099491599e-02  2.8127655145443915e-02  4.6045007532404987e-03  7.6041422595487698e-02  6.9315431085858886e-02  1.3156547936009736e-02  2.5284091202344042e-02  2.4087361644708257e-02  2.7264909799839341e-02  1.6338877402521820e-02  7.0074612019397423e-03  8.0656272241647828e-03  2.3324806283234800e-02  5.7895799843571145e-03  4.0990039777433667e-03  3.0487651378903798e-03  5.9556102600253518e-04  4.0088387858856550e-04  1.5766781251602032e-04  1.7367089845392226e-05  2.3229038562859228e-04  7.9905829263626413e-04  2.9425586620601441e-04  2.3387069676481813e-04  4.4913069332442967e-04  4.1359371777217917e-04  2.5484053908329606e-04  1.0315583664213960e-03  1.0032003473793127e-03  1.0494756940256852e-03  5.9260985099717685e-05  1.2183824378553264e-04  2.6157198468206742e-03  3.0284268728239592e-03  2.9299776169067210e-04  2.3634443439289150e-03  1.2790091919055952e-03  4.1234986144004289e-04  4.2314909195369693e-04  7.9557873739829021e-05  3.1076010505795776e-04  1.3118057895756356e-03  1.2138902877026068e-03  7.0696634772358870e-04  3.8632894636912713e-04  2.5221507515616918e-04  2.4095095423598927e-04  2.0340475811688878e-04  8.9439785533577932e-05  2.2641349907582901e-05  4.5968041836083494e-06  6.6933331548609172e-06  1.6487710575221622e-05  1.7175220867361988e-05  1.1915793469617710e-05  -1.6536485333309569e-21  -1.8212110833203850e-19  7.1211478137661616e-03  7.0679780165270522e-03  7.6314209251171425e-03  1.0045450758851148e-02  1.2804787788396738e-02  2.9581350848593462e-02  4.9170119999495769e-03  6.6963713828015947e-03  2.2320725754231292e-02  2.0217374384333228e-02  5.8787062952845659e-03  4.5684924829343145e-03  1.0018527317034266e-02  1.2160359268733670e-02  4.4578468764584454e-02  1.0928227060203532e-02 