<?xml version="1.0"?>
<VTKFile type="UnstructuredGrid"  version="0.1"  >
<UnstructuredGrid>
<Piece  NumberOfPoints="10201" NumberOfCells="20000">
<Points>
<DataArray  type="Float64"  NumberOfComponents="3"  format="ascii">0 0 0  0.01 0 0  0.02 0 0  0.03 0 0  0.04 0 0  0.05 0 0  0.06 0 0  0.07000000000000001 0 0  0.08 0 0  0.09 0 0  0.1 0 0  0.11 0 0  0.12 0 0  0.13 0 0  0.14 0 0  0.15 0 0  0.16 0 0  0.17 0 0  0.18 0 0  0.19 0 0  0.2 0 0  0.21 0 0  0.22 0 0  0.23 0 0  0.24 0 0  0.25 0 0  0.26 0 0  0.27 0 0  0.28 0 0  0.29 0 0  0.3 0 0  0.31 0 0  0.32 0 0  0.33 0 0  0.34 0 0  0.35 0 0  0.36 0 0  0.37 0 0  0.38 0 0  0.39 0 0  0.4 0 0  0.41 0 0  0.42 0 0  0.43 0 0  0.44 0 0  0.45 0 0  0.46 0 0  0.47 0 0  0.48 0 0  0.49 0 0  0.5 0 0  0.51 0 0  0.52 0 0  0.53 0 0  0.54 0 0  0.55 0 0  0.5600000000000001 0 0  0.57 0 0  0.58 0 0  0.59 0 0  0.6 0 0  0.61 0 0  0.62 0 0  0.63 0 0  0.64 0 0  0.65 0 0  0.66 0 0  0.67 0 0  0.68 0 0  0.6899999999999999 0 0  0.7 0 0  0.71 0 0  0.72 0 0  0.73 0 0  0.74 0 0  0.75 0 0  0.76 0 0  0.77 0 0  0.78 0 0  0.79 0 0  0.8 0 0  0.8100000000000001 0 0  0.82 0 0  0.83 0 0  0.84 0 0  0.85 0 0  0.86 0 0  0.87 0 0  0.88 0 0  0.89 0 0  0.9 0 0  0.91 0 0  0.92 0 0  0.93 0 0  0.9399999999999999 0 0  0.95 0 0  0.96 0 0  0.97 0 0  0.98 0 0  0.99 0 0  1 0 0  0 0.01 0  0.01 0.01 0  0.02 0.01 0  0.03 0.01 0  0.04 0.01 0  0.05 0.01 0  0.06 0.01 0  0.07000000000000001 0.01 0  0.08 0.01 0  0.09 0.01 0  0.1 0.01 0  0.11 0.01 0  0.12 0.01 0  0.13 0.01 0  0.14 0.01 0  0.15 0.01 0  0.16 0.01 0  0.17 0.01 0  0.18 0.01 0  0.19 0.01 0  0.2 0.01 0  0.21 0.01 0  0.22 0.01 0  0.23 0.01 0  0.24 0.01 0  0.25 0.01 0  0.26 0.01 0  0.27 0.01 0  0.28 0.01 0  0.29 0.01 0  0.3 0.01 0  0.31 0.01 0  0.32 0.01 0  0.33 0.01 0  0.34 0.01 0  0.35 0.01 0  0.36 0.01 0  0.37 0.01 0  0.38 0.01 0  0.39 0.01 0  0.4 0.01 0  0.41 0.01 0  0.42 0.01 0  0.43 0.01 0  0.44 0.01 0  0.45 0.01 0  0.46 0.01 0  0.47 0.01 0  0.48 0.01 0  0.49 0.01 0  0.5 0.01 0  0.51 0.01 0  0.52 0.01 0  0.53 0.01 0  0.54 0.01 0  0.55 0.01 0  0.5600000000000001 0.01 0  0.57 0.01 0  0.58 0.01 0  0.59 0.01 0  0.6 0.01 0  0.61 0.01 0  0.62 0.01 0  0.63 0.01 0  0.64 0.01 0  0.65 0.01 0  0.66 0.01 0  0.67 0.01 0  0.68 0.01 0  0.6899999999999999 0.01 0  0.7 0.01 0  0.71 0.01 0  0.72 0.01 0  0.73 0.01 0  0.74 0.01 0  0.75 0.01 0  0.76 0.01 0  0.77 0.01 0  0.78 0.01 0  0.79 0.01 0  0.8 0.01 0  0.8100000000000001 0.01 0  0.82 0.01 0  0.83 0.01 0  0.84 0.01 0  0.85 0.01 0  0.86 0.01 0  0.87 0.01 0  0.88 0.01 0  0.89 0.01 0  0.9 0.01 0  0.91 0.01 0  0.92 0.01 0  0.93 0.01 0  0.9399999999999999 0.01 0  0.95 0.01 0  0.96 0.01 0  0.97 0.01 0  0.98 0.01 0  0.99 0.01 0  1 0.01 0  0 0.02 0  0.01 0.02 0  0.02 0.02 0  0.03 0.02 0  0.04 0.02 0  0.05 0.02 0  0.06 0.02 0  0.07000000000000001 0.02 0  0.08 0.02 0  0.09 0.02 0  0.1 0.02 0  0.11 0.02 0  0.12 0.02 0  0.13 0.02 0  0.14 0.02 0  0.15 0.02 0  0.16 0.02 0  0.17 0.02 0  0.18 0.02 0  0.19 0.02 0  0.2 0.02 0  0.21 0.02 0  0.22 0.02 0  0.23 0.02 0  0.24 0.02 0  0.25 0.02 0  0.26 0.02 0  0.27 0.02 0  0.28 0.02 0  0.29 0.02 0  0.3 0.02 0  0.31 0.02 0  0.32 0.02 0  0.33 0.02 0  0.34 0.02 0  0.35 0.02 0  0.36 0.02 0  0.37 0.02 0  0.38 0.02 0  0.39 0.02 0  0.4 0.02 0  0.41 0.02 0  0.42 0.02 0  0.43 0.02 0  0.44 0.02 0  0.45 0.02 0  0.46 0.02 0  0.47 0.02 0  0.48 0.02 0  0.49 0.02 0  0.5 0.02 0  0.51 0.02 0  0.52 0.02 0  0.53 0.02 0  0.54 0.02 0  0.55 0.02 0  0.5600000000000001 0.02 0  0.57 0.02 0  0.58 0.02 0  0.59 0.02 0  0.6 0.02 0  0.61 0.02 0  0.62 0.02 0  0.63 0.02 0  0.64 0.02 0  0.65 0.02 0  0.66 0.02 0  0.67 0.02 0  0.68 0.02 0  0.6899999999999999 0.02 0  0.7 0.02 0  0.71 0.02 0  0.72 0.02 0  0.73 0.02 0  0.74 0.02 0  0.75 0.02 0  0.76 0.02 0  0.77 0.02 0  0.78 0.02 0  0.79 0.02 0  0.8 0.02 0  0.8100000000000001 0.02 0  0.82 0.02 0  0.83 0.02 0  0.84 0.02 0  0.85 0.02 0  0.86 0.02 0  0.87 0.02 0  0.88 0.02 0  0.89 0.02 0  0.9 0.02 0  0.91 0.02 0  0.92 0.02 0  0.93 0.02 0  0.9399999999999999 0.02 0  0.95 0.02 0  0.96 0.02 0  0.97 0.02 0  0.98 0.02 0  0.99 0.02 0  1 0.02 0  0 0.03 0  0.01 0.03 0  0.02 0.03 0  0.03 0.03 0  0.04 0.03 0  0.05 0.03 0  0.06 0.03 0  0.07000000000000001 0.03 0  0.08 0.03 0  0.09 0.03 0  0.1 0.03 0  0.11 0.03 0  0.12 0.03 0  0.13 0.03 0  0.14 0.03 0  0.15 0.03 0  0.16 0.03 0  0.17 0.03 0  0.18 0.03 0  0.19 0.03 0  0.2 0.03 0  0.21 0.03 0  0.22 0.03 0  0.23 0.03 0  0.24 0.03 0  0.25 0.03 0  0.26 0.03 0  0.27 0.03 0  0.28 0.03 0  0.29 0.03 0  0.3 0.03 0  0.31 0.03 0  0.32 0.03 0  0.33 0.03 0  0.34 0.03 0  0.35 0.03 0  0.36 0.03 0  0.37 0.03 0  0.38 0.03 0  0.39 0.03 0  0.4 0.03 0  0.41 0.03 0  0.42 0.03 0  0.43 0.03 0  0.44 0.03 0  0.45 0.03 0  0.46 0.03 0  0.47 0.03 0  0.48 0.03 0  0.49 0.03 0  0.5 0.03 0  0.51 0.03 0  0.52 0.03 0  0.53 0.03 0  0.54 0.03 0  0.55 0.03 0  0.5600000000000001 0.03 0  0.57 0.03 0  0.58 0.03 0  0.59 0.03 0  0.6 0.03 0  0.61 0.03 0  0.62 0.03 0  0.63 0.03 0  0.64 0.03 0  0.65 0.03 0  0.66 0.03 0  0.67 0.03 0  0.68 0.03 0  0.6899999999999999 0.03 0  0.7 0.03 0  0.71 0.03 0  0.72 0.03 0  0.73 0.03 0  0.74 0.03 0  0.75 0.03 0  0.76 0.03 0  0.77 0.03 0  0.78 0.03 0  0.79 0.03 0  0.8 0.03 0  0.8100000000000001 0.03 0  0.82 0.03 0  0.83 0.03 0  0.84 0.03 0  0.85 0.03 0  0.86 0.03 0  0.87 0.03 0  0.88 0.03 0  0.89 0.03 0  0.9 0.03 0  0.91 0.03 0  0.92 0.03 0  0.93 0.03 0  0.9399999999999999 0.03 0  0.95 0.03 0  0.96 0.03 0  0.97 0.03 0  0.98 0.03 0  0.99 0.03 0  1 0.03 0  0 0.04 0  0.01 0.04 0  0.02 0.04 0  0.03 0.04 0  0.04 0.04 0  0.05 0.04 0  0.06 0.04 0  0.07000000000000001 0.04 0  0.08 0.04 0  0.09 0.04 0  0.1 0.04 0  0.11 0.04 0  0.12 0.04 0  0.13 0.04 0  0.14 0.04 0  0.15 0.04 0  0.16 0.04 0  0.17 0.04 0  0.18 0.04 0  0.19 0.04 0  0.2 0.04 0  0.21 0.04 0  0.22 0.04 0  0.23 0.04 0  0.24 0.04 0  0.25 0.04 0  0.26 0.04 0  0.27 0.04 0  0.28 0.04 0  0.29 0.04 0  0.3 0.04 0  0.31 0.04 0  0.32 0.04 0  0.33 0.04 0  0.34 0.04 0  0.35 0.04 0  0.36 0.04 0  0.37 0.04 0  0.38 0.04 0  0.39 0.04 0  0.4 0.04 0  0.41 0.04 0  0.42 0.04 0  0.43 0.04 0  0.44 0.04 0  0.45 0.04 0  0.46 0.04 0  0.47 0.04 0  0.48 0.04 0  0.49 0.04 0  0.5 0.04 0  0.51 0.04 0  0.52 0.04 0  0.53 0.04 0  0.54 0.04 0  0.55 0.04 0  0.5600000000000001 0.04 0  0.57 0.04 0  0.58 0.04 0  0.59 0.04 0  0.6 0.04 0  0.61 0.04 0  0.62 0.04 0  0.63 0.04 0  0.64 0.04 0  0.65 0.04 0  0.66 0.04 0  0.67 0.04 0  0.68 0.04 0  0.6899999999999999 0.04 0  0.7 0.04 0  0.71 0.04 0  0.72 0.04 0  0.73 0.04 0  0.74 0.04 0  0.75 0.04 0  0.76 0.04 0  0.77 0.04 0  0.78 0.04 0  0.79 0.04 0  0.8 0.04 0  0.8100000000000001 0.04 0  0.82 0.04 0  0.83 0.04 0  0.84 0.04 0  0.85 0.04 0  0.86 0.04 0  0.87 0.04 0  0.88 0.04 0  0.89 0.04 0  0.9 0.04 0  0.91 0.04 0  0.92 0.04 0  0.93 0.04 0  0.9399999999999999 0.04 0  0.95 0.04 0  0.96 0.04 0  0.97 0.04 0  0.98 0.04 0  0.99 0.04 0  1 0.04 0  0 0.05 0  0.01 0.05 0  0.02 0.05 0  0.03 0.05 0  0.04 0.05 0  0.05 0.05 0  0.06 0.05 0  0.07000000000000001 0.05 0  0.08 0.05 0  0.09 0.05 0  0.1 0.05 0  0.11 0.05 0  0.12 0.05 0  0.13 0.05 0  0.14 0.05 0  0.15 0.05 0  0.16 0.05 0  0.17 0.05 0  0.18 0.05 0  0.19 0.05 0  0.2 0.05 0  0.21 0.05 0  0.22 0.05 0  0.23 0.05 0  0.24 0.05 0  0.25 0.05 0  0.26 0.05 0  0.27 0.05 0  0.28 0.05 0  0.29 0.05 0  0.3 0.05 0  0.31 0.05 0  0.32 0.05 0  0.33 0.05 0  0.34 0.05 0  0.35 0.05 0  0.36 0.05 0  0.37 0.05 0  0.38 0.05 0  0.39 0.05 0  0.4 0.05 0  0.41 0.05 0  0.42 0.05 0  0.43 0.05 0  0.44 0.05 0  0.45 0.05 0  0.46 0.05 0  0.47 0.05 0  0.48 0.05 0  0.49 0.05 0  0.5 0.05 0  0.51 0.05 0  0.52 0.05 0  0.53 0.05 0  0.54 0.05 0  0.55 0.05 0  0.5600000000000001 0.05 0  0.57 0.05 0  0.58 0.05 0  0.59 0.05 0  0.6 0.05 0  0.61 0.05 0  0.62 0.05 0  0.63 0.05 0  0.64 0.05 0  0.65 0.05 0  0.66 0.05 0  0.67 0.05 0  0.68 0.05 0  0.6899999999999999 0.05 0  0.7 0.05 0  0.71 0.05 0  0.72 0.05 0  0.73 0.05 0  0.74 0.05 0  0.75 0.05 0  0.76 0.05 0  0.77 0.05 0  0.78 0.05 0  0.79 0.05 0  0.8 0.05 0  0.8100000000000001 0.05 0  0.82 0.05 0  0.83 0.05 0  0.84 0.05 0  0.85 0.05 0  0.86 0.05 0  0.87 0.05 0  0.88 0.05 0  0.89 0.05 0  0.9 0.05 0  0.91 0.05 0  0.92 0.05 0  0.93 0.05 0  0.9399999999999999 0.05 0  0.95 0.05 0  0.96 0.05 0  0.97 0.05 0  0.98 0.05 0  0.99 0.05 0  1 0.05 0  0 0.06 0  0.01 0.06 0  0.02 0.06 0  0.03 0.06 0  0.04 0.06 0  0.05 0.06 0  0.06 0.06 0  0.07000000000000001 0.06 0  0.08 0.06 0  0.09 0.06 0  0.1 0.06 0  0.11 0.06 0  0.12 0.06 0  0.13 0.06 0  0.14 0.06 0  0.15 0.06 0  0.16 0.06 0  0.17 0.06 0  0.18 0.06 0  0.19 0.06 0  0.2 0.06 0  0.21 0.06 0  0.22 0.06 0  0.23 0.06 0  0.24 0.06 0  0.25 0.06 0  0.26 0.06 0  0.27 0.06 0  0.28 0.06 0  0.29 0.06 0  0.3 0.06 0  0.31 0.06 0  0.32 0.06 0  0.33 0.06 0  0.34 0.06 0  0.35 0.06 0  0.36 0.06 0  0.37 0.06 0  0.38 0.06 0  0.39 0.06 0  0.4 0.06 0  0.41 0.06 0  0.42 0.06 0  0.43 0.06 0  0.44 0.06 0  0.45 0.06 0  0.46 0.06 0  0.47 0.06 0  0.48 0.06 0  0.49 0.06 0  0.5 0.06 0  0.51 0.06 0  0.52 0.06 0  0.53 0.06 0  0.54 0.06 0  0.55 0.06 0  0.5600000000000001 0.06 0  0.57 0.06 0  0.58 0.06 0  0.59 0.06 0  0.6 0.06 0  0.61 0.06 0  0.62 0.06 0  0.63 0.06 0  0.64 0.06 0  0.65 0.06 0  0.66 0.06 0  0.67 0.06 0  0.68 0.06 0  0.6899999999999999 0.06 0  0.7 0.06 0  0.71 0.06 0  0.72 0.06 0  0.73 0.06 0  0.74 0.06 0  0.75 0.06 0  0.76 0.06 0  0.77 0.06 0  0.78 0.06 0  0.79 0.06 0  0.8 0.06 0  0.8100000000000001 0.06 0  0.82 0.06 0  0.83 0.06 0  0.84 0.06 0  0.85 0.06 0  0.86 0.06 0  0.87 0.06 0  0.88 0.06 0  0.89 0.06 0  0.9 0.06 0  0.91 0.06 0  0.92 0.06 0  0.93 0.06 0  0.9399999999999999 0.06 0  0.95 0.06 0  0.96 0.06 0  0.97 0.06 0  0.98 0.06 0  0.99 0.06 0  1 0.06 0  0 0.07000000000000001 0  0.01 0.07000000000000001 0  0.02 0.07000000000000001 0  0.03 0.07000000000000001 0  0.04 0.07000000000000001 0  0.05 0.07000000000000001 0  0.06 0.07000000000000001 0  0.07000000000000001 0.07000000000000001 0  0.08 0.07000000000000001 0  0.09 0.07000000000000001 0  0.1 0.07000000000000001 0  0.11 0.07000000000000001 0  0.12 0.07000000000000001 0  0.13 0.07000000000000001 0  0.14 0.07000000000000001 0  0.15 0.07000000000000001 0  0.16 0.07000000000000001 0  0.17 0.0700
[...]
<PointData  Scalars="u"> 
<DataArray  type="Float64"  Name="u"  format="ascii">0.0000000000000000e+00  0.0000000000000000e+00  0.0000000000000000e+00  0.0000000000000000e+00  0.0000000000000000e+00  0.0000000000000000e+00  0.0000000000000000e+00  0.0000000000000000e+00  0.0000000000000000e+00  0.0000000000000000e+00  0.0000000000000000e+00  0.0000000000000000e+00  0.0000000000000000e+00  0.0000000000000000e+00  0.0000000000000000e+00  0.0000000000000000e+00  0.0000000000000000e+00  0.0000000000000000e+00  0.0000000000000000e+00  0.0000000000000000e+00  0.0000000000000000e+00  0.0000000000000000e+00  0.0000000000000000e+00  0.0000000000000000e+00  0.0000000000000000e+00  0.0000000000000000e+00  0.0000000000000000e+00  0.0000000000000000e+00  0.0000000000000000e+00  0.0000000000000000e+00  0.0000000000000000e+00  0.0000000000000000e+00  0.0000000000000000e+00  0.0000000000000000e+00  0.0000000000000000e+00  0.0000000000000000e+00  0.0000000000000000e+00  0.0000000000000000e+00  0.0000000000000000e+00  0.0000000000000000e+00  0.0000000000000000e+00  0.0000000000000000e+00  0.0000000000000000e+00  0.0000000000000000e+00  0.0000000000000000e+00  0.0000000000000000e+00  0.0000000000000000e+00  0.0000000000000000e+00  0.0000000000000000e+00  0.0000000000000000e+00  0.0000000000000000e+00  0.0000000000000000e+00  0.0000000000000000e+00  0.0000000000000000e+00  0.0000000000000000e+00  0.0000000000000000e+00  0.0000000000000000e+00  0.0000000000000000e+00  0.0000000000000000e+00  0.0000000000000000e+00  0.0000000000000000e+00  0.0000000000000000e+00  0.0000000000000000e+00  0.0000000000000000e+00  0.0000000000000000e+00  0.0000000000000000e+00  0.0000000000000000e+00  0.0000000000000000e+00  0.0000000000000000e+00  0.0000000000000000e+00  0.0000000000000000e+00  0.0000000000000000e+00  0.0000000000000000e+00  0.0000000000000000e+00  0.0000000000000000e+00  0.0000000000000000e+00  0.0000000000000000e+00  0.0000000000000000e+00  0.0000000000000000e+00  0.0000000000000000e+00  0.0000000000000000e+00  0.0000000000000000e+00  0.0000000000000000e+00  0.0000000000000000e+00  0.0000000000000000e+00  0.0000000000000000e+00  0.0000000000000000e+00  0.0000000000000000e+00  0.0000000000000000e+00  0.0000000000000000e+00  0.0000000000000000e+00  0.0000000000000000e+00  0.0000000000000000e+00  0.0000000000000000e+00  0.0000000000000000e+00  0.0000000000000000e+00  0.0000000000000000e+00  0.0000000000000000e+00  0.0000000000000000e+00  0.0000000000000000e+00  0.0000000000000000e+00  0.0000000000000000e+00  -1.7211970777071411e-02  -6.1873557137269886e-02  -1.9446292060404099e-02  -1.8462291538068661e-02  1.6186557655934884e-02  -1.4274385850420747e-02  -1.4539065744899052e-02  3.3987592743030752e-02  -5.4016360702007653e-02  -2.6162429550388873e-03  6.5369884387778771e-02  -2.1693758567324969e-02  -8.0141817089281780e-02  4.2699301259327679e-02  -1.9762417898925373e-02  -3.5730738996711639e-03  1.2550978652490108e-02  -3.3999299063097774e-02  8.7645564782792215e-02  -5.7853033645232706e-02  4.9748750813552074e-02  -6.0808709496155154e-02  2.0346174878514017e-02  -1.0724955175874150e-02  5.5421687621123962e-02  -6.1832056952774224e-02  3.5584933764894987e-02  -1.6838442486557033e-02  -9.7486650912062389e-03  5.3250434466689898e-03  4.9408048849504303e-02  -6.9570700196796370e-02  1.4022360398945289e-02  5.8096656780855975e-04  1.7805603562393976e-03  1.7957797979966134e-02  1.4095235829619940e-02  3.8677625502144111e-02  3.2726534465026425e-03  -2.7161148058966234e-02  -1.8221975766333203e-02  -8.9245471028915786e-03  -1.9558581392951083e-02  1.0628456988567186e-02  3.5475007200731823e-02  -4.2824386073954501e-02  2.0286996167853399e-02  -6.3383063038632160e-03  9.3021662551363345e-03  -9.4762219136929355e-03  9.5648865669696811e-03  2.0888145319895176e-03  -8.2212948802560335e-03  -2.4108852871719019e-03  3.8892529127552001e-03  5.1925215840014725e-03  -5.0002404142556033e-03  3.3650002005982875e-03  -1.4298445871699702e-03  9.8293606722875881e-04  -7.0648956871309759e-04  -3.6239762597807860e-04  2.3425914224445995e-04  -1.0740234536411079e-04  2.9316519232244726e-04  3.9010338441206602e-04  -1.3744666884524457e-04  2.2724205389811368e-04  1.0815903786848674e-03  -4.8246482719432735e-04  -6.0064679592963376e-04  7.9713887649645817e-04  -1.3450564486975022e-03  -3.0916410284541275e-03  -3.6436405212040960e-04  2.8236821125833447e-03  1.7655457781227781e-03  2.8919683498619794e-04  -1.2960699163309011e-04  -1.3164786257321452e-04  -2.8794868330164682e-04  2.6638740221607689e-04  7.3149835136502401e-04  4.1606041749005880e-04  -1.0443569634520876e-04  -2.2301942382885046e-04  -1.7680800839470077e-04  7.5774893145203286e-05  -3.3670171234347544e-05  -1.0301873041191253e-04  -6.3448192818579659e-05  -2.5760994208320770e-05  -1.6929151540168150e-05  4.5669530007710687e-06  1.0610698944377019e-05  1.2417280902468547e-05  1.3238962380568526e-05  1.2771354215666018e-05  1.0433938480826039e-05  0.0000000000000000e+00  0.0000000000000000e+00  -1.0555664657489002e-02  -1.6638451531629860e-02  4.6524727603764929e-02  -3.0775962280387103e-02  -5.9063130878085839e-02  -1.0022192723256407e-02  4.5546489641684978e-02  -3.3814931327882415e-02  -7.5030346353065019e-02  1.2223736679875694e-01  -8.9037302225007275e-02  -2.3872102179074855e-02  1.0283582338594115e-01  -1.0474178847935507e-01  -8.6262934235469935e-02  7.4091021134130242e-02  -4.3743671637407937e-02  6.6032619870518089e-02  -1.6494545360330879e-02  -1.4039476487524793e-02  9.2907246261779916e-02  -1.0563235109270443e-01  1.1891793852448781e-02  4.5339064299997199e-02  -2.2319768061841664e-02  -2.3318082153555072e-02  3.1558358246955333e-02  1.2133533759619930e-02  -3.9941135458868102e-03  -8.8567242305824787e-02  9.2949135128541638e-02  2.1710147975199573e-02  -5.8632298621634382e-02  -3.6942948408403252e-02  1.7891271650058851e-02  2.7930014640387208e-02  5.4243931385103701e-02  2.9014450924768370e-02  1.2024939564724019e-03  4.3853180900242560e-02  -4.4360365302030434e-02  -7.3636510049967019e-02  5.1440189287622212e-04  2.6936722268010378e-03  4.0949018384186214e-02  -3.0715159225963146e-02  1.9339670510695923e-02  -3.2223676945287646e-02  4.1286239941929169e-02  -2.6405630189676753e-02  1.5307974164885562e-02  2.9570990928271055e-04  7.2838577225145616e-03  -2.4120551506731005e-02  8.3703489526049130e-03  8.7174723420343977e-03  -2.3343848190232545e-04  -3.3672938892870914e-03  3.9854946657639006e-03  -2.1642973832534267e-03  1.7944960037042353e-03  -2.1518153044046856e-03  5.4877699440078942e-04  -1.4678939444809613e-04  1.6769241696891940e-04  6.1939898703811547e-04  5.1610921489740212e-04  -5.1681344337568998e-04  1.6110899579049312e-03  1.0680120964662442e-03  -1.8968737939693361e-03  4.4803505868563215e-04  4.9288475219970646e-04  -4.6540525421528579e-03  -4.4198375060271041e-03  2.7809433017026183e-03  4.9414812422533191e-03  1.5619905051791631e-03  -1.4804785109392927e-04  -1.9630322700107128e-04  -3.7896975964727152e-04  -1.9138489052104526e-04  1.0624197833708582e-03  1.2697123405637485e-03  2.3629138021012902e-04  -2.7712405713187829e-04  -4.3732866354539426e-04  -3.1833619910645628e-05  1.2679140721581826e-04  -1.3937553527835873e-04  -1.5851023316858847e-04  -7.3056110466691336e-05  -4.4306752383122105e-05  -2.4300311641342080e-05  6.4613680271708269e-06  4.3154725613279452e-06  8.9278430252431798e-06  1.1184713373739792e-05  1.8505058265473606e-05  0.0000000000000000e+00  0.0000000000000000e+00  4.7749937793731642e-02  4.4648092732863062e-02  -1.2410083674555734e-01  5.4046108967251941e-02  1.2440326590541848e-02  2.8870812940465090e-02  -5.7460628399938887e-02  1.1056438881612098e-02  7.1385149090806260e-02  -2.0173867831913983e-01  1.1667625383142773e-01  1.1499251263093248e-01  -1.4720492305923166e-01  -9.6706066331610330e-02  1.1929637274393319e-01  -1.3460219911401533e-01  2.0423413713232041e-02  1.8781561307051266e-05  -2.6955597518546436e-02  2.1109541208114693e-01  -1.9948048215055689e-01  1.8798122713525725e-01  -2.1576337549935351e-01  7.0244913830582442e-02  1.6718656844213673e-02  1.1631107752491178e-01  -1.9953795969790095e-01  1.1944063080951840e-01  -2.9856342477382981e-02  9.5663615039550938e-04  -4.5748831051428844e-02  1.3616112665466149e-01  -1.5274152558467721e-01  5.0001540079034734e-02  -2.9696026813332055e-02  -2.8189908030896993e-03  5.0766234642113245e-02  6.4093273277725141e-02  1.0205777653505392e-01  -2.5547245322499270e-02  -3.4843162836216336e-02  -3.1094345840272347e-02  -5.4603252221981667e-02  -4.6605347017385119e-02  3.9957458470745846e-02  1.0175541051968565e-01  -1.3383912317467375e-01  7.8312091066251963e-02  -4.1254123459665323e-02  4.5415029638413186e-02  -3.8892582853673072e-02  3.2843607835563948e-02  -4.5291332019808271e-05  -1.3697441933379195e-02  -1.5373283364593440e-02  1.3453440103641844e-02  1.4297445134692310e-02  -1.2507258620172108e-02  6.9081292739313627e-03  -2.3004558391823329e-03  1.5290766311124519e-03  -9.2711296125395936e-04  -1.4898052805433224e-03  8.6508394196325869e-04  -3.9218842384064668e-04  6.9221992005353682e-04  1.0327742892919146e-03  -1.7779631758546550e-04  2.2695537731364421e-04  3.0460336405504496e-03  -7.7029821367542142e-04  -2.1619977670651203e-03  2.1350291431700232e-03  -2.6866840675599810e-03  -8.3950706334582244e-03  -2.0974827768344526e-03  7.5153499531005431e-03  5.2387951246989327e-03  5.9854580285551549e-04  -6.5051176240592398e-04  -4.4260131189194574e-04  -7.6512873970389992e-04  5.5363237343601971e-04  1.9947958218927181e-03  1.2833308910661341e-03  -2.2662713226430633e-04  -5.4794757126226396e-04  -4.8978682458366077e-04  2.2697915334447921e-04  1.5376835393230228e-05  -2.3718793300899437e-04  -1.5930399511573324e-04  -6.3074471425281434e-05  -5.1926498147901290e-05  -9.4675155050759071e-06  6.9485781465382894e-06  2.1490750006307971e-06  -3.3608948697870978e-08  -1.5070714129419919e-06  0.0000000000000000e+00  0.0000000000000000e+00  -5.6508484487572556e-02  -5.1302580572069441e-02  6.4013145188273890e-02  3.8865628894820460e-02  -4.4634426316285114e-02  -5.9701726943810325e-02  6.1856467013732590e-02  6.4144776536488521e-02  -5.4579305154734609e-02  -2.9787788018229591e-02  8.1219719483830638e-02  -1.2826425931378505e-01  9.9543175992829816e-02  9.9323399091145431e-02  -2.8107845691977423e-01  -3.3155419348952553e-02  9.7746337542076622e-02  -6.8058256587147550e-02  8.7068568332802174e-02  -7.7742045533010867e-02  1.1327206074315320e-01  4.8544470945450724e-02  -8.4228178662581976e-02  -6.2398408927123575e-02  6.9794330104962929e-02  -4.0628181885113884e-02  6.2823582760722474e-02  -4.0279630955462206e-02  4.5860990263877445e-02  -3.7228926103204794e-02  -1.1799976105973387e-01  1.5038325149010651e-01  8.1694527086806842e-02  -1.8801059639876669e-01  -2.3089053261077953e-02  4.1178335116067014e-02  4.0014773989727061e-02  8.3481689427943914e-02  5.0776327277386311e-02  6.1537446298969602e-02  6.1244225738102315e-02  -1.0866798231548344e-01  -1.1456038285989632e-01  3.6399672593923275e-03  -2.1870039830007685e-02  6.9405672893235168e-02  1.0659248942431161e-02  -3.2095843080267875e-02  -1.6585464625788898e-02  5.0112672779756832e-02  -2.4673748263092578e-02  8.2443491523556626e-03  1.3082786780482865e-02  1.0750758021160203e-02  -4.3065572614165153e-02  8.7286095329030845e-03  1.7502768583191150e-02  4.4610701249749142e-03  -9.7825171376582625e-03  8.5822306091641511e-03  -4.5136497179550945e-03  3.3094837582260178e-03  -3.7481427953732823e-03  4.9925328807309485e-04  2.4964587450063997e-05  8.1019121629408833e-05  1.1347321571050588e-03  1.0916433920303322e-03  -9.7296820535021345e-04  2.4723258047284224e-03  2.6311641908794616e-03  -3.2561488113516824e-03  -6.9256995565399735e-05  1.6318663990651829e-03  -7.8980677536918675e-03  -9.4803188932913382e-03  3.7396026863990217e-03  1.0214899260030828e-02  3.9419086697684777e-03  -2.9942248701661078e-04  -7.3890956216845398e-04  -9.0254627699354187e-04  -6.6662201451548871e-04  1.7322547019561624e-03  2.5064830770996078e-03  6.8314295768313828e-04  -5.7496170437836447e-04  -8.5682088066837113e-04  -2.1801153620754174e-04  2.7515866042406045e-04  -1.8550383819808999e-04  -2.8601168266536474e-04  -1.3287458612550740e-04  -6.6450271109051389e-05  -4.2029130595961414e-05  9.2328170838457422e-06  5.4836274846448933e-06  4.5225437198270474e-06  -8.5264322738622659e-07  0.0000000000000000e+00  0.0000000000000000e+00  1.2959640625426050e-01  9.3814365399591731e-02  -1.6860975503284529e-02  -1.5052960203120647e-01  1.3946541062478773e-01  2.2522449532828469e-02  -1.2803232772313301e-02  -5.1248362226789919e-02  7.7099105161025056e-02  5.7495314132765644e-02  -2.3691026902698029e-01  2.4352369297637708e-01  3.5192327318199733e-02  -1.7041658031504983e-01  1.3456090003232491e-02  4.1503442222106723e-02  -2.3089638514813426e-01  7.8899475349280407e-02  -7.6029372197475896e-03  3.9311342231230034e-02  1.9393774625674673e-01  -2.2900132662484352e-01  2.6939098661855582e-01  -3.0518342597343517e-01  9.8686687270671286e-02  5.0702216475879844e-02  8.2014331186746336e-02  -2.3265945580586658e-01  1.6942437498152338e-01  -9.3317552037677758e-03  -1.9430698536142498e-02  -1.2821149594016903e-01  2.2010752576651182e-01  -1.3015257470800951e-01  7.1164957034812711e-03  -7.5960838742147596e-02  7.2272164304982714e-03  9.2866302231490575e-02  1.2028551043926247e-01  1.2266821376576746e-01  -3.1690309630520254e-02  5.7560067528901080e-03  -7.0297689039335115e-02  -1.2616982610335500e-01  -4.8995181828940436e-02  5.5091535426666394e-02  1.3650282643102354e-01  -1.6463795146533228e-01  9.9285889738374447e-02  -6.6306029141014813e-02  7.9866427685213362e-02  -5.9989364688447948e-02  4.6458235210480148e-02  1.4102416682707521e-03  -1.1254992351262889e-02  -3.4628173529125013e-02  2.1113248590870316e-02  2.1966889483462638e-02  -1.4035785951879190e-02  5.7451416168177085e-03  -4.6018281631810622e-04  4.9834693289069719e-04  -2.2714015075736376e-04  -3.0047431536688119e-03  1.2586116107182099e-03  -5.8655558123260523e-04  8.0433609487001755e-04  1.5798401259827398e-03  6.2226766506612695e-05  -9.4223293435704794e-05  4.5055454338410782e-03  -1.6542413878344197e-04  -3.8263796338515415e-03  2.5943908398769907e-03  -2.7598143828477814e-03  -1.2746987829452539e-02  -5.5138376189483888e-03  1.0499368107658670e-02  9.6200938445549361e-03  1.8871759501716257e-03  -8.8268524134650639e-04  -7.9555114130475308e-04  -1.2706616587933402e-03  3.9833498596392891e-04  2.9143254697432076e-03  2.2445065639993991e-03  -1.3469944810768416e-04  -8.9280221812275309e-04  -8.8099091874391862e-04  1.6078631509994825e-04  7.0638899554734057e-05  -3.5366736100595582e-04  -2.7767688245051411e-04  -1.1408008662425884e-04  -7.7816599480899900e-05  -1.8683274203871801e-05  1.5971364636587689e-05  7.7148643864399131e-06  2.4385827500752628e-06  0.0000000000000000e+00  0.0000000000000000e+00  -1.1507825187742207e-01  -5.2647963619160916e-02  2.9548135748266924e-02  1.3281387217238994e-01  -4.8274161857421262e-02  -3.1763007406531339e-02  -2.5958091141175373e-02  9.5512103831143003e-02  3.6450542239866282e-02  -2.7743224982833832e-02  -2.5817230400339286e-03  -3.0551250665459346e-02  -7.9602374247928192e-03  1.7112256088978584e-01  -1.4140724517173377e-02  -3.0554431950938965e-01  4.7638112842852284e-02  2.9464553013122400e-02  -6.0515786102851264e-02  6.1180192387656686e-02  -4.6150368237812885e-02  2.2602976983897205e-01  -4.6614578651229630e-02  -8.9591220666170718e-04  -1.8833493224571107e-01  1.0673658433067734e-01  5.4693382165067724e-03  1.1359207147190610e-01  -1.5513986374566105e-01  9.1715497624918069e-02  -4.2893376758099698e-02  -9.7392689862371401e-02  1.2678375446883425e-01  1.2835246074760714e-01  -2.6708259384533883e-01  1.3119094719431283e-02  3.0392224563859972e-02  3.2676069402901395e-02  1.0537501820079710e-01  1.0361419578270135e-01  1.2638232478629272e-01  3.3438512451177987e-02  -1.2818056957213600e-01  -1.2795312334727343e-01  -3.3313322599751005e-02  -4.9130301137184564e-02  9.8056309917141066e-02  6.0896939693730341e-02  -1.0304083949721922e-01  2.5726483264897709e-02  2.7844419230193103e-02  2.6083011436007532e-03  -1.3538056712371908e-02  3.2889574072483101e-02  8.3990524464097206e-03  -4.8847878205887776e-02  -1.9381801470265496e-03  2.7837466116040425e-02  9.4179201651014080e-03  -1.3783290818424294e-02  1.0496771882041128e-02  -4.8001472175766679e-03  3.5394625803436036e-03  -4.1170525288184382e-03  -2.1085658392720714e-04  3.7600323611067092e-04  -1.1729587395126435e-04  1.4058371701644499e-03  1.6060035651805390e-03  -1.1515178714382884e-03  2.7053478900988305e-03  4.1360523090162591e-03  -3.6594816022573521e-03  -1.2696270304362615e-03  2.4309788961492684e-03  -9.6616264570961296e-03  -1.4129377013757665e-02  2.7432664678187441e-03  1.4475115296677976e-02  7.0798446247542102e-03  2.8977570154598048e-05  -1.0908753938832728e-03  -1.2476231683983328e-03  -1.0226091008285034e-03  2.0728871615894352e-03  3.5865693602890989e-03  1.3136125600195980e-03  -7.3256881876900372e-04  -1.2222196675367280e-03  -4.9546224168362115e-04  2.9080660612758314e-04  -2.1025600730050528e-04  -4.2688841833295860e-04  -2.3309505556258942e-04  -1.1576510025486764e-04  -7.3120069678564911e-05  -2.8821615481326899e-07  1.1296327974643741e-05  9.0317054564547802e-06  0.0000000000000000e+00  0.0000000000000000e+00  5.2553981921299973e-02  4.3130103581030317e-02  -2.3903212425647236e-02  -1.1112752919849507e-01  -7.5451468907447611e-02  1.6358808257364740e-01  2.8140942347132615e-03  -5.9310924551370776e-02  -1.2105607408880401e-02  9.6749384175409958e-02  3.6201578708852475e-02  -1.8232090149330432e-01  2.0150681836883363e-01  -9.0956164007821062e-03  -6.1550809669890051e-02  3.0144271763965294e-02  -1.0374680872181689e-01  -1.9946497973317731e-01  9.8808325060398050e-02  8.8692510177972011e-03  6.2088323242851587e-02  1.2584996234079571e-01  -1.1875901693684526e-01  2.3619649119897479e-01  -2.6506366567912643e-01  4.0752932200278182e-02  6.2295003484044938e-02  5.1226708433742565e-02  -1.5122060488397915e-01  1.2928743398702000e-01  2.7076360505186779e-02  -7.4156535864233292e-02  -1.5187640485457576e-01  2.7485071888748347e-01  -6.5705703114091338e-02  -1.0733611349180469e-01  -7.9397044138126524e-02  2.5425667086972675e-02  1.2362005046883069e-01  1.5243062195183554e-01  1.3266346202694879e-01  1.8013038752214789e-02  2.4943242722214778e-02  -1.2500702163135549e-01  -1.6925664937791068e-01  -4.9714020307747700e-02  4.4752137204278175e-02  1.5380206449719022e-01  -1.2986471947940242e-01  5.0748736158704934e-02  -4.7164506096537467e-02  8.1373469385272762e-02  -5.4083956368102891e-02  3.8241246445561476e-02  1.4623549413860839e-02  -1.2286266373864820e-02  -4.8012711157931133e-02  2.0563927037870994e-02  3.0794175942475712e-02  -1.1783783259614175e-02  2.6293338511501362e-03  1.8658013921482473e-03  -3.8160415186032446e-04  3.7797721355786545e-04  -3.8887475003833577e-03  1.2600542947022058e-03  -4.1876620107354691e-04  7.9480006164805864e-04  1.9975128182995196e-03  4.9033129777486888e-04  -3.9852730855509199e-04  5.2942060604306423e-03  9.2435190799678151e-04  -4.8936232815814202e-03  2.1087797271032004e-03  -2.3222344617401000e-03  -1.5784034129955684e-02  -9.5549339497154311e-03  1.1589904794877173e-02  1.4120863499468740e-02  3.9964264263089950e-03  -9.9253762999554481e-04  -1.2135519357570857e-03  -1.7066317178337611e-03  1.9995346615825187e-04  3.6094471869155716e-03  3.2897580244366249e-03  2.4208713843951844e-04  -1.1628242049437198e-03  -1.2144092853456658e-03  -1.7989825376981568e-05  1.0596483067694875e-04  -4.2323350652274618e-04  -4.0480379479978157e-04  -1.9209660167092993e-04  -1.2057425729626952e-04  -4.8068579534341917e-05  4.4050906008441439e-06  5.1487373707312759e-06  0.0000000000000000e+00  0.0000000000000000e+00  -1.1183984317656692e-02  1.9598063775721562e-02  3.5413055594185068e-02  6.6642163494351578e-02  4.1537726660328372e-02  -1.3092839333324643e-01  -2.8600961935580783e