<?xml version="1.0"?>
<VTKFile type="UnstructuredGrid"  version="0.1"  >
<UnstructuredGrid>
<Piece  NumberOfPoints="10201" NumberOfCells="20000">
<Points>
<DataArray  type="Float64"  NumberOfComponents="3"  format="ascii">0 0 0  0.01 0 0  0.02 0 0  0.03 0 0  0.04 0 0  0.05 0 0  0.06 0 0  0.07000000000000001 0 0  0.08 0 0  0.09 0 0  0.1 0 0  0.11 0 0  0.12 0 0  0.13 0 0  0.14 0 0  0.15 0 0  0.16 0 0  0.17 0 0  0.18 0 0  0.19 0 0  0.2 0 0  0.21 0 0  0.22 0 0  0.23 0 0  0.24 0 0  0.25 0 0  0.26 0 0  0.27 0 0  0.28 0 0  0.29 0 0  0.3 0 0  0.31 0 0  0.32 0 0  0.33 0 0  0.34 0 0  0.35 0 0  0.36 0 0  0.37 0 0  0.38 0 0  0.39 0 0  0.4 0 0  0.41 0 0  0.42 0 0  0.43 0 0  0.44 0 0  0.45 0 0  0.46 0 0  0.47 0 0  0.48 0 0  0.49 0 0  0.5 0 0  0.51 0 0  0.52 0 0  0.53 0 0  0.54 0 0  0.55 0 0  0.5600000000000001 0 0  0.57 0 0  0.58 0 0  0.59 0 0  0.6 0 0  0.61 0 0  0.62 0 0  0.63 0 0  0.64 0 0  0.65 0 0  0.66 0 0  0.67 0 0  0.68 0 0  0.6899999999999999 0 0  0.7 0 0  0.71 0 0  0.72 0 0  0.73 0 0  0.74 0 0  0.75 0 0  0.76 0 0  0.77 0 0  0.78 0 0  0.79 0 0  0.8 0 0  0.8100000000000001 0 0  0.82 0 0  0.83 0 0  0.84 0 0  0.85 0 0  0.86 0 0  0.87 0 0  0.88 0 0  0.89 0 0  0.9 0 0  0.91 0 0  0.92 0 0  0.93 0 0  0.9399999999999999 0 0  0.95 0 0  0.96 0 0  0.97 0 0  0.98 0 0  0.99 0 0  1 0 0  0 0.01 0  0.01 0.01 0  0.02 0.01 0  0.03 0.01 0  0.04 0.01 0  0.05 0.01 0  0.06 0.01 0  0.07000000000000001 0.01 0  0.08 0.01 0  0.09 0.01 0  0.1 0.01 0  0.11 0.01 0  0.12 0.01 0  0.13 0.01 0  0.14 0.01 0  0.15 0.01 0  0.16 0.01 0  0.17 0.01 0  0.18 0.01 0  0.19 0.01 0  0.2 0.01 0  0.21 0.01 0  0.22 0.01 0  0.23 0.01 0  0.24 0.01 0  0.25 0.01 0  0.26 0.01 0  0.27 0.01 0  0.28 0.01 0  0.29 0.01 0  0.3 0.01 0  0.31 0.01 0  0.32 0.01 0  0.33 0.01 0  0.34 0.01 0  0.35 0.01 0  0.36 0.01 0  0.37 0.01 0  0.38 0.01 0  0.39 0.01 0  0.4 0.01 0  0.41 0.01 0  0.42 0.01 0  0.43 0.01 0  0.44 0.01 0  0.45 0.01 0  0.46 0.01 0  0.47 0.01 0  0.48 0.01 0  0.49 0.01 0  0.5 0.01 0  0.51 0.01 0  0.52 0.01 0  0.53 0.01 0  0.54 0.01 0  0.55 0.01 0  0.5600000000000001 0.01 0  0.57 0.01 0  0.58 0.01 0  0.59 0.01 0  0.6 0.01 0  0.61 0.01 0  0.62 0.01 0  0.63 0.01 0  0.64 0.01 0  0.65 0.01 0  0.66 0.01 0  0.67 0.01 0  0.68 0.01 0  0.6899999999999999 0.01 0  0.7 0.01 0  0.71 0.01 0  0.72 0.01 0  0.73 0.01 0  0.74 0.01 0  0.75 0.01 0  0.76 0.01 0  0.77 0.01 0  0.78 0.01 0  0.79 0.01 0  0.8 0.01 0  0.8100000000000001 0.01 0  0.82 0.01 0  0.83 0.01 0  0.84 0.01 0  0.85 0.01 0  0.86 0.01 0  0.87 0.01 0  0.88 0.01 0  0.89 0.01 0  0.9 0.01 0  0.91 0.01 0  0.92 0.01 0  0.93 0.01 0  0.9399999999999999 0.01 0  0.95 0.01 0  0.96 0.01 0  0.97 0.01 0  0.98 0.01 0  0.99 0.01 0  1 0.01 0  0 0.02 0  0.01 0.02 0  0.02 0.02 0  0.03 0.02 0  0.04 0.02 0  0.05 0.02 0  0.06 0.02 0  0.07000000000000001 0.02 0  0.08 0.02 0  0.09 0.02 0  0.1 0.02 0  0.11 0.02 0  0.12 0.02 0  0.13 0.02 0  0.14 0.02 0  0.15 0.02 0  0.16 0.02 0  0.17 0.02 0  0.18 0.02 0  0.19 0.02 0  0.2 0.02 0  0.21 0.02 0  0.22 0.02 0  0.23 0.02 0  0.24 0.02 0  0.25 0.02 0  0.26 0.02 0  0.27 0.02 0  0.28 0.02 0  0.29 0.02 0  0.3 0.02 0  0.31 0.02 0  0.32 0.02 0  0.33 0.02 0  0.34 0.02 0  0.35 0.02 0  0.36 0.02 0  0.37 0.02 0  0.38 0.02 0  0.39 0.02 0  0.4 0.02 0  0.41 0.02 0  0.42 0.02 0  0.43 0.02 0  0.44 0.02 0  0.45 0.02 0  0.46 0.02 0  0.47 0.02 0  0.48 0.02 0  0.49 0.02 0  0.5 0.02 0  0.51 0.02 0  0.52 0.02 0  0.53 0.02 0  0.54 0.02 0  0.55 0.02 0  0.5600000000000001 0.02 0  0.57 0.02 0  0.58 0.02 0  0.59 0.02 0  0.6 0.02 0  0.61 0.02 0  0.62 0.02 0  0.63 0.02 0  0.64 0.02 0  0.65 0.02 0  0.66 0.02 0  0.67 0.02 0  0.68 0.02 0  0.6899999999999999 0.02 0  0.7 0.02 0  0.71 0.02 0  0.72 0.02 0  0.73 0.02 0  0.74 0.02 0  0.75 0.02 0  0.76 0.02 0  0.77 0.02 0  0.78 0.02 0  0.79 0.02 0  0.8 0.02 0  0.8100000000000001 0.02 0  0.82 0.02 0  0.83 0.02 0  0.84 0.02 0  0.85 0.02 0  0.86 0.02 0  0.87 0.02 0  0.88 0.02 0  0.89 0.02 0  0.9 0.02 0  0.91 0.02 0  0.92 0.02 0  0.93 0.02 0  0.9399999999999999 0.02 0  0.95 0.02 0  0.96 0.02 0  0.97 0.02 0  0.98 0.02 0  0.99 0.02 0  1 0.02 0  0 0.03 0  0.01 0.03 0  0.02 0.03 0  0.03 0.03 0  0.04 0.03 0  0.05 0.03 0  0.06 0.03 0  0.07000000000000001 0.03 0  0.08 0.03 0  0.09 0.03 0  0.1 0.03 0  0.11 0.03 0  0.12 0.03 0  0.13 0.03 0  0.14 0.03 0  0.15 0.03 0  0.16 0.03 0  0.17 0.03 0  0.18 0.03 0  0.19 0.03 0  0.2 0.03 0  0.21 0.03 0  0.22 0.03 0  0.23 0.03 0  0.24 0.03 0  0.25 0.03 0  0.26 0.03 0  0.27 0.03 0  0.28 0.03 0  0.29 0.03 0  0.3 0.03 0  0.31 0.03 0  0.32 0.03 0  0.33 0.03 0  0.34 0.03 0  0.35 0.03 0  0.36 0.03 0  0.37 0.03 0  0.38 0.03 0  0.39 0.03 0  0.4 0.03 0  0.41 0.03 0  0.42 0.03 0  0.43 0.03 0  0.44 0.03 0  0.45 0.03 0  0.46 0.03 0  0.47 0.03 0  0.48 0.03 0  0.49 0.03 0  0.5 0.03 0  0.51 0.03 0  0.52 0.03 0  0.53 0.03 0  0.54 0.03 0  0.55 0.03 0  0.5600000000000001 0.03 0  0.57 0.03 0  0.58 0.03 0  0.59 0.03 0  0.6 0.03 0  0.61 0.03 0  0.62 0.03 0  0.63 0.03 0  0.64 0.03 0  0.65 0.03 0  0.66 0.03 0  0.67 0.03 0  0.68 0.03 0  0.6899999999999999 0.03 0  0.7 0.03 0  0.71 0.03 0  0.72 0.03 0  0.73 0.03 0  0.74 0.03 0  0.75 0.03 0  0.76 0.03 0  0.77 0.03 0  0.78 0.03 0  0.79 0.03 0  0.8 0.03 0  0.8100000000000001 0.03 0  0.82 0.03 0  0.83 0.03 0  0.84 0.03 0  0.85 0.03 0  0.86 0.03 0  0.87 0.03 0  0.88 0.03 0  0.89 0.03 0  0.9 0.03 0  0.91 0.03 0  0.92 0.03 0  0.93 0.03 0  0.9399999999999999 0.03 0  0.95 0.03 0  0.96 0.03 0  0.97 0.03 0  0.98 0.03 0  0.99 0.03 0  1 0.03 0  0 0.04 0  0.01 0.04 0  0.02 0.04 0  0.03 0.04 0  0.04 0.04 0  0.05 0.04 0  0.06 0.04 0  0.07000000000000001 0.04 0  0.08 0.04 0  0.09 0.04 0  0.1 0.04 0  0.11 0.04 0  0.12 0.04 0  0.13 0.04 0  0.14 0.04 0  0.15 0.04 0  0.16 0.04 0  0.17 0.04 0  0.18 0.04 0  0.19 0.04 0  0.2 0.04 0  0.21 0.04 0  0.22 0.04 0  0.23 0.04 0  0.24 0.04 0  0.25 0.04 0  0.26 0.04 0  0.27 0.04 0  0.28 0.04 0  0.29 0.04 0  0.3 0.04 0  0.31 0.04 0  0.32 0.04 0  0.33 0.04 0  0.34 0.04 0  0.35 0.04 0  0.36 0.04 0  0.37 0.04 0  0.38 0.04 0  0.39 0.04 0  0.4 0.04 0  0.41 0.04 0  0.42 0.04 0  0.43 0.04 0  0.44 0.04 0  0.45 0.04 0  0.46 0.04 0  0.47 0.04 0  0.48 0.04 0  0.49 0.04 0  0.5 0.04 0  0.51 0.04 0  0.52 0.04 0  0.53 0.04 0  0.54 0.04 0  0.55 0.04 0  0.5600000000000001 0.04 0  0.57 0.04 0  0.58 0.04 0  0.59 0.04 0  0.6 0.04 0  0.61 0.04 0  0.62 0.04 0  0.63 0.04 0  0.64 0.04 0  0.65 0.04 0  0.66 0.04 0  0.67 0.04 0  0.68 0.04 0  0.6899999999999999 0.04 0  0.7 0.04 0  0.71 0.04 0  0.72 0.04 0  0.73 0.04 0  0.74 0.04 0  0.75 0.04 0  0.76 0.04 0  0.77 0.04 0  0.78 0.04 0  0.79 0.04 0  0.8 0.04 0  0.8100000000000001 0.04 0  0.82 0.04 0  0.83 0.04 0  0.84 0.04 0  0.85 0.04 0  0.86 0.04 0  0.87 0.04 0  0.88 0.04 0  0.89 0.04 0  0.9 0.04 0  0.91 0.04 0  0.92 0.04 0  0.93 0.04 0  0.9399999999999999 0.04 0  0.95 0.04 0  0.96 0.04 0  0.97 0.04 0  0.98 0.04 0  0.99 0.04 0  1 0.04 0  0 0.05 0  0.01 0.05 0  0.02 0.05 0  0.03 0.05 0  0.04 0.05 0  0.05 0.05 0  0.06 0.05 0  0.07000000000000001 0.05 0  0.08 0.05 0  0.09 0.05 0  0.1 0.05 0  0.11 0.05 0  0.12 0.05 0  0.13 0.05 0  0.14 0.05 0  0.15 0.05 0  0.16 0.05 0  0.17 0.05 0  0.18 0.05 0  0.19 0.05 0  0.2 0.05 0  0.21 0.05 0  0.22 0.05 0  0.23 0.05 0  0.24 0.05 0  0.25 0.05 0  0.26 0.05 0  0.27 0.05 0  0.28 0.05 0  0.29 0.05 0  0.3 0.05 0  0.31 0.05 0  0.32 0.05 0  0.33 0.05 0  0.34 0.05 0  0.35 0.05 0  0.36 0.05 0  0.37 0.05 0  0.38 0.05 0  0.39 0.05 0  0.4 0.05 0  0.41 0.05 0  0.42 0.05 0  0.43 0.05 0  0.44 0.05 0  0.45 0.05 0  0.46 0.05 0  0.47 0.05 0  0.48 0.05 0  0.49 0.05 0  0.5 0.05 0  0.51 0.05 0  0.52 0.05 0  0.53 0.05 0  0.54 0.05 0  0.55 0.05 0  0.5600000000000001 0.05 0  0.57 0.05 0  0.58 0.05 0  0.59 0.05 0  0.6 0.05 0  0.61 0.05 0  0.62 0.05 0  0.63 0.05 0  0.64 0.05 0  0.65 0.05 0  0.66 0.05 0  0.67 0.05 0  0.68 0.05 0  0.6899999999999999 0.05 0  0.7 0.05 0  0.71 0.05 0  0.72 0.05 0  0.73 0.05 0  0.74 0.05 0  0.75 0.05 0  0.76 0.05 0  0.77 0.05 0  0.78 0.05 0  0.79 0.05 0  0.8 0.05 0  0.8100000000000001 0.05 0  0.82 0.05 0  0.83 0.05 0  0.84 0.05 0  0.85 0.05 0  0.86 0.05 0  0.87 0.05 0  0.88 0.05 0  0.89 0.05 0  0.9 0.05 0  0.91 0.05 0  0.92 0.05 0  0.93 0.05 0  0.9399999999999999 0.05 0  0.95 0.05 0  0.96 0.05 0  0.97 0.05 0  0.98 0.05 0  0.99 0.05 0  1 0.05 0  0 0.06 0  0.01 0.06 0  0.02 0.06 0  0.03 0.06 0  0.04 0.06 0  0.05 0.06 0  0.06 0.06 0  0.07000000000000001 0.06 0  0.08 0.06 0  0.09 0.06 0  0.1 0.06 0  0.11 0.06 0  0.12 0.06 0  0.13 0.06 0  0.14 0.06 0  0.15 0.06 0  0.16 0.06 0  0.17 0.06 0  0.18 0.06 0  0.19 0.06 0  0.2 0.06 0  0.21 0.06 0  0.22 0.06 0  0.23 0.06 0  0.24 0.06 0  0.25 0.06 0  0.26 0.06 0  0.27 0.06 0  0.28 0.06 0  0.29 0.06 0  0.3 0.06 0  0.31 0.06 0  0.32 0.06 0  0.33 0.06 0  0.34 0.06 0  0.35 0.06 0  0.36 0.06 0  0.37 0.06 0  0.38 0.06 0  0.39 0.06 0  0.4 0.06 0  0.41 0.06 0  0.42 0.06 0  0.43 0.06 0  0.44 0.06 0  0.45 0.06 0  0.46 0.06 0  0.47 0.06 0  0.48 0.06 0  0.49 0.06 0  0.5 0.06 0  0.51 0.06 0  0.52 0.06 0  0.53 0.06 0  0.54 0.06 0  0.55 0.06 0  0.5600000000000001 0.06 0  0.57 0.06 0  0.58 0.06 0  0.59 0.06 0  0.6 0.06 0  0.61 0.06 0  0.62 0.06 0  0.63 0.06 0  0.64 0.06 0  0.65 0.06 0  0.66 0.06 0  0.67 0.06 0  0.68 0.06 0  0.6899999999999999 0.06 0  0.7 0.06 0  0.71 0.06 0  0.72 0.06 0  0.73 0.06 0  0.74 0.06 0  0.75 0.06 0  0.76 0.06 0  0.77 0.06 0  0.78 0.06 0  0.79 0.06 0  0.8 0.06 0  0.8100000000000001 0.06 0  0.82 0.06 0  0.83 0.06 0  0.84 0.06 0  0.85 0.06 0  0.86 0.06 0  0.87 0.06 0  0.88 0.06 0  0.89 0.06 0  0.9 0.06 0  0.91 0.06 0  0.92 0.06 0  0.93 0.06 0  0.9399999999999999 0.06 0  0.95 0.06 0  0.96 0.06 0  0.97 0.06 0  0.98 0.06 0  0.99 0.06 0  1 0.06 0  0 0.07000000000000001 0  0.01 0.07000000000000001 0  0.02 0.07000000000000001 0  0.03 0.07000000000000001 0  0.04 0.07000000000000001 0  0.05 0.07000000000000001 0  0.06 0.07000000000000001 0  0.07000000000000001 0.07000000000000001 0  0.08 0.07000000000000001 0  0.09 0.07000000000000001 0  0.1 0.07000000000000001 0  0.11 0.07000000000000001 0  0.12 0.07000000000000001 0  0.13 0.07000000000000001 0  0.14 0.07000000000000001 0  0.15 0.07000000000000001 0  0.16 0.07000000000000001 0  0.17 0.0700
[...]
<PointData  Scalars="Indicator Function"> 
<DataArray  type="Float64"  Name="Indicator Function"  format="ascii">-9.8578233471256323e-19  1.8115477521302868e-17  7.6832866417776549e-17  1.8100329355328382e-18  1.5229835541192108e-16  -4.8270748589229867e-19  -4.3745732556925268e-19  1.3300038738100358e-16  4.9722698573511162e-16  -3.4614047503400903e-19  2.2718599066929886e-16  1.2500143693495846e-16  -3.2065657365729454e-19  -2.6587455659738293e-18  2.4221223481276508e-16  -2.6927318420453183e-18  -5.9498830966267619e-18  5.0528600839476736e-16  -2.0976964179847897e-18  -2.5763483677096194e-18  1.4900199756234925e-15  -3.0485711380066567e-18  -1.9756763056424891e-18  8.3461283636028004e-16  -3.0572769303456068e-19  -2.1422244720838412e-18  -1.5440323281204248e-18  -9.8322806485100904e-19  1.2489026805852744e-16  -1.6317537547241666e-18  -2.7858574068351241e-18  -1.7622011690836830e-18  -1.9800878444208804e-18  -2.9553186936889913e-18  4.6421513188777133e-17  -1.0720565714361865e-18  -4.5760798384984532e-18  -8.6493990506483908e-18  -9.2589652594887843e-18  -9.9224071775943544e-18  1.2614520715464569e-15  -5.8525298029314843e-19  -3.5564223405897759e-18  -3.2382110857829179e-18  -1.9804676864218885e-18  -9.9023384321090364e-19  2.3420800031321691e-16  -1.2210542806597104e-18  -2.1995836580174278e-19  -8.9722507604010904e-19  -4.4861253802005471e-19  -4.8748396955807454e-19  -1.5826350550019444e-19  -1.0866674139236575e-18  -9.0408823745417035e-19  -6.3384188480991341e-20  1.2486685130757528e-17  -1.2465404609317040e-19  -4.4191070342497022e-20  -2.2200356585522931e-20  -2.1005130172836334e-20  -8.1776239095187931e-20  -4.1160680000333433e-20  -8.8559840956515225e-21  -9.2005856152817924e-21  -7.3264988249646713e-20  -8.6586063991663678e-20  -3.1747751427008341e-34  2.1040526531378411e-17  -2.1418679559197039e-19  9.0277966143151681e-36  -1.0532429383367696e-35  -3.6133670036655571e-20  -4.4199195339064847e-19  -8.3973009474931819e-19  -4.9710040199538645e-19  -9.1379550526052016e-20  -2.5352530760235968e-19  -2.8632737648435517e-19  -1.7616161144632399e-19  -8.4661809317294099e-20  -1.5501831206935278e-18  -1.3891379721074922e-19  -2.6860715597335093e-19  -2.3735631573122890e-19  -1.4075986342991264e-19  -6.0189237827013946e-20  -3.6271920368765626e-20  -4.2969466491904820e-20  -1.7632045501823322e-20  5.6423728839469800e-37  -3.8235062221191567e-21  -3.2004592828168314e-21  4.9504425256148801e-18  3.7615819226313200e-37  -9.8810086415032957e-22  -2.2340806623542014e-21  -2.1775350311853360e-21  -2.4671464817165234e-21  -9.6160412871032315e-23  -6.5827683646048100e-37  7.7037197775489434e-34  1.7758275821119697e-02  7.1979597462025646e-02  2.4151603533382537e-02  1.7969575684549700e-02  1.4514276191925496e-02  8.6956850143740192e-03  7.8805305936967135e-03  5.9452359333916030e-02  5.9250961430496685e-02  6.2355124575239496e-03  9.7740250139247017e-02  1.1552870605095172e-02  7.7229354488727017e-02  9.2810249164073343e-03  1.0491286938128665e-01  8.8395914361826519e-02  6.2985608006552118e-02  7.5577478450981769e-02  9.2822732390347953e-02  2.8520005385331601e-02  9.5093848778230017e-02  5.4918175364556912e-02  8.1315326133062135e-03  1.1015000995418295e-02  7.7181770673765929e-02  5.5629627340569136e-02  3.5424524371865045e-02  4.3560462208166832e-03  1.2043451917533287e-02  2.3373336448178014e-02  6.3489988227497018e-02  4.5914384723464673e-02  1.2712899151446558e-02  4.6881839094911941e-02  3.8624908605120800e-02  1.5876725538908482e-02  7.4496963052462825e-02  1.5968176932264913e-01  1.4914497367876173e-01  1.0417371023114816e-01  5.1835465338561898e-02  1.0542980415862780e-02  6.0583927758346666e-02  2.8042461077942501e-02  3.5676934138355695e-02  4.3272987197446905e-02  5.1760340480838263e-03  2.1996558413512887e-02  3.9624176570470055e-03  1.6162970072486800e-02  6.1593735588542815e-03  5.7020437151761964e-03  6.8702404191267902e-03  1.6140539632125580e-02  8.2163359811718070e-03  1.1418280304967730e-03  4.4911353242834138e-03  1.5921511034205831e-03  7.9985214116842524e-04  7.5678957135403549e-04  6.9066063790361714e-04  1.1278194407155870e-03  4.6807858442302335e-04  3.3148603158858730e-04  4.8494455438484647e-04  1.2566640287841272e-03  9.3146384772127371e-04  1.4524727615873960e-03  3.3808481476582945e-03  2.1680222174335650e-03  6.5061422096554901e-04  1.3018526633008841e-03  2.4319794761129675e-03  9.5398500467761219e-03  1.0357307543831218e-02  3.7763109688529728e-03  1.6461476387936453e-03  3.7440321039910861e-03  3.7440734812658537e-03  2.8306602949521010e-03  1.6353441893404007e-03  1.7370948591659188e-03  2.9401036861407682e-03  3.5374544993733554e-03  3.0239920798876578e-03  2.1299658956145072e-03  1.2782106366081728e-03  9.4461486615635061e-04  5.7444297375677767e-04  2.1555313865957262e-04  9.0294931117205148e-06  6.8878164788738414e-05  8.2473969703578782e-05  4.7835185828633120e-05  8.2514841208168410e-06  1.7800042734367554e-05  3.1345597986792264e-05  3.7584003722218434e-05  3.2867814294246753e-05  9.1226510496441443e-22  -8.3761930323182228e-19  1.1904531117585958e-02  1.8079774174570070e-02  3.5134211666139420e-02  3.1748643398242037e-02  6.1232524028228562e-02  7.7059250732683365e-03  6.1071317806899714e-02  7.6293421582022949e-03  5.2375202838135224e-02  1.1659578856978302e-01  6.7134262266457981e-02  1.9106590770227333e-02  1.3001167193846944e-01  1.3137126356743786e-01  1.6899508075003633e-01  3.8425796980691394e-02  1.3476068643109040e-01  5.2696133551001874e-03  4.9650945945430687e-02  1.3313925266997324e-02  1.3241993864457574e-01  5.6878734005377782e-02  1.3271519466428202e-02  3.1252596014446771e-02  1.4983359731950792e-02  2.3209690780211584e-05  3.3316438284443417e-02  1.6584607330488482e-02  8.3164957457693076e-03  1.0608268448211743e-01  6.9450853739546695e-02  5.5854914547780576e-02  5.8614638876673758e-02  8.2368541738449499e-02  3.8155803395203629e-02  2.1184150700998697e-03  8.5459275676425819e-02  1.3528190898716985e-01  1.6430941891133821e-01  2.1625552509007528e-01  8.2300913710802004e-02  2.7267770232879993e-02  2.6522484146637437e-02  4.9899389954277541e-02  1.0195818627659444e-02  2.3746685620047552e-02  6.1015970846022205e-03  4.9124319091534106e-02  2.4222187271116729e-02  3.0341933967798943e-02  5.9041371873366204e-03  1.0184326739278735e-03  1.0589656211812891e-02  2.9672336515818878e-02  9.1466401930670321e-03  2.4234164623152007e-03  1.5845366420820647e-03  3.8962883703640670e-03  2.8162768902347218e-03  1.4468433610230235e-03  1.3999302437628129e-03  2.2550341068683566e-03  4.3266469937303261e-04  5.9095486942464879e-04  1.1431037424118906e-04  1.2848314258671399e-03  1.6594170327700723e-03  8.8890696593011331e-04  3.5522349087010667e-03  4.1568798389839496e-03  6.0094435248031605e-04  1.3624552089528347e-03  3.1576289335537939e-04  8.6888321627539931e-03  1.4548892080062213e-02  7.9285332610815693e-03  4.5681162023925866e-04  3.6825841334915785e-03  4.5185497169001210e-03  4.0474258449837890e-03  2.6565439243827027e-03  1.8171604852442449e-03  3.1228412056824259e-03  4.3807633083934429e-03  4.0675902827128204e-03  3.0657593506692462e-03  1.9133415050420508e-03  1.3029244190643477e-03  9.6691597884058015e-04  4.1286972149238581e-04  6.5525587657158714e-05  7.3976642916459800e-05  1.1844675428429507e-04  1.0108691580197329e-04  4.1620807737429390e-05  4.6587556042914434e-06  2.1090328819603903e-05  3.4792695686345745e-05  4.4784069581274285e-05  7.5093642726355630e-21  2.1185229388259594e-33  5.4337468443097434e-02  4.4310121361625113e-02  1.3106592789469942e-01  4.3761875674856510e-02  1.4485127757938992e-02  2.7371866885697173e-02  5.2460868029796166e-02  3.3733958011675391e-02  9.7515275546737265e-02  1.9201202129159431e-01  1.1904891559823129e-01  1.4679912695908054e-01  1.0730923165323587e-01  8.6584757695924913e-02  6.7270961864236478e-02  2.2528873380191486e-01  9.2303691235225568e-02  9.3217910763299661e-02  7.7402047907941127e-02  2.0106094201091512e-01  1.6280301020835317e-01  2.2742167582411019e-01  1.8223095813554907e-01  3.4408832183508979e-02  1.3197261175173669e-02  1.3293237358949042e-01  1.8228915816255162e-01  1.1631161395487023e-01  2.0286481949603630e-02  7.0170690770577915e-03  7.0257916927424877e-02  1.2726447502739535e-01  1.1669564280254814e-01  2.8525712573877513e-02  8.2212635368503192e-02  5.3996684064885274e-02  3.8706641054523108e-02  1.2326439386064060e-01  2.3517034359675090e-01  1.4578743359687457e-01  1.2894764301125103e-01  6.8487170708392650e-02  3.8855129947274192e-02  8.8393009677939893e-02  1.0523894560974885e-02  8.3573265563958124e-02  1.2634468654444647e-01  5.5957865772266371e-02  5.7238528619686264e-02  3.1731982425632958e-02  4.3992888502914586e-02  2.5218779404250432e-02  1.8161061674792137e-03  1.0692605236868186e-02  2.8073265101941591e-02  2.0387694470992575e-03  4.7946581259692405e-03  1.0449701495206893e-02  3.9949599495127533e-03  1.5029403570946626e-03  1.2078472227433244e-03  8.9564243500062459e-04  1.8714630689082863e-03  2.1541549856192048e-05  5.4527112617649542e-04  8.4125613009855798e-04  1.9654309834014204e-03  9.9158997657780080e-04  1.8285723296314013e-03  5.3907732741986765e-03  2.2892538874985137e-03  2.4740063035056330e-04  2.5523577272726023e-03  3.9195239191734971e-03  1.4979505243098936e-02  1.3183717684958865e-02  1.4519100660710068e-03  3.4804216515697387e-03  4.0708705100554058e-03  4.1391324819783949e-03  3.3719741108411954e-03  1.8910395241204495e-03  2.4197496024695444e-03  4.3531806448916781e-03  4.7052724450805427e-03  3.5323906251677941e-03  2.4438301846747127e-03  1.4505022116698646e-03  1.2597193053212872e-03  7.2644072951054287e-04  1.7938709726867679e-04  4.3410880820984116e-05  1.1059248738167082e-04  1.3095702381260622e-04  8.1866497084392208e-05  2.7796269561965708e-05  1.4813346166416147e-06  1.2247655117087790e-05  1.7722817412075900e-05  -1.4294011305999016e-35  -5.2446225535288772e-19  5.1301851479562767e-02  4.8367357433102678e-02  6.4469406294841061e-02  3.0493647278504961e-02  5.0524234161355104e-02  5.9621806310056619e-02  6.1771584208896307e-02  7.4335963680773276e-02  3.0623159151665559e-02  1.8143126434822605e-03  7.9376262927875113e-02  1.1639217247452908e-01  1.3731988587584376e-01  1.3296777094623502e-01  2.8826213834315051e-01  1.0646395954850388e-01  5.1710568314383846e-03  1.6093720966241001e-01  1.1775427844082614e-03  1.2059972902942211e-01  1.2461467633676748e-01  8.9953317664547353e-02  3.7969275382712192e-02  6.5864835370252450e-02  4.8172510176877056e-02  4.0806526442894724e-02  8.2378938798412710e-02  2.5966263397846055e-02  3.8584568217407002e-02  2.0593006195484344e-02  1.2422594961606571e-01  1.2002594302071111e-01  9.8851167652453900e-02  1.6766097333429014e-01  5.9942108267433243e-02  1.4425384036714825e-02  1.2266364217621809e-03  9.1531541777543399e-02  1.3323910735120251e-01  2.0879629419891793e-01  2.3310030803457629e-01  3.4292640697634817e-02  4.2245918585814550e-02  6.6884668807191180e-03  7.0736062973798988e-02  2.5129058268244967e-02  7.1662444214779120e-03  3.5499172577530311e-02  3.7327418514565107e-02  3.1490381307554306e-02  3.2164171526111084e-02  6.5450879290712108e-04  9.8676478852915157e-03  1.2740240755835344e-02  4.3051808961053366e-02  7.5177345416361204e-03  3.1914029079003368e-03  2.3103881234256041e-04  8.4732607065936463e-03  5.7500890573225294e-03  3.1489269580572549e-03  2.4426469502166303e-03  3.3530427703855818e-03  2.7825958631779298e-04  5.0585895960292661e-04  9.8922379531791532e-06  1.5619894897052273e-03  2.0242087318139662e-03  2.9484954194773660e-04  4.1794071350060901e-03  5.2441219566294354e-03  5.1562909009481787e-04  1.2521766713441218e-03  1.6424291207483316e-03  1.0610120093215264e-02  1.7972381321071342e-02  7.0552247343444070e-03  3.5830356618134526e-03  4.3832412741973215e-03  3.9132797609853680e-03  3.7178808112193810e-03  2.4098805375777892e-03  1.5698921503093639e-03  3.5282564843993592e-03  5.0791774263832653e-03  4.2452082444314693e-03  2.8662864036513172e-03  1.7368167341405777e-03  1.2595805133643930e-03  1.1013034642557123e-03  4.0739811713110425e-04  8.2925647368884546e-06  9.3474175421184828e-05  1.2566745241132435e-04  1.1489370193539562e-04  4.8547256951299947e-05  1.4863503934705046e-05  4.5536686100982156e-06  8.0990955177439031e-06  -6.9322379675471448e-22  -3.9182229786743542e-18  1.4074042537757603e-01  1.0403733419746905e-01  1.6301921449205645e-02  1.5460036254303894e-01  1.2824691709909336e-01  2.3637818633683739e-02  1.3755695495087400e-02  4.9998794187243685e-02  9.3440222626894262e-02  8.0762721106743554e-02  2.1419042237839961e-01  2.3845731908282569e-01  5.7527510581609688e-02  1.3139124380731224e-01  3.6095780295003002e-02  1.4379763036501412e-02  3.0887512663771716e-01  3.5544237413196150e-02  9.6603609472393603e-02  2.1728638258748996e-02  1.6485750512250552e-01  2.0441729313259518e-01  3.0403665892465903e-01  2.5469493212695610e-01  7.0015288636349191e-02  3.9999918064136816e-02  8.8891676367571545e-02  2.1326518212657672e-01  1.7186928598299397e-01  8.5032054229780257e-03  4.3439410581272821e-03  1.4435612302859041e-01  1.9116978511991625e-01  9.3872744716299153e-02  5.9908013276955639e-03  1.2165850386644007e-01  4.8767687734892359e-02  6.3077316772786649e-02  1.5037377390759574e-01  2.2752463228901082e-01  1.2315165964299346e-01  1.7163083585178457e-01  4.9150900566775131e-02  8.3244287094601951e-02  7.7376032219266019e-02  3.6459895125170267e-03  1.0147155798306311e-01  1.5577289809683184e-01  8.0150580523012535e-02  8.1868702537947619e-02  6.0368176694929825e-02  6.4340934063293428e-02  3.6266661149470213e-02  7.3027384765436817e-04  7.3301518143342893e-03  4.1374777598514094e-02  5.1663417473317690e-03  8.3345862211492081e-03  1.2795395013261492e-02  3.2502715948126075e-03  6.1085207506830536e-04  4.9515157383577359e-04  4.6069887659648539e-04  2.8778772826701274e-03  3.4670706532357031e-04  7.9528900640125346e-04  8.0158835114352777e-04  2.2001017715078154e-03  9.6386070590987534e-04  1.3000908238647785e-03  6.3519017955467943e-03  2.5449066125728973e-03  1.4926206160386913e-03  3.3697564719639308e-03  3.2977616664540523e-03  1.7349873506183625e-02  1.5089383351970785e-02  6.5378268252058670e-04  5.5162316736809833e-03  3.9596173235118583e-03  3.6089019310388036e-03  3.1787786860755425e-03  1.5798441446507137e-03  2.2759259860539189e-03  4.7473292010779518e-03  5.0638410331692351e-03  3.4137076663737971e-03  2.1987054651357325e-03  1.2653259229859876e-03  1.2593657826106359e-03  7.8112877856215362e-04  1.2831493535662132e-04  8.7935209700806650e-05  1.1858671030135619e-04  1.3270034809092777e-04  8.1969638416586212e-05  2.2206664655268317e-05  1.7148399892876009e-06  5.5953498858780835e-06  -3.1060431370677815e-22  -1.1726541405090832e-18  1.1456039991906765e-01  4.6275607076677147e-02  3.8073368197817828e-02  1.3534386930933887e-01  5.3140154505535740e-02  4.3045687472357423e-02  2.4369076662144166e-02  9.4374708764724077e-02  4.1941200479646619e-02  7.7299391911671298e-03  2.4098819167154166e-02  2.1677275592532519e-02  7.0488110801026314e-03  2.0156130184804105e-01  2.2663996854797967e-02  2.9549623626284272e-01  4.6877328853262732e-03  5.6028341879922040e-02  1.6061500320396149e-01  3.0548085228434718e-02  9.5936425374136491e-02  2.1869437132225100e-01  9.2688905813761695e-03  3.5089015998782669e-02  1.6604185169724092e-01  8.1575194086515548e-02  8.6052186849615558e-04  1.2570608343816245e-01  1.3302497821333428e-01  7.9018880775081776e-02  2.8541155787124555e-02  9.2313428696970443e-02  9.9032737324269815e-02  1.2170676712867044e-01  2.3301138353173828e-01  8.4138167566789358e-03  2.0806742565739899e-02  1.8392053529119441e-02  8.9831671344952582e-02  1.5632006808608387e-01  2.4876069869637055e-01  1.9449997579098752e-01  2.3602702520266295e-02  3.1815494702343898e-02  1.9843649271205535e-02  8.8797644740910994e-02  4.6588045172599353e-02  4.2143775811571714e-02  9.7236936447525846e-02  2.5761651714913433e-03  1.0527864086257036e-02  1.1212465163947929e-02  2.0222445829483928e-02  2.5418681134069560e-02  8.9623829027634262e-03  4.5149946129997863e-02  1.3983128098873058e-02  1.1471632660219716e-02  7.9654268283473582e-04  1.1718189744258724e-02  6.8699285369491318e-03  3.5513106237030976e-03  2.5363251789235651e-03  3.6021869296844473e-03  7.1274771873856661e-04  2.7713041643143236e-04  2.2596255245462311e-04  1.5767521203247422e-03  2.2509028722964776e-03  1.2759145296494217e-04  4.1528272214473982e-03  6.1625720481129241e-03  9.6741234417244419e-04  5.4169032359672607e-04  2.7594022339155842e-03  1.1237551053301167e-02  2.0510822827009067e-02  7.2196002463843197e-03  6.1865652574329038e-03  5.3415235804125331e-03  3.2558404282497372e-03  3.2927835007869589e-03  2.2489522172117297e-03  1.3946788750969304e-03  3.7076783439161285e-03  5.5472753087667777e-03  4.3961084080859679e-03  2.6402645507257526e-03  1.5260128162048658e-03  1.1645070835479617e-03  1.1524049209866195e-03  4.1449244068998508e-04  5.2899946438860297e-05  1.2793842677574633e-04  1.3755063676986094e-04  1.2370713187938499e-04  5.1041137616453079e-05  1.1246595332465554e-05  5.0309604483939020e-06  -2.7927440628926649e-22  2.6963019221421302e-33  5.3365607407286617e-02  5.0920366317350627e-02  1.7984839224202104e-02  1.0953573676219061e-01  7.6654408140472197e-02  1.5617415215417357e-01  2.3718499816089198e-04  5.9250600716295128e-02  1.3684166086414618e-02  1.0679208159857934e-01  5.7265403641656755e-02  1.5389613623232357e-01  1.9817614923132856e-01  2.1612377372808903e-03  2.6902851353016385e-02  6.0994490899393884e-02  1.1035656179659346e-01  2.6400687577883747e-01  3.3188321319639106e-03  7.9716654733607284e-02  1.1869498767358762e-02  8.3504782791088417e-02  1.1118134061554275e-01  2.7227883728297636e-01  2.1599707834335502e-01  3.2819906995132223e-02  4.2478858873874668e-02  5.0181875259094171e-02  1.3382780092390370e-01  1.4161605998655952e-01  1.7422237712945408e-02  5.5766027719840523e-02  1.5807779235464189e-01  2.3852008822373771e-01  4.3883272909806051e-02  8.8625311834109571e-02  1.1500620999687443e-01  2.9992298868268170e-02  8.0653752220962202e-02  1.5567189562513628e-01  2.0826324538533081e-01  1.5278511416810159e-01  1.8676991232995274e-01  9.4351633372323305e-03  1.0017053966616614e-01  5.9408673015932209e-02  2.4370944412999028e-03  1.0606599010234259e-01  1.2911831013355793e-01  4.1350897326292213e-02  6.5538945918038161e-02  6.0142031512290021e-02  6.1602479082146534e-02  2.8700733847256587e-02  1.0068526772703206e-02  8.7629893991611110e-03  4.9105396019964234e-02  6.2469105515199795e-03  1.4176957564225814e-02  1.3275548586925924e-02  1.1747631228359449e-03  5.5155991577833660e-04  1.1009747581775794e-04  1.6937901401240362e-04  3.4203051602210502e-03  4.0354930336886275e-04  7.5807916074206781e-04  7.4308595278269605e-04  2.2849777405924928e-03  1.1858042626410824e-03  7.6814458803780433e-04  6.7851286327539539e-03  3.1175156357873242e-03  2.3294584715189142e-03  3.3126778804081739e-03  2.4825034419225407e-03  1.8807280685400992e-02  1.7219843341806231e-02  1.7456098814429008e-03  7.8996894093176697e-03  4.2937082207697725e-03  2.8853243815444699e-03  2.8586113830239681e-03  1.3359839956147068e-03  2.2222770417109185e-03  5.1113193851050247e-03  5.5066463712920583e-03  3.4621539762234310e-03  1.9713881213158078e-03  1.1155139452544544e-03  1.2268696828912000e-03  8.3948161644211729e-04  1.1406847202764524e-04  1.3590863381165739e-04  1.4253056753131747e-04  1.4630000511184493e-04  9.5782606440268092e-05  3.2165877917049287e-05  8.0546021072345587e-06  1.1444538821858719e-21  1.9259299443872359e-34  1.0121498374073683e-02  1.9152124916494012e-02  4.5373373758515745e-02  7.7251519891504819e-02  4.2800759495063373e-02  1.3535215025050445e-01  1.5729395378742649e-02  9.7941835606228708e-03  7.5326695250796633e-02  2.4536614092675289e-02  1.4581734877166430e-02  1.9485188256384230e-02  3.3167966339916422e-02  1.0086940748711062e-01  1.2649515908564471e-01  1.9585386943441134e-02  