<?xml version="1.0"?>
<VTKFile type="UnstructuredGrid"  version="0.1"  >
<UnstructuredGrid>
<Piece  NumberOfPoints="10201" NumberOfCells="20000">
<Points>
<DataArray  type="Float64"  NumberOfComponents="3"  format="ascii">0 0 0  0.01 0 0  0.02 0 0  0.03 0 0  0.04 0 0  0.05 0 0  0.06 0 0  0.07000000000000001 0 0  0.08 0 0  0.09 0 0  0.1 0 0  0.11 0 0  0.12 0 0  0.13 0 0  0.14 0 0  0.15 0 0  0.16 0 0  0.17 0 0  0.18 0 0  0.19 0 0  0.2 0 0  0.21 0 0  0.22 0 0  0.23 0 0  0.24 0 0  0.25 0 0  0.26 0 0  0.27 0 0  0.28 0 0  0.29 0 0  0.3 0 0  0.31 0 0  0.32 0 0  0.33 0 0  0.34 0 0  0.35 0 0  0.36 0 0  0.37 0 0  0.38 0 0  0.39 0 0  0.4 0 0  0.41 0 0  0.42 0 0  0.43 0 0  0.44 0 0  0.45 0 0  0.46 0 0  0.47 0 0  0.48 0 0  0.49 0 0  0.5 0 0  0.51 0 0  0.52 0 0  0.53 0 0  0.54 0 0  0.55 0 0  0.5600000000000001 0 0  0.57 0 0  0.58 0 0  0.59 0 0  0.6 0 0  0.61 0 0  0.62 0 0  0.63 0 0  0.64 0 0  0.65 0 0  0.66 0 0  0.67 0 0  0.68 0 0  0.6899999999999999 0 0  0.7 0 0  0.71 0 0  0.72 0 0  0.73 0 0  0.74 0 0  0.75 0 0  0.76 0 0  0.77 0 0  0.78 0 0  0.79 0 0  0.8 0 0  0.8100000000000001 0 0  0.82 0 0  0.83 0 0  0.84 0 0  0.85 0 0  0.86 0 0  0.87 0 0  0.88 0 0  0.89 0 0  0.9 0 0  0.91 0 0  0.92 0 0  0.93 0 0  0.9399999999999999 0 0  0.95 0 0  0.96 0 0  0.97 0 0  0.98 0 0  0.99 0 0  1 0 0  0 0.01 0  0.01 0.01 0  0.02 0.01 0  0.03 0.01 0  0.04 0.01 0  0.05 0.01 0  0.06 0.01 0  0.07000000000000001 0.01 0  0.08 0.01 0  0.09 0.01 0  0.1 0.01 0  0.11 0.01 0  0.12 0.01 0  0.13 0.01 0  0.14 0.01 0  0.15 0.01 0  0.16 0.01 0  0.17 0.01 0  0.18 0.01 0  0.19 0.01 0  0.2 0.01 0  0.21 0.01 0  0.22 0.01 0  0.23 0.01 0  0.24 0.01 0  0.25 0.01 0  0.26 0.01 0  0.27 0.01 0  0.28 0.01 0  0.29 0.01 0  0.3 0.01 0  0.31 0.01 0  0.32 0.01 0  0.33 0.01 0  0.34 0.01 0  0.35 0.01 0  0.36 0.01 0  0.37 0.01 0  0.38 0.01 0  0.39 0.01 0  0.4 0.01 0  0.41 0.01 0  0.42 0.01 0  0.43 0.01 0  0.44 0.01 0  0.45 0.01 0  0.46 0.01 0  0.47 0.01 0  0.48 0.01 0  0.49 0.01 0  0.5 0.01 0  0.51 0.01 0  0.52 0.01 0  0.53 0.01 0  0.54 0.01 0  0.55 0.01 0  0.5600000000000001 0.01 0  0.57 0.01 0  0.58 0.01 0  0.59 0.01 0  0.6 0.01 0  0.61 0.01 0  0.62 0.01 0  0.63 0.01 0  0.64 0.01 0  0.65 0.01 0  0.66 0.01 0  0.67 0.01 0  0.68 0.01 0  0.6899999999999999 0.01 0  0.7 0.01 0  0.71 0.01 0  0.72 0.01 0  0.73 0.01 0  0.74 0.01 0  0.75 0.01 0  0.76 0.01 0  0.77 0.01 0  0.78 0.01 0  0.79 0.01 0  0.8 0.01 0  0.8100000000000001 0.01 0  0.82 0.01 0  0.83 0.01 0  0.84 0.01 0  0.85 0.01 0  0.86 0.01 0  0.87 0.01 0  0.88 0.01 0  0.89 0.01 0  0.9 0.01 0  0.91 0.01 0  0.92 0.01 0  0.93 0.01 0  0.9399999999999999 0.01 0  0.95 0.01 0  0.96 0.01 0  0.97 0.01 0  0.98 0.01 0  0.99 0.01 0  1 0.01 0  0 0.02 0  0.01 0.02 0  0.02 0.02 0  0.03 0.02 0  0.04 0.02 0  0.05 0.02 0  0.06 0.02 0  0.07000000000000001 0.02 0  0.08 0.02 0  0.09 0.02 0  0.1 0.02 0  0.11 0.02 0  0.12 0.02 0  0.13 0.02 0  0.14 0.02 0  0.15 0.02 0  0.16 0.02 0  0.17 0.02 0  0.18 0.02 0  0.19 0.02 0  0.2 0.02 0  0.21 0.02 0  0.22 0.02 0  0.23 0.02 0  0.24 0.02 0  0.25 0.02 0  0.26 0.02 0  0.27 0.02 0  0.28 0.02 0  0.29 0.02 0  0.3 0.02 0  0.31 0.02 0  0.32 0.02 0  0.33 0.02 0  0.34 0.02 0  0.35 0.02 0  0.36 0.02 0  0.37 0.02 0  0.38 0.02 0  0.39 0.02 0  0.4 0.02 0  0.41 0.02 0  0.42 0.02 0  0.43 0.02 0  0.44 0.02 0  0.45 0.02 0  0.46 0.02 0  0.47 0.02 0  0.48 0.02 0  0.49 0.02 0  0.5 0.02 0  0.51 0.02 0  0.52 0.02 0  0.53 0.02 0  0.54 0.02 0  0.55 0.02 0  0.5600000000000001 0.02 0  0.57 0.02 0  0.58 0.02 0  0.59 0.02 0  0.6 0.02 0  0.61 0.02 0  0.62 0.02 0  0.63 0.02 0  0.64 0.02 0  0.65 0.02 0  0.66 0.02 0  0.67 0.02 0  0.68 0.02 0  0.6899999999999999 0.02 0  0.7 0.02 0  0.71 0.02 0  0.72 0.02 0  0.73 0.02 0  0.74 0.02 0  0.75 0.02 0  0.76 0.02 0  0.77 0.02 0  0.78 0.02 0  0.79 0.02 0  0.8 0.02 0  0.8100000000000001 0.02 0  0.82 0.02 0  0.83 0.02 0  0.84 0.02 0  0.85 0.02 0  0.86 0.02 0  0.87 0.02 0  0.88 0.02 0  0.89 0.02 0  0.9 0.02 0  0.91 0.02 0  0.92 0.02 0  0.93 0.02 0  0.9399999999999999 0.02 0  0.95 0.02 0  0.96 0.02 0  0.97 0.02 0  0.98 0.02 0  0.99 0.02 0  1 0.02 0  0 0.03 0  0.01 0.03 0  0.02 0.03 0  0.03 0.03 0  0.04 0.03 0  0.05 0.03 0  0.06 0.03 0  0.07000000000000001 0.03 0  0.08 0.03 0  0.09 0.03 0  0.1 0.03 0  0.11 0.03 0  0.12 0.03 0  0.13 0.03 0  0.14 0.03 0  0.15 0.03 0  0.16 0.03 0  0.17 0.03 0  0.18 0.03 0  0.19 0.03 0  0.2 0.03 0  0.21 0.03 0  0.22 0.03 0  0.23 0.03 0  0.24 0.03 0  0.25 0.03 0  0.26 0.03 0  0.27 0.03 0  0.28 0.03 0  0.29 0.03 0  0.3 0.03 0  0.31 0.03 0  0.32 0.03 0  0.33 0.03 0  0.34 0.03 0  0.35 0.03 0  0.36 0.03 0  0.37 0.03 0  0.38 0.03 0  0.39 0.03 0  0.4 0.03 0  0.41 0.03 0  0.42 0.03 0  0.43 0.03 0  0.44 0.03 0  0.45 0.03 0  0.46 0.03 0  0.47 0.03 0  0.48 0.03 0  0.49 0.03 0  0.5 0.03 0  0.51 0.03 0  0.52 0.03 0  0.53 0.03 0  0.54 0.03 0  0.55 0.03 0  0.5600000000000001 0.03 0  0.57 0.03 0  0.58 0.03 0  0.59 0.03 0  0.6 0.03 0  0.61 0.03 0  0.62 0.03 0  0.63 0.03 0  0.64 0.03 0  0.65 0.03 0  0.66 0.03 0  0.67 0.03 0  0.68 0.03 0  0.6899999999999999 0.03 0  0.7 0.03 0  0.71 0.03 0  0.72 0.03 0  0.73 0.03 0  0.74 0.03 0  0.75 0.03 0  0.76 0.03 0  0.77 0.03 0  0.78 0.03 0  0.79 0.03 0  0.8 0.03 0  0.8100000000000001 0.03 0  0.82 0.03 0  0.83 0.03 0  0.84 0.03 0  0.85 0.03 0  0.86 0.03 0  0.87 0.03 0  0.88 0.03 0  0.89 0.03 0  0.9 0.03 0  0.91 0.03 0  0.92 0.03 0  0.93 0.03 0  0.9399999999999999 0.03 0  0.95 0.03 0  0.96 0.03 0  0.97 0.03 0  0.98 0.03 0  0.99 0.03 0  1 0.03 0  0 0.04 0  0.01 0.04 0  0.02 0.04 0  0.03 0.04 0  0.04 0.04 0  0.05 0.04 0  0.06 0.04 0  0.07000000000000001 0.04 0  0.08 0.04 0  0.09 0.04 0  0.1 0.04 0  0.11 0.04 0  0.12 0.04 0  0.13 0.04 0  0.14 0.04 0  0.15 0.04 0  0.16 0.04 0  0.17 0.04 0  0.18 0.04 0  0.19 0.04 0  0.2 0.04 0  0.21 0.04 0  0.22 0.04 0  0.23 0.04 0  0.24 0.04 0  0.25 0.04 0  0.26 0.04 0  0.27 0.04 0  0.28 0.04 0  0.29 0.04 0  0.3 0.04 0  0.31 0.04 0  0.32 0.04 0  0.33 0.04 0  0.34 0.04 0  0.35 0.04 0  0.36 0.04 0  0.37 0.04 0  0.38 0.04 0  0.39 0.04 0  0.4 0.04 0  0.41 0.04 0  0.42 0.04 0  0.43 0.04 0  0.44 0.04 0  0.45 0.04 0  0.46 0.04 0  0.47 0.04 0  0.48 0.04 0  0.49 0.04 0  0.5 0.04 0  0.51 0.04 0  0.52 0.04 0  0.53 0.04 0  0.54 0.04 0  0.55 0.04 0  0.5600000000000001 0.04 0  0.57 0.04 0  0.58 0.04 0  0.59 0.04 0  0.6 0.04 0  0.61 0.04 0  0.62 0.04 0  0.63 0.04 0  0.64 0.04 0  0.65 0.04 0  0.66 0.04 0  0.67 0.04 0  0.68 0.04 0  0.6899999999999999 0.04 0  0.7 0.04 0  0.71 0.04 0  0.72 0.04 0  0.73 0.04 0  0.74 0.04 0  0.75 0.04 0  0.76 0.04 0  0.77 0.04 0  0.78 0.04 0  0.79 0.04 0  0.8 0.04 0  0.8100000000000001 0.04 0  0.82 0.04 0  0.83 0.04 0  0.84 0.04 0  0.85 0.04 0  0.86 0.04 0  0.87 0.04 0  0.88 0.04 0  0.89 0.04 0  0.9 0.04 0  0.91 0.04 0  0.92 0.04 0  0.93 0.04 0  0.9399999999999999 0.04 0  0.95 0.04 0  0.96 0.04 0  0.97 0.04 0  0.98 0.04 0  0.99 0.04 0  1 0.04 0  0 0.05 0  0.01 0.05 0  0.02 0.05 0  0.03 0.05 0  0.04 0.05 0  0.05 0.05 0  0.06 0.05 0  0.07000000000000001 0.05 0  0.08 0.05 0  0.09 0.05 0  0.1 0.05 0  0.11 0.05 0  0.12 0.05 0  0.13 0.05 0  0.14 0.05 0  0.15 0.05 0  0.16 0.05 0  0.17 0.05 0  0.18 0.05 0  0.19 0.05 0  0.2 0.05 0  0.21 0.05 0  0.22 0.05 0  0.23 0.05 0  0.24 0.05 0  0.25 0.05 0  0.26 0.05 0  0.27 0.05 0  0.28 0.05 0  0.29 0.05 0  0.3 0.05 0  0.31 0.05 0  0.32 0.05 0  0.33 0.05 0  0.34 0.05 0  0.35 0.05 0  0.36 0.05 0  0.37 0.05 0  0.38 0.05 0  0.39 0.05 0  0.4 0.05 0  0.41 0.05 0  0.42 0.05 0  0.43 0.05 0  0.44 0.05 0  0.45 0.05 0  0.46 0.05 0  0.47 0.05 0  0.48 0.05 0  0.49 0.05 0  0.5 0.05 0  0.51 0.05 0  0.52 0.05 0  0.53 0.05 0  0.54 0.05 0  0.55 0.05 0  0.5600000000000001 0.05 0  0.57 0.05 0  0.58 0.05 0  0.59 0.05 0  0.6 0.05 0  0.61 0.05 0  0.62 0.05 0  0.63 0.05 0  0.64 0.05 0  0.65 0.05 0  0.66 0.05 0  0.67 0.05 0  0.68 0.05 0  0.6899999999999999 0.05 0  0.7 0.05 0  0.71 0.05 0  0.72 0.05 0  0.73 0.05 0  0.74 0.05 0  0.75 0.05 0  0.76 0.05 0  0.77 0.05 0  0.78 0.05 0  0.79 0.05 0  0.8 0.05 0  0.8100000000000001 0.05 0  0.82 0.05 0  0.83 0.05 0  0.84 0.05 0  0.85 0.05 0  0.86 0.05 0  0.87 0.05 0  0.88 0.05 0  0.89 0.05 0  0.9 0.05 0  0.91 0.05 0  0.92 0.05 0  0.93 0.05 0  0.9399999999999999 0.05 0  0.95 0.05 0  0.96 0.05 0  0.97 0.05 0  0.98 0.05 0  0.99 0.05 0  1 0.05 0  0 0.06 0  0.01 0.06 0  0.02 0.06 0  0.03 0.06 0  0.04 0.06 0  0.05 0.06 0  0.06 0.06 0  0.07000000000000001 0.06 0  0.08 0.06 0  0.09 0.06 0  0.1 0.06 0  0.11 0.06 0  0.12 0.06 0  0.13 0.06 0  0.14 0.06 0  0.15 0.06 0  0.16 0.06 0  0.17 0.06 0  0.18 0.06 0  0.19 0.06 0  0.2 0.06 0  0.21 0.06 0  0.22 0.06 0  0.23 0.06 0  0.24 0.06 0  0.25 0.06 0  0.26 0.06 0  0.27 0.06 0  0.28 0.06 0  0.29 0.06 0  0.3 0.06 0  0.31 0.06 0  0.32 0.06 0  0.33 0.06 0  0.34 0.06 0  0.35 0.06 0  0.36 0.06 0  0.37 0.06 0  0.38 0.06 0  0.39 0.06 0  0.4 0.06 0  0.41 0.06 0  0.42 0.06 0  0.43 0.06 0  0.44 0.06 0  0.45 0.06 0  0.46 0.06 0  0.47 0.06 0  0.48 0.06 0  0.49 0.06 0  0.5 0.06 0  0.51 0.06 0  0.52 0.06 0  0.53 0.06 0  0.54 0.06 0  0.55 0.06 0  0.5600000000000001 0.06 0  0.57 0.06 0  0.58 0.06 0  0.59 0.06 0  0.6 0.06 0  0.61 0.06 0  0.62 0.06 0  0.63 0.06 0  0.64 0.06 0  0.65 0.06 0  0.66 0.06 0  0.67 0.06 0  0.68 0.06 0  0.6899999999999999 0.06 0  0.7 0.06 0  0.71 0.06 0  0.72 0.06 0  0.73 0.06 0  0.74 0.06 0  0.75 0.06 0  0.76 0.06 0  0.77 0.06 0  0.78 0.06 0  0.79 0.06 0  0.8 0.06 0  0.8100000000000001 0.06 0  0.82 0.06 0  0.83 0.06 0  0.84 0.06 0  0.85 0.06 0  0.86 0.06 0  0.87 0.06 0  0.88 0.06 0  0.89 0.06 0  0.9 0.06 0  0.91 0.06 0  0.92 0.06 0  0.93 0.06 0  0.9399999999999999 0.06 0  0.95 0.06 0  0.96 0.06 0  0.97 0.06 0  0.98 0.06 0  0.99 0.06 0  1 0.06 0  0 0.07000000000000001 0  0.01 0.07000000000000001 0  0.02 0.07000000000000001 0  0.03 0.07000000000000001 0  0.04 0.07000000000000001 0  0.05 0.07000000000000001 0  0.06 0.07000000000000001 0  0.07000000000000001 0.07000000000000001 0  0.08 0.07000000000000001 0  0.09 0.07000000000000001 0  0.1 0.07000000000000001 0  0.11 0.07000000000000001 0  0.12 0.07000000000000001 0  0.13 0.07000000000000001 0  0.14 0.07000000000000001 0  0.15 0.07000000000000001 0  0.16 0.07000000000000001 0  0.17 0.0700
[...]
<PointData  Scalars="Indicator Function"> 
<DataArray  type="Float64"  Name="Indicator Function"  format="ascii">-1.0741496794408039e-18  3.4472613080162003e-17  1.1251841703720047e-16  3.8151344981923529e-18  6.5382651807782104e-17  -1.5400985806982867e-18  -2.1465358234954488e-18  1.2294025238552488e-16  9.5480892148063278e-16  -1.2916325976575547e-18  4.2844763868013988e-16  8.0148944202238242e-16  -7.0769499516114014e-19  -6.8537489520776421e-18  5.9027926969081251e-16  -3.3731495765968446e-18  -1.0313516430520640e-17  1.1321194722581641e-15  -4.2725528694805217e-18  -5.2044669194934484e-18  2.7789527913870196e-15  -5.5859931633966404e-18  -6.3314331578712633e-18  2.0372487193506436e-15  -2.8490802945751418e-19  -4.2861467550318685e-18  -1.9115793160326294e-18  -6.8805405881218669e-19  1.1902989206205172e-15  -3.0581981456764950e-18  -3.0017408991766291e-18  -2.8063252317473871e-18  -2.8110949073501546e-18  -6.9904915075669666e-18  1.7469173299969858e-17  -2.9878891460118154e-18  -7.2697463099874932e-18  -1.1254605261382306e-17  -1.1274161187529790e-17  -1.5890319241968924e-17  1.1954197179886359e-15  -2.7296859183908611e-18  -4.4026478684377499e-18  -2.7733541367854922e-18  -2.4660989162358209e-18  -2.1857199343990937e-18  2.3696144105121804e-16  -2.4057103904056981e-18  -1.3432246560289439e-19  -1.7081548288502663e-18  -1.0153371356607688e-18  2.4074124304840448e-34  -7.5386284368971173e-19  -1.9251739279657091e-18  -1.9259299443872359e-34  -1.0024979308691222e-18  4.3293144395233814e-16  -5.7565088819067016e-19  -6.4350088866558888e-19  -9.8982970804530543e-19  2.8888949165808538e-34  -1.0601882539622668e-18  -5.1801805205507929e-19  -5.0318391940904958e-21  -2.4074124304840448e-35  -4.5839082244603202e-19  -1.6533991396228279e-19  -2.1341911257811216e-20  7.8212910004099327e-17  -5.9371141549309087e-19  -6.0185310762101120e-35  -4.4621362768585469e-20  -8.2105351098406921e-20  -9.0099282524789517e-19  -1.7564646403174243e-18  -6.3455655489670967e-19  -3.0366454176356269e-19  -6.6948311754861916e-19  -4.2519621299305646e-19  -1.5026047217142292e-19  -1.8370980191430492e-19  2.5149955500989550e-16  -2.3376899756381858e-19  -9.2645073158663660e-19  -5.8216735850539611e-19  -2.7026176777694290e-19  2.4074124304840448e-35  -1.5802930555513672e-19  -3.0489389622949286e-19  -1.9993945290225889e-20  -5.9650105309095231e-20  9.0277966143151681e-36  -8.8005175512599267e-20  8.0711049592227979e-17  -3.8080493102293495e-20  -1.5220113305692322e-20  -8.7209305455196459e-21  -1.2981739117703550e-20  -1.0873666733224700e-20  7.5231638452626401e-37  6.0185310762101120e-36  7.7037197775489434e-34  1.9350160384279006e-02  1.0912360635395035e-01  3.1560505323653953e-02  4.0582798619897067e-02  4.3678411200245744e-02  2.7743949576586529e-02  3.8668551739326089e-02  1.2153029430668842e-01  1.2493958169401370e-01  2.3267984342040436e-02  1.8011914989017416e-01  2.5497399331997399e-02  1.3083308260739748e-01  5.8049623602972236e-02  2.1597118220232084e-01  1.7983242181497414e-01  1.5142723971176697e-01  1.5393494008730571e-01  1.8751068223434017e-01  2.4619905624672478e-02  2.0125661383333793e-01  9.0084470986010842e-02  6.9014724549035289e-02  1.0264893562397780e-02  1.5442471143053424e-01  6.8871903162989564e-02  2.4789760023017922e-02  1.7366564025037948e-02  2.1233674639702497e-02  4.4474762797323951e-02  1.0110852214382364e-01  4.3484289300830405e-02  2.8898039258565805e-02  1.1148048016517821e-01  1.0765005155682525e-01  2.9639115710934101e-04  1.3081191151239618e-01  3.0546338414826729e-01  3.1003821936860315e-01  2.0380044983359150e-01  7.9587717791008775e-02  4.9173649939614344e-02  1.1791924035744340e-01  8.8850577281747403e-02  7.8748859856770659e-02  4.3781721338231418e-02  2.0991419530448897e-02  4.3337425671169737e-02  1.7209901734474460e-02  2.2166430935567461e-02  1.8290687783269071e-02  2.7160771375435561e-02  4.0492803046801300e-02  1.4434448815038387e-02  3.3257920823023007e-02  3.9789379859920780e-02  2.0740009004407960e-02  2.3184562899255429e-02  2.4520198625337521e-02  5.5710875045835769e-03  7.4410408319586143e-03  1.5378133285968857e-02  2.6507676494300458e-03  9.0645556477977790e-05  3.0491332674927236e-03  6.7866368424489513e-03  7.6892338870428113e-04  1.9194615294395063e-03  9.0595081919014175e-03  7.7101681932014686e-03  3.4403124163991006e-03  2.9581570288952715e-03  7.1635759983942719e-03  2.4511279926285417e-02  2.6887379554347030e-02  9.2501129914433784e-03  5.4703340685280559e-03  1.1805807495582164e-02  8.4306237923736597e-03  6.6188431635647270e-03  3.8038367235081368e-04  2.3887697850632525e-03  8.8898934036870225e-03  1.4402525991747298e-02  1.0995522539309193e-02  6.2808412110592991e-03  2.3730398954613370e-03  4.7019089549946149e-03  3.1415256722894251e-03  3.6017889823490844e-04  8.9447131905315378e-04  9.6559091866421783e-04  1.7851411081067270e-03  1.0788047888871531e-03  8.6126308830014001e-04  3.0604758686189436e-04  1.5915404780792117e-04  3.6795225327991912e-04  2.1477228814449495e-04  -3.1894719134858207e-21  -1.2135141188703760e-19  1.5549924762819911e-02  3.0928478947938313e-02  4.3937565450997064e-02  2.5405771108109342e-02  8.8580087841269126e-02  3.4341093903853946e-02  1.1190966663143743e-01  2.9172399926584977e-02  9.8014005517987335e-02  1.5774317669483839e-01  4.9736304329303115e-02  1.2205862721593063e-02  2.4554661556946974e-01  2.0700297456291050e-01  3.2838261393948492e-01  1.0725124511358884e-01  2.2740395175474334e-01  2.2431040775615852e-02  1.2278267078960628e-01  6.5123014786033426e-02  2.4828293857322314e-01  2.7163026781486556e-02  1.2304924771722872e-01  6.9200939623667884e-02  1.5374252521308900e-02  2.4163616868169448e-02  5.3384135795915423e-02  2.0123153010227164e-02  3.1744354778790479e-02  1.6992940504949644e-01  7.0095247106168504e-02  1.4188255860548946e-01  7.7715406692651590e-02  1.7376237727284893e-01  5.9253403167839863e-02  9.0146879882831682e-02  1.2293467494630649e-01  2.3174187708106356e-01  2.9935673800475254e-01  3.7103956485395884e-01  1.4902035895886631e-01  6.5190326296173565e-02  7.8598348074244373e-02  8.8789910325200644e-02  3.3315203501713950e-02  3.1969373037116916e-02  8.6992546245460642e-03  4.8450354690580379e-02  4.1020931607919755e-03  5.4670921326882782e-02  3.5566064182109038e-02  4.9285929963743856e-03  2.8845235691173705e-02  7.1752570101273491e-02  6.3211009885290499e-03  3.3378734312446458e-03  1.4142033010396913e-02  6.4004936469999130e-03  1.2870185750643073e-02  3.6228545368468333e-02  1.0434102264415343e-02  2.3430239127827834e-02  7.5057033666302642e-03  1.6787426536224270e-03  1.4934223898957547e-03  9.0798977264013158e-03  2.4262937565617069e-03  1.9050258243421140e-03  8.2118921326692143e-03  1.0522836384316669e-02  4.3210362686984961e-03  4.1917213914514041e-03  4.8907443953589806e-04  1.9286581126789437e-02  3.3210029439542620e-02  1.8448364525805134e-02  1.4146361103003482e-04  1.1150845757881198e-02  1.1166014551631871e-02  7.6726175449528264e-03  4.8175664543908996e-03  5.4543094486152804e-03  4.4816570122443835e-03  1.5061235922695418e-02  1.3680473209773822e-02  9.4027277359895068e-03  3.1426361309125485e-03  4.2398088581606643e-03  4.9265302155747552e-03  7.5924357032515911e-04  1.3362679937934533e-03  5.0476970790180496e-04  2.2547537924364129e-03  1.2495231747100880e-03  1.3623406660678626e-03  5.4253977471482569e-04  5.4702951637195131e-05  4.0614489079538867e-04  4.6755087873021767e-04  1.1071012259085323e-19  4.2370458776519189e-33  8.2115319868869815e-02  6.5944260100803856e-02  1.9739881122403885e-01  5.5225610637843384e-02  1.3663119427586305e-03  9.9683791558221560e-02  1.3483636036801114e-01  8.8691692978696945e-02  1.8284352078508390e-01  3.4130023713845542e-01  1.9707638760102048e-01  2.5721744626389270e-01  1.8353376248506864e-01  1.2636685097326689e-01  1.0048145313828646e-01  3.7022560630324347e-01  1.8816651864851255e-01  2.0194638020944072e-01  1.3307134253327332e-01  3.6757950751631369e-01  2.7094074045109989e-01  4.0443128935104239e-01  2.5537035393164792e-01  3.4209888489156896e-02  4.1296408572401133e-02  2.3243244162353371e-01  2.5329047303447033e-01  1.2536922806376763e-01  4.3649836955982207e-02  2.8444387739309351e-02  9.9008800520130905e-02  1.4584567307241353e-01  1.1769473111917712e-01  6.1279206455177128e-02  1.7866812444750688e-01  1.2641831557860078e-01  1.2240625957426719e-02  1.6998275296632126e-01  3.8350867906346103e-01  2.8047193143301025e-01  2.0136897121626221e-01  1.1016041690316317e-01  7.9531553652911854e-02  1.5020478693728231e-01  7.6932753046543775e-02  1.5547505898888253e-01  1.5064116852073350e-01  9.5252585220906336e-02  9.1954864665931821e-02  1.0126948410815049e-02  4.7110832847899804e-02  4.6595674745050927e-02  2.2006376018604792e-02  6.3876991058985727e-02  4.2052391624288572e-03  5.4070267967051854e-02  7.9416509738681321e-02  6.3126927209414679e-02  5.7810382384579646e-02  5.0031104491962054e-02  4.4099411730693441e-03  7.1257305636281869e-03  2.3059916121821514e-02  4.0030267934025232e-03  1.3605625986394219e-03  2.6419849830525075e-03  9.9732999147461570e-03  4.4467010079482184e-03  3.4132276440385131e-03  1.2249421015128230e-02  7.0513160016591305e-03  2.5059598882929712e-03  5.1960436516319220e-03  9.4707433981954751e-03  3.0470038752546846e-02  2.9030682243380252e-02  4.9103019438128349e-03  6.2622850591063347e-03  1.2578393314861717e-02  7.2556431493503663e-03  7.8315334806655836e-03  1.9442128655594122e-03  4.0811713822751731e-03  1.3325730256292882e-02  1.5489056793128153e-02  9.8402139666443622e-03  6.6112633829250598e-03  1.5210587429605126e-03  6.5006394781983862e-03  2.6660314950178172e-03  1.5399495519857278e-03  7.0567055399712957e-04  9.4934073671030053e-04  2.7379838416619492e-03  8.3451126063566216e-04  1.2304630822713822e-03  3.5166383919786403e-04  1.4069925164670070e-04  3.5929681595314879e-04  -1.1435209044799213e-34  -8.0407575178167097e-33  7.8780980577657853e-02  6.8159309290241027e-02  8.9069146330398252e-02  4.6673272776401688e-02  5.6991965299002599e-02  1.1337137191735211e-01  8.2419629636824129e-02  1.2502703888999372e-01  6.0312175681410569e-03  2.9313279327457080e-02  1.0381690381635068e-01  1.2235448436553352e-01  1.4069824778866058e-01  2.8337018546502762e-01  4.5262088450909838e-01  2.3340288353450286e-01  1.4267843921529544e-02  2.5347067078725127e-01  3.8280547523688500e-02  2.5865143652741468e-01  2.7450123262536813e-01  1.6933960542862955e-01  6.9478346508372070e-03  2.0568646137771668e-01  1.1751017870254080e-01  7.8217051235664345e-02  1.4726709162083082e-01  1.1333270823883934e-02  2.1763232016083524e-02  4.1233530940737173e-03  1.9253044584019641e-01  1.5134640012360692e-01  1.9082364739220367e-01  2.3277407583089824e-01  1.2770868666289495e-01  5.9026626032634205e-03  1.2470932563159515e-01  1.3709390112491066e-01  2.0360880704947967e-01  3.4211358248364149e-01  3.9258105095580681e-01  7.1291984637628106e-02  8.0192535728714487e-02  3.5290608796487849e-02  1.0389010716717498e-01  5.0672518426424368e-02  1.0622848278045248e-01  5.7722913737341397e-02  2.2531188622341720e-02  8.4858435721623365e-03  5.5378969986648992e-02  4.3578544217010316e-02  1.0615275249371803e-02  4.8026766332385153e-02  1.1402835873685511e-01  3.1553030987512158e-02  1.6924974980995357e-02  3.9172684641796858e-02  3.6872025448117650e-02  4.1870678998923674e-02  6.3133515550812494e-02  3.0845201501439361e-02  3.3277768811132688e-02  6.1258145684396324e-03  6.1916136347764253e-03  4.5749456438932282e-03  1.1211286014450478e-02  2.3286400287199356e-03  4.7467518167871401e-03  1.0859543758412431e-02  1.1567209707877755e-02  2.3900019244820912e-03  4.6821106048465008e-03  1.5331282123118781e-03  2.1653644122521860e-02  3.6238670850674067e-02  1.5571719351907631e-02  3.3958192386764059e-03  1.0957780693578152e-02  1.0251785301334044e-02  6.1225802623007201e-03  5.6928816972443216e-03  8.5283149202657147e-03  5.2051645773742777e-03  1.7656423360167432e-02  1.2287864604889334e-02  7.8412932992438476e-03  2.4019331461794381e-03  4.2212045503295234e-03  5.7469746283837107e-03  2.8997854932764981e-04  2.0309356260221592e-03  9.0048336477719286e-06  2.6685632170120699e-03  1.5012765809196236e-03  1.4851778810972536e-03  7.3460107822329750e-04  2.5015651134555782e-04  1.8183278831940242e-04  1.9381447151802777e-20  -7.4951275478314261e-18  2.3843126063179673e-01  1.7199213849954637e-01  2.2217845428713481e-02  2.3685150717422279e-01  1.8453952960149145e-01  2.8189789810606550e-02  4.2430937016482567e-02  1.6133626928793690e-01  1.9392904621361026e-01  1.6070993878128931e-01  3.9294554792795461e-01  3.9275005659733281e-01  1.2312848706478999e-01  2.7068777857709747e-01  1.0903891034499774e-01  3.7435877898680116e-02  5.2780754181499046e-01  1.0571591146616351e-01  1.8713902983869690e-01  2.7110953085958310e-02  2.7264846119260777e-01  3.4565781405808416e-01  5.4072044692078836e-01  3.4993162584331539e-01  1.3550395562531251e-02  1.1995829347412443e-01  1.4192660334566706e-01  3.0687839781853432e-01  2.2332872469976753e-01  4.4363313920194547e-02  3.6883775495918071e-02  2.1284481003402675e-01  2.0967090793417134e-01  5.6391026281169626e-02  3.5680829898890494e-02  2.5576322180678995e-01  8.7575737712356563e-02  1.7397505949844520e-02  2.1567567104370719e-01  3.6507691070868403e-01  2.3811601648492967e-01  2.5599321206044978e-01  9.8678691135095725e-02  1.3935745588898382e-01  1.3161615540265917e-01  4.8224781878751753e-02  1.5297216119053836e-01  1.7126991938894071e-01  1.2364265183521610e-01  1.1970929420034818e-01  3.4567141716647869e-02  6.8402235235500125e-02  7.5266882004135047e-02  2.0438678884364260e-03  5.0837651125598127e-02  1.4601490797566150e-02  4.0589043326446937e-02  8.6374281829187341e-02  7.3390533379472059e-02  6.1715527827674331e-02  4.8337324851901134e-02  3.7974600785441225e-03  4.4026819515111696e-03  3.2696838698960312e-02  9.2834505209186385e-03  5.5762911481938005e-04  6.4965540828309067e-04  1.2952220817073217e-02  6.3546452726911820e-03  2.9750544944483646e-03  1.4929816941353063e-02  6.8214812931557496e-03  9.6772412025481510e-04  6.7397882108522810e-03  9.0046474419664246e-03  3.3164007795542891e-02  3.0390450999432651e-02  9.5584284437484905e-04  7.4748710853316585e-03  1.2484026215105609e-02  6.3304321161272003e-03  7.8377937378144649e-03  1.7566435006226796e-03  6.4611378247150858e-03  1.5744415732884730e-02  1.6404471038160440e-02  8.2999967652958150e-03  6.1417253342591523e-03  6.4617881698961883e-04  7.3271685442958734e-03  2.5138547423660075e-03  2.5970152806070023e-03  8.4232547465122099e-04  7.3615397033329898e-04  3.4873503742732905e-03  7.3830584772897965e-04  1.6352099584489110e-03  5.7419735326437048e-04  1.6037564701215201e-04  6.0185310762101120e-35  -1.4989624090978695e-18  2.0554247431742095e-01  9.0055155925618705e-02  7.3852340514981435e-02  2.0548081151657416e-01  7.4659838777209483e-02  5.9264651257762722e-02  6.4482563836084014e-02  1.6665900649972379e-01  4.8581358248528654e-02  3.5639735093255596e-02  1.9202213584277001e-02  6.2794624579793165e-02  5.0148009336539935e-02  2.4389770275656225e-01  8.1148054129484795e-02  4.6245387743396710e-01  4.4353023485943888e-02  8.1229751078556456e-02  2.7680529337656784e-01  1.1687718401073455e-01  1.9393642905296063e-01  4.4348703827211894e-01  2.3735281352395755e-02  1.0280911204897522e-01  3.3171939199123984e-01  1.5174434077934260e-01  7.8237558058803069e-03  2.1116091272561949e-01  1.7339995333530456e-01  2.5394358474153726e-02  1.1766153739202053e-02  1.2064140494701629e-01  1.3056839057569761e-01  1.7706441014792176e-01  3.1127558126887178e-01  2.5725666717079251e-02  3.0659752078532380e-02  1.4386545209397958e-01  1.3047024216461808e-01  2.3270814327071301e-01  3.9889267863647077e-01  3.3846538230938000e-01  3.9590057817362176e-02  4.7709682590213617e-02  4.1460481381633107e-02  1.3196973023345909e-01  3.2031466207741804e-02  1.5726365553013019e-01  1.4152996352037064e-01  3.4098251075775160e-02  4.1424456833803781e-02  3.0020524503605154e-02  2.4370748924685985e-02  1.1655066869119742e-02  3.8906730803423488e-02  1.2579746494273278e-01  4.6713625390743259e-02  2.7553932471397050e-02  6.2669407354166554e-02  6.5550721370887119e-02  6.4691520904549299e-02  7.9376325739647743e-02  3.9169188384009783e-02  3.3705757748071698e-02  9.8419508004450474e-03  1.1359427855747152e-02  5.8923810634683134e-03  1.1143551345212761e-02  4.0076549892581878e-03  6.8259899259288581e-03  1.2433516787467572e-02  1.3400552251156519e-02  1.3907156742044133e-03  4.1107848980188339e-03  3.0437205504694350e-03  2.3137910517795093e-02  3.8478292922139806e-02  1.4384839092807420e-02  7.5192099547411384e-03  1.0864555873213260e-02  9.8807213598851949e-03  5.1855164144194677e-03  6.5191960655810672e-03  9.1887096752466361e-03  4.9158054190289093e-03  2.0595322899500449e-02  1.1846152709176458e-02  6.4391016686982964e-03  2.4470251279793873e-03  4.0093696759769277e-03  6.6771754347580902e-03  9.8210991712395913e-04  2.8590771348394033e-03  1.5874385478255304e-04  2.7674352668631890e-03  2.1688990131453097e-03  1.4576115988010688e-03  1.1216153795324427e-03  5.1060019490812777e-04  1.2037062152420224e-35  5.3926038442842604e-33  8.9806980950903142e-02  8.5223311576885535e-02  4.6279726919705923e-02  1.8461544429333945e-01  1.2608262534211104e-01  2.3750334138397119e-01  5.6515134537979701e-03  5.0913507403855911e-02  9.3363218062625236e-02  2.1159195930625924e-01  1.2254305038580569e-01  2.9901033190837267e-01  3.3843326211110586e-01  2.7905678760350185e-02  1.2243732116235520e-01  1.7199119285583159e-01  1.7789982301446680e-01  4.7023821564895357e-01  2.6277654240147032e-02  1.4406280508255967e-01  3.6701057185902240e-02  1.0884254544567065e-01  1.6169622008822912e-01  4.8662889235087975e-01  2.9786530865131194e-01  7.2017108607508123e-02  1.4085706032182296e-01  5.9753369518427614e-02  1.8260563127966620e-01  1.9492455015861637e-01  2.9155146244723054e-02  3.1824186467796577e-02  2.3384242544869968e-01  2.8780701980052187e-01  8.2019760986610270e-03  1.1014766020137938e-01  2.3518109951937946e-01  4.4517422982659517e-02  2.3318878042922198e-02  2.3505907059105252e-01  3.2599497160084695e-01  2.7561153579623288e-01  2.8324437489016208e-01  3.6124981688679662e-02  1.5818829767540313e-01  9.4107729453469610e-02  5.0020543328345775e-02  1.2853716438424082e-01  1.1293210457456691e-01  6.3404842031486455e-02  9.2202535112062278e-02  2.2851349466005300e-02  6.0509757709438013e-02  7.6219482082974868e-02  5.8779107502697774e-04  3.9219509025241080e-02  4.4091523312555371e-02  9.0717807163346979e-03  6.8530231759417248e-02  5.2156255194085059e-02  3.6611815761983267e-02  2.6407169187268296e-02  2.1972046572783843e-02  1.8008695836904665e-02  3.9222216971599777e-02  1.0911539174412913e-02  2.5763326355226954e-03  8.3753491787941312e-04  1.4248656515761524e-02  6.0311656330969696e-03  1.7787675197759394e-03  1.7205914234940868e-02  7.5642916022550626e-03  1.8479157566166240e-04  6.9999123219233956e-03  8.0394926752305734e-03  3.5379245904861321e-02  3.1659815630729241e-02  1.8666655355401981e-03  1.0687114762914509e-02  1.2201506130293562e-02  6.0796402416236402e-03  7.1276163376586535e-03  8.4347040183632216e-04  7.4804610790345626e-03  1.7078265383010476e-02  1.8675816563941790e-02  7.4188009266613376e-03  5.1124094467609842e-03  7.2705761774542375e-04  7.7143995425971376e-03  3.0944192026378932e-03  3.2288533474446484e-03  1.1807577390543827e-03  5.1836847099754777e-04  3.7467154641150913e-03  1.0859110954023357e-03  1.7887311917504391e-03  8.5373364350920888e-04  -5.8255245400558670e-20  3.8518598887744717e-34  3.9816502436710553e-02  1.5299661780354639e-02  7.0904036102324805e-02  1.4506155362858433e-01  5.3400694704015907e-02  2.2274603110074520e-01  3.0283148174915724e-02  3.7332879274295629e-03  1.3638794559622164e-01  1.2777616677046319e-03  7.7247862568651168e-02  4.4895761290233545e-02  9.6833013646771923e-02  2.2984976062128129e-01  1.2780487695662249e-01  3.2180887078240711e-02  2.696