<?xml version="1.0"?>
<VTKFile type="UnstructuredGrid"  version="0.1"  >
<UnstructuredGrid>
<Piece  NumberOfPoints="10201" NumberOfCells="20000">
<Points>
<DataArray  type="Float64"  NumberOfComponents="3"  format="ascii">0 0 0  0.01 0 0  0.02 0 0  0.03 0 0  0.04 0 0  0.05 0 0  0.06 0 0  0.07000000000000001 0 0  0.08 0 0  0.09 0 0  0.1 0 0  0.11 0 0  0.12 0 0  0.13 0 0  0.14 0 0  0.15 0 0  0.16 0 0  0.17 0 0  0.18 0 0  0.19 0 0  0.2 0 0  0.21 0 0  0.22 0 0  0.23 0 0  0.24 0 0  0.25 0 0  0.26 0 0  0.27 0 0  0.28 0 0  0.29 0 0  0.3 0 0  0.31 0 0  0.32 0 0  0.33 0 0  0.34 0 0  0.35 0 0  0.36 0 0  0.37 0 0  0.38 0 0  0.39 0 0  0.4 0 0  0.41 0 0  0.42 0 0  0.43 0 0  0.44 0 0  0.45 0 0  0.46 0 0  0.47 0 0  0.48 0 0  0.49 0 0  0.5 0 0  0.51 0 0  0.52 0 0  0.53 0 0  0.54 0 0  0.55 0 0  0.5600000000000001 0 0  0.57 0 0  0.58 0 0  0.59 0 0  0.6 0 0  0.61 0 0  0.62 0 0  0.63 0 0  0.64 0 0  0.65 0 0  0.66 0 0  0.67 0 0  0.68 0 0  0.6899999999999999 0 0  0.7 0 0  0.71 0 0  0.72 0 0  0.73 0 0  0.74 0 0  0.75 0 0  0.76 0 0  0.77 0 0  0.78 0 0  0.79 0 0  0.8 0 0  0.8100000000000001 0 0  0.82 0 0  0.83 0 0  0.84 0 0  0.85 0 0  0.86 0 0  0.87 0 0  0.88 0 0  0.89 0 0  0.9 0 0  0.91 0 0  0.92 0 0  0.93 0 0  0.9399999999999999 0 0  0.95 0 0  0.96 0 0  0.97 0 0  0.98 0 0  0.99 0 0  1 0 0  0 0.01 0  0.01 0.01 0  0.02 0.01 0  0.03 0.01 0  0.04 0.01 0  0.05 0.01 0  0.06 0.01 0  0.07000000000000001 0.01 0  0.08 0.01 0  0.09 0.01 0  0.1 0.01 0  0.11 0.01 0  0.12 0.01 0  0.13 0.01 0  0.14 0.01 0  0.15 0.01 0  0.16 0.01 0  0.17 0.01 0  0.18 0.01 0  0.19 0.01 0  0.2 0.01 0  0.21 0.01 0  0.22 0.01 0  0.23 0.01 0  0.24 0.01 0  0.25 0.01 0  0.26 0.01 0  0.27 0.01 0  0.28 0.01 0  0.29 0.01 0  0.3 0.01 0  0.31 0.01 0  0.32 0.01 0  0.33 0.01 0  0.34 0.01 0  0.35 0.01 0  0.36 0.01 0  0.37 0.01 0  0.38 0.01 0  0.39 0.01 0  0.4 0.01 0  0.41 0.01 0  0.42 0.01 0  0.43 0.01 0  0.44 0.01 0  0.45 0.01 0  0.46 0.01 0  0.47 0.01 0  0.48 0.01 0  0.49 0.01 0  0.5 0.01 0  0.51 0.01 0  0.52 0.01 0  0.53 0.01 0  0.54 0.01 0  0.55 0.01 0  0.5600000000000001 0.01 0  0.57 0.01 0  0.58 0.01 0  0.59 0.01 0  0.6 0.01 0  0.61 0.01 0  0.62 0.01 0  0.63 0.01 0  0.64 0.01 0  0.65 0.01 0  0.66 0.01 0  0.67 0.01 0  0.68 0.01 0  0.6899999999999999 0.01 0  0.7 0.01 0  0.71 0.01 0  0.72 0.01 0  0.73 0.01 0  0.74 0.01 0  0.75 0.01 0  0.76 0.01 0  0.77 0.01 0  0.78 0.01 0  0.79 0.01 0  0.8 0.01 0  0.8100000000000001 0.01 0  0.82 0.01 0  0.83 0.01 0  0.84 0.01 0  0.85 0.01 0  0.86 0.01 0  0.87 0.01 0  0.88 0.01 0  0.89 0.01 0  0.9 0.01 0  0.91 0.01 0  0.92 0.01 0  0.93 0.01 0  0.9399999999999999 0.01 0  0.95 0.01 0  0.96 0.01 0  0.97 0.01 0  0.98 0.01 0  0.99 0.01 0  1 0.01 0  0 0.02 0  0.01 0.02 0  0.02 0.02 0  0.03 0.02 0  0.04 0.02 0  0.05 0.02 0  0.06 0.02 0  0.07000000000000001 0.02 0  0.08 0.02 0  0.09 0.02 0  0.1 0.02 0  0.11 0.02 0  0.12 0.02 0  0.13 0.02 0  0.14 0.02 0  0.15 0.02 0  0.16 0.02 0  0.17 0.02 0  0.18 0.02 0  0.19 0.02 0  0.2 0.02 0  0.21 0.02 0  0.22 0.02 0  0.23 0.02 0  0.24 0.02 0  0.25 0.02 0  0.26 0.02 0  0.27 0.02 0  0.28 0.02 0  0.29 0.02 0  0.3 0.02 0  0.31 0.02 0  0.32 0.02 0  0.33 0.02 0  0.34 0.02 0  0.35 0.02 0  0.36 0.02 0  0.37 0.02 0  0.38 0.02 0  0.39 0.02 0  0.4 0.02 0  0.41 0.02 0  0.42 0.02 0  0.43 0.02 0  0.44 0.02 0  0.45 0.02 0  0.46 0.02 0  0.47 0.02 0  0.48 0.02 0  0.49 0.02 0  0.5 0.02 0  0.51 0.02 0  0.52 0.02 0  0.53 0.02 0  0.54 0.02 0  0.55 0.02 0  0.5600000000000001 0.02 0  0.57 0.02 0  0.58 0.02 0  0.59 0.02 0  0.6 0.02 0  0.61 0.02 0  0.62 0.02 0  0.63 0.02 0  0.64 0.02 0  0.65 0.02 0  0.66 0.02 0  0.67 0.02 0  0.68 0.02 0  0.6899999999999999 0.02 0  0.7 0.02 0  0.71 0.02 0  0.72 0.02 0  0.73 0.02 0  0.74 0.02 0  0.75 0.02 0  0.76 0.02 0  0.77 0.02 0  0.78 0.02 0  0.79 0.02 0  0.8 0.02 0  0.8100000000000001 0.02 0  0.82 0.02 0  0.83 0.02 0  0.84 0.02 0  0.85 0.02 0  0.86 0.02 0  0.87 0.02 0  0.88 0.02 0  0.89 0.02 0  0.9 0.02 0  0.91 0.02 0  0.92 0.02 0  0.93 0.02 0  0.9399999999999999 0.02 0  0.95 0.02 0  0.96 0.02 0  0.97 0.02 0  0.98 0.02 0  0.99 0.02 0  1 0.02 0  0 0.03 0  0.01 0.03 0  0.02 0.03 0  0.03 0.03 0  0.04 0.03 0  0.05 0.03 0  0.06 0.03 0  0.07000000000000001 0.03 0  0.08 0.03 0  0.09 0.03 0  0.1 0.03 0  0.11 0.03 0  0.12 0.03 0  0.13 0.03 0  0.14 0.03 0  0.15 0.03 0  0.16 0.03 0  0.17 0.03 0  0.18 0.03 0  0.19 0.03 0  0.2 0.03 0  0.21 0.03 0  0.22 0.03 0  0.23 0.03 0  0.24 0.03 0  0.25 0.03 0  0.26 0.03 0  0.27 0.03 0  0.28 0.03 0  0.29 0.03 0  0.3 0.03 0  0.31 0.03 0  0.32 0.03 0  0.33 0.03 0  0.34 0.03 0  0.35 0.03 0  0.36 0.03 0  0.37 0.03 0  0.38 0.03 0  0.39 0.03 0  0.4 0.03 0  0.41 0.03 0  0.42 0.03 0  0.43 0.03 0  0.44 0.03 0  0.45 0.03 0  0.46 0.03 0  0.47 0.03 0  0.48 0.03 0  0.49 0.03 0  0.5 0.03 0  0.51 0.03 0  0.52 0.03 0  0.53 0.03 0  0.54 0.03 0  0.55 0.03 0  0.5600000000000001 0.03 0  0.57 0.03 0  0.58 0.03 0  0.59 0.03 0  0.6 0.03 0  0.61 0.03 0  0.62 0.03 0  0.63 0.03 0  0.64 0.03 0  0.65 0.03 0  0.66 0.03 0  0.67 0.03 0  0.68 0.03 0  0.6899999999999999 0.03 0  0.7 0.03 0  0.71 0.03 0  0.72 0.03 0  0.73 0.03 0  0.74 0.03 0  0.75 0.03 0  0.76 0.03 0  0.77 0.03 0  0.78 0.03 0  0.79 0.03 0  0.8 0.03 0  0.8100000000000001 0.03 0  0.82 0.03 0  0.83 0.03 0  0.84 0.03 0  0.85 0.03 0  0.86 0.03 0  0.87 0.03 0  0.88 0.03 0  0.89 0.03 0  0.9 0.03 0  0.91 0.03 0  0.92 0.03 0  0.93 0.03 0  0.9399999999999999 0.03 0  0.95 0.03 0  0.96 0.03 0  0.97 0.03 0  0.98 0.03 0  0.99 0.03 0  1 0.03 0  0 0.04 0  0.01 0.04 0  0.02 0.04 0  0.03 0.04 0  0.04 0.04 0  0.05 0.04 0  0.06 0.04 0  0.07000000000000001 0.04 0  0.08 0.04 0  0.09 0.04 0  0.1 0.04 0  0.11 0.04 0  0.12 0.04 0  0.13 0.04 0  0.14 0.04 0  0.15 0.04 0  0.16 0.04 0  0.17 0.04 0  0.18 0.04 0  0.19 0.04 0  0.2 0.04 0  0.21 0.04 0  0.22 0.04 0  0.23 0.04 0  0.24 0.04 0  0.25 0.04 0  0.26 0.04 0  0.27 0.04 0  0.28 0.04 0  0.29 0.04 0  0.3 0.04 0  0.31 0.04 0  0.32 0.04 0  0.33 0.04 0  0.34 0.04 0  0.35 0.04 0  0.36 0.04 0  0.37 0.04 0  0.38 0.04 0  0.39 0.04 0  0.4 0.04 0  0.41 0.04 0  0.42 0.04 0  0.43 0.04 0  0.44 0.04 0  0.45 0.04 0  0.46 0.04 0  0.47 0.04 0  0.48 0.04 0  0.49 0.04 0  0.5 0.04 0  0.51 0.04 0  0.52 0.04 0  0.53 0.04 0  0.54 0.04 0  0.55 0.04 0  0.5600000000000001 0.04 0  0.57 0.04 0  0.58 0.04 0  0.59 0.04 0  0.6 0.04 0  0.61 0.04 0  0.62 0.04 0  0.63 0.04 0  0.64 0.04 0  0.65 0.04 0  0.66 0.04 0  0.67 0.04 0  0.68 0.04 0  0.6899999999999999 0.04 0  0.7 0.04 0  0.71 0.04 0  0.72 0.04 0  0.73 0.04 0  0.74 0.04 0  0.75 0.04 0  0.76 0.04 0  0.77 0.04 0  0.78 0.04 0  0.79 0.04 0  0.8 0.04 0  0.8100000000000001 0.04 0  0.82 0.04 0  0.83 0.04 0  0.84 0.04 0  0.85 0.04 0  0.86 0.04 0  0.87 0.04 0  0.88 0.04 0  0.89 0.04 0  0.9 0.04 0  0.91 0.04 0  0.92 0.04 0  0.93 0.04 0  0.9399999999999999 0.04 0  0.95 0.04 0  0.96 0.04 0  0.97 0.04 0  0.98 0.04 0  0.99 0.04 0  1 0.04 0  0 0.05 0  0.01 0.05 0  0.02 0.05 0  0.03 0.05 0  0.04 0.05 0  0.05 0.05 0  0.06 0.05 0  0.07000000000000001 0.05 0  0.08 0.05 0  0.09 0.05 0  0.1 0.05 0  0.11 0.05 0  0.12 0.05 0  0.13 0.05 0  0.14 0.05 0  0.15 0.05 0  0.16 0.05 0  0.17 0.05 0  0.18 0.05 0  0.19 0.05 0  0.2 0.05 0  0.21 0.05 0  0.22 0.05 0  0.23 0.05 0  0.24 0.05 0  0.25 0.05 0  0.26 0.05 0  0.27 0.05 0  0.28 0.05 0  0.29 0.05 0  0.3 0.05 0  0.31 0.05 0  0.32 0.05 0  0.33 0.05 0  0.34 0.05 0  0.35 0.05 0  0.36 0.05 0  0.37 0.05 0  0.38 0.05 0  0.39 0.05 0  0.4 0.05 0  0.41 0.05 0  0.42 0.05 0  0.43 0.05 0  0.44 0.05 0  0.45 0.05 0  0.46 0.05 0  0.47 0.05 0  0.48 0.05 0  0.49 0.05 0  0.5 0.05 0  0.51 0.05 0  0.52 0.05 0  0.53 0.05 0  0.54 0.05 0  0.55 0.05 0  0.5600000000000001 0.05 0  0.57 0.05 0  0.58 0.05 0  0.59 0.05 0  0.6 0.05 0  0.61 0.05 0  0.62 0.05 0  0.63 0.05 0  0.64 0.05 0  0.65 0.05 0  0.66 0.05 0  0.67 0.05 0  0.68 0.05 0  0.6899999999999999 0.05 0  0.7 0.05 0  0.71 0.05 0  0.72 0.05 0  0.73 0.05 0  0.74 0.05 0  0.75 0.05 0  0.76 0.05 0  0.77 0.05 0  0.78 0.05 0  0.79 0.05 0  0.8 0.05 0  0.8100000000000001 0.05 0  0.82 0.05 0  0.83 0.05 0  0.84 0.05 0  0.85 0.05 0  0.86 0.05 0  0.87 0.05 0  0.88 0.05 0  0.89 0.05 0  0.9 0.05 0  0.91 0.05 0  0.92 0.05 0  0.93 0.05 0  0.9399999999999999 0.05 0  0.95 0.05 0  0.96 0.05 0  0.97 0.05 0  0.98 0.05 0  0.99 0.05 0  1 0.05 0  0 0.06 0  0.01 0.06 0  0.02 0.06 0  0.03 0.06 0  0.04 0.06 0  0.05 0.06 0  0.06 0.06 0  0.07000000000000001 0.06 0  0.08 0.06 0  0.09 0.06 0  0.1 0.06 0  0.11 0.06 0  0.12 0.06 0  0.13 0.06 0  0.14 0.06 0  0.15 0.06 0  0.16 0.06 0  0.17 0.06 0  0.18 0.06 0  0.19 0.06 0  0.2 0.06 0  0.21 0.06 0  0.22 0.06 0  0.23 0.06 0  0.24 0.06 0  0.25 0.06 0  0.26 0.06 0  0.27 0.06 0  0.28 0.06 0  0.29 0.06 0  0.3 0.06 0  0.31 0.06 0  0.32 0.06 0  0.33 0.06 0  0.34 0.06 0  0.35 0.06 0  0.36 0.06 0  0.37 0.06 0  0.38 0.06 0  0.39 0.06 0  0.4 0.06 0  0.41 0.06 0  0.42 0.06 0  0.43 0.06 0  0.44 0.06 0  0.45 0.06 0  0.46 0.06 0  0.47 0.06 0  0.48 0.06 0  0.49 0.06 0  0.5 0.06 0  0.51 0.06 0  0.52 0.06 0  0.53 0.06 0  0.54 0.06 0  0.55 0.06 0  0.5600000000000001 0.06 0  0.57 0.06 0  0.58 0.06 0  0.59 0.06 0  0.6 0.06 0  0.61 0.06 0  0.62 0.06 0  0.63 0.06 0  0.64 0.06 0  0.65 0.06 0  0.66 0.06 0  0.67 0.06 0  0.68 0.06 0  0.6899999999999999 0.06 0  0.7 0.06 0  0.71 0.06 0  0.72 0.06 0  0.73 0.06 0  0.74 0.06 0  0.75 0.06 0  0.76 0.06 0  0.77 0.06 0  0.78 0.06 0  0.79 0.06 0  0.8 0.06 0  0.8100000000000001 0.06 0  0.82 0.06 0  0.83 0.06 0  0.84 0.06 0  0.85 0.06 0  0.86 0.06 0  0.87 0.06 0  0.88 0.06 0  0.89 0.06 0  0.9 0.06 0  0.91 0.06 0  0.92 0.06 0  0.93 0.06 0  0.9399999999999999 0.06 0  0.95 0.06 0  0.96 0.06 0  0.97 0.06 0  0.98 0.06 0  0.99 0.06 0  1 0.06 0  0 0.07000000000000001 0  0.01 0.07000000000000001 0  0.02 0.07000000000000001 0  0.03 0.07000000000000001 0  0.04 0.07000000000000001 0  0.05 0.07000000000000001 0  0.06 0.07000000000000001 0  0.07000000000000001 0.07000000000000001 0  0.08 0.07000000000000001 0  0.09 0.07000000000000001 0  0.1 0.07000000000000001 0  0.11 0.07000000000000001 0  0.12 0.07000000000000001 0  0.13 0.07000000000000001 0  0.14 0.07000000000000001 0  0.15 0.07000000000000001 0  0.16 0.07000000000000001 0  0.17 0.0700
[...]
<PointData  Scalars="Indicator Function"> 
<DataArray  type="Float64"  Name="Indicator Function"  format="ascii">-4.2643697476035954e-23  4.2279471907707881e-22  3.2278135901284474e-23  7.3584678823222755e-22  4.5487867395530539e-21  -1.9195793513108791e-23  -8.9623007755041661e-24  8.5322998893691803e-22  7.3701930465488670e-20  -1.5986723171183110e-36  -1.0446230872493313e-22  9.5258711883299513e-21  -1.1610052833222004e-22  -1.8337711872827685e-36  1.9363116900940452e-20  -2.2476930237002358e-22  -5.1434196151401745e-22  1.4392899389062896e-19  -3.1598020504092368e-22  -3.7615819226313200e-36  -1.3963564186498706e-20  -5.2061211432356891e-23  -8.7753654055971424e-23  1.8412601096955208e-19  -6.9433336539409035e-22  -1.2571439022410511e-21  -1.6133556111231927e-21  -8.0667780556160648e-22  2.6195517286114964e-20  -7.2951363315019448e-22  -1.2866201931525685e-21  -1.8639116537120734e-21  -1.1004966863126152e-21  -8.1854324540017637e-22  3.4411684863692419e-19  -2.3586246763292930e-21  -1.6381573661306379e-21  -2.3934066457792613e-22  8.2284604557560126e-38  -2.1336453625449582e-22  1.0236763128480071e-19  -2.2318972610165105e-21  -1.0327582334053058e-21  -5.7616906362699050e-22  -1.0452745305885556e-21  -6.1028976144945661e-22  4.5657412998540887e-19  -1.7793461768125959e-22  0.0000000000000000e+00  -9.2380925139089896e-23  -3.0891116162638711e-22  -3.4247154976077220e-22  -3.7403686935254053e-22  -4.3120934895167428e-23  -6.1106278529371098e-23  -2.6592119744372149e-23  2.0890947955507034e-22  -9.5821253320747400e-24  -7.3171319349603581e-24  -6.2067890935741222e-24  -5.0188603856829975e-24  -3.9788604198169232e-24  -3.1134702237191466e-24  -2.3038310298805541e-24  -1.1706072508701373e-24  -2.7281307263901306e-25  1.0928424042800954e-38  -9.9182335850630508e-39  1.3249551926136830e-21  -3.9810057638771051e-27  -1.9811756256028278e-25  -4.0525696048581945e-25  -6.3572210108207074e-25  -9.7991458715416039e-25  -1.1006818054824562e-24  -1.2619069746331210e-24  -1.4384336496774356e-24  -1.3288238606457815e-24  -1.2854710114588877e-24  -1.4781678677740536e-24  -1.6161658761627382e-24  1.2435432481108601e-21  -1.9188739100087402e-24  -2.3279900359646595e-24  -2.2360227629190389e-24  -1.8664553769382784e-24  -1.5354487558473020e-24  -1.3011242601579764e-24  -1.1174766971128660e-24  -9.4541048603523947e-25  -7.6708734822221393e-25  -5.7745943581210845e-25  -3.7816205282035727e-25  5.5669145558499128e-23  -1.6989566789228374e-39  2.2270107818312869e-39  -1.0896195083456224e-25  -2.9011373982372900e-25  -3.2955933959049992e-25  -1.0587147869363830e-25  0.0000000000000000e+00  -1.1754943508222875e-38  7.6820056025110316e-07  3.8434834369129386e-07  7.4414423698596960e-07  1.5883432468792031e-06  6.9160134810174157e-07  3.2290091546352184e-07  2.9472804861124669e-08  1.8082759346809795e-07  3.5435577559114900e-06  1.1360190518899038e-06  4.2830671415074463e-06  6.7647991461225344e-06  2.0914811845380160e-06  3.6530077495526959e-07  8.0981675711837130e-06  4.0915027842667303e-06  1.0220878125902749e-05  1.6775751598759196e-06  5.6921933347150255e-06  4.6172954086156846e-06  1.8757028192577573e-06  3.1616585896551996e-06  3.8904024872259590e-06  1.6260633242241560e-06  1.1694966280526834e-05  2.2646691238735548e-05  2.9063630916282034e-05  9.9469402699311644e-06  1.5548294395117761e-05  2.9549428968431273e-05  8.4029744055814094e-06  3.3577247316436869e-05  1.0196548192610265e-05  1.7716799790024560e-05  4.5069557183752829e-05  4.6629723110532942e-05  2.8779153492140100e-05  7.7002543088027819e-06  1.2648213982379312e-06  1.7259703787790428e-05  3.6832274872342629e-05  4.6440723643625697e-05  2.0758678242023376e-05  2.3958253129890221e-05  6.8508653808888392e-06  1.0994002969007202e-05  5.8878672632377913e-06  5.1414018547465255e-07  3.3283736002603789e-06  1.0503451648844221e-06  5.0396761871225228e-06  6.1694189755504389e-06  5.1124455944980405e-06  6.2942225716408883e-07  7.8608172427744899e-07  4.7904104228698228e-07  4.4762677618595856e-07  2.5608378738155279e-07  1.6107940645266012e-07  1.1153757328475048e-07  8.0382516187438906e-08  5.6880224133563043e-08  3.7969625753425905e-08  2.2517317394065559e-08  9.8291268182310547e-09  6.1717202346850288e-10  9.1919565387816879e-09  1.6392871334436095e-08  2.2150547386681332e-08  2.6202438621646833e-08  2.9976582482847932e-08  3.3883922312554181e-08  3.9329575042118510e-08  4.4310961832504866e-08  4.6694943485702119e-08  5.0078971164047229e-08  5.0156444302439008e-08  4.7838156409491876e-08  4.7897066654205754e-08  5.0756077021975379e-08  5.1462636314011153e-08  5.4252291857565159e-08  6.2538306761547880e-08  6.6986387469923307e-08  6.3069323539480804e-08  5.5183217175814048e-08  4.7697605792086560e-08  4.1779569110446081e-08  3.6923897944272089e-08  3.2418945401428289e-08  2.7818711127753224e-08  2.2938567317346822e-08  1.7763479773535682e-08  1.2393790463310177e-08  7.0416410042794288e-09  2.0672039061666874e-09  1.9628840047044290e-09  4.2447825199085990e-09  3.8144220159506602e-09  -8.5329659676115249e-25  -1.4602802890800886e-23  2.9498988284868617e-06  7.5341799176830293e-07  1.0416916161995887e-06  2.6853450425241678e-06  1.9520057509597548e-06  6.4848587348066057e-06  6.7642210777406139e-06  4.8348490455867099e-06  9.2851282019772342e-06  1.1583749383412045e-05  1.2873071513434455e-05  3.2985225221240065e-06  3.7439267694570571e-06  8.6400172137949327e-06  4.6147473441995193e-06  8.3871306609622688e-06  3.8597631004374606e-06  3.7241983205312880e-06  1.7191142694382466e-05  1.1803298056769140e-05  2.2727978857334623e-05  2.4503379199047002e-05  2.5323772751743235e-05  2.4494973738710005e-05  2.7546900901329069e-05  2.2788278414784777e-05  1.2378056164658582e-05  1.3968009319721639e-05  2.2031035663304988e-05  2.6495165754970041e-06  4.3593380194818534e-05  2.9530620653232825e-05  2.9717116777683782e-05  4.2066393150134349e-06  3.8784173179133597e-05  5.9741992718883289e-05  4.6485517277251882e-05  1.6073568080385230e-05  2.4355054152056749e-06  7.5064610072590089e-06  3.4104176306723179e-05  5.3740531529596125e-05  3.7850819935498104e-05  1.1430978193813311e-05  5.6094218991754020e-05  3.8415963005228082e-05  1.3625594407181602e-05  2.1619768942315043e-06  3.8879222749184800e-06  1.1416926280400833e-05  1.3783610025182359e-05  4.9706522614843877e-06  7.6398716816273723e-06  2.2206906797320422e-06  2.0083943040931908e-06  2.5882545855199690e-07  6.9762027283268003e-07  3.7430092614807966e-07  2.4716368605453439e-07  1.7081497489306738e-07  1.2712800347860383e-07  9.6003436131021461e-08  7.1346085775799528e-08  5.1162897343670817e-08  3.4471570004855340e-08  2.0663095542476773e-08  9.1215724413026846e-09  4.5251055377350132e-10  8.7364840298645421e-09  1.4832429611573937e-08  1.9779498104140912e-08  2.4849220926262649e-08  3.0678754759052251e-08  3.8461109108666050e-08  4.2735419843300467e-08  4.6763080303750487e-08  5.0443348723663851e-08  4.8704579223521764e-08  4.7558368613860539e-08  5.0834006354912290e-08  5.4199747590115100e-08  5.5187903345652748e-08  6.3539304441303902e-08  7.3699961830236213e-08  7.4211695951145918e-08  6.6958125717420071e-08  5.8464119052675485e-08  5.1635510885134398e-08  4.6394545546972661e-08  4.1875998673371112e-08  3.7401304876972031e-08  3.2623353475323831e-08  2.7430974747184569e-08  2.1860915735466478e-08  1.6070781212560319e-08  1.0368508785626962e-08  5.2746453226301093e-09  1.5314550680557961e-09  2.2815607644631019e-10  -4.2565777826575365e-24  -2.1686339690790297e-23  2.6306071063030354e-07  1.7264581937717158e-06  8.3634551609342708e-07  2.7650181014362896e-07  2.1222664622746582e-06  3.6775152611907502e-07  1.2209498798111296e-06  3.3604887573990053e-07  1.2432450930805418e-06  8.5475151394762382e-06  3.4022188076322664e-06  6.1847418840411363e-06  1.4371843867395421e-05  8.2748689892748667e-06  1.2433847911211207e-06  1.1664536369182290e-05  9.6652316271063516e-06  1.9533804507886309e-05  9.7721645964657962e-06  1.3000010877998701e-05  1.8369158158607043e-06  6.0123756844561617e-07  6.2062476802285696e-07  2.6807161906194755e-06  5.0108146803715972e-07  2.2574474016032092e-05  4.4073106782955196e-05  5.3986741315587883e-05  2.2417394535511888e-05  2.2823199178731212e-05  4.6120623890603471e-05  1.0294310310288023e-05  5.2506539208010383e-05  8.0040519272433517e-06  2.3169682066402233e-05  5.7657725881700519e-05  5.7213208516567608e-05  3.4476154969950467e-05  6.3581147543122969e-06  5.4843170796772735e-07  2.2251536976315468e-05  4.7303885573037682e-05  6.1260617834837063e-05  2.1421430103486389e-05  3.2386958725621927e-05  1.1231491716417813e-05  2.2842604481637707e-05  1.2804160646133054e-05  3.7269554540506538e-07  3.1473385524334378e-06  2.8667708923972747e-08  9.1421559701409197e-06  1.0287293017983682e-05  6.2475696159392982e-06  1.9233389187071152e-06  9.1937111661850905e-07  9.3056670977001603e-07  5.3135850573356943e-07  3.0064657277631654e-07  2.1649585650365843e-07  1.5869405533438126e-07  1.2095550387082590e-07  9.1887503532224886e-08  6.8250060521080625e-08  4.8759346731919024e-08  3.2560245643542391e-08  1.9046083456931424e-08  7.7701525502804085e-09  1.8978102591094226e-09  9.8758092446164668e-09  1.5555246898914005e-08  2.1165026829577163e-08  2.6861593014218105e-08  3.4772719423253678e-08  4.2166928421131315e-08  4.5478099223934640e-08  5.1343072241254255e-08  5.2295076313477084e-08  5.0036156967326147e-08  5.1519326696614042e-08  5.6922223345124640e-08  5.8404817922872615e-08  6.2781590806613826e-08  7.5556781252003187e-08  8.2327215585943213e-08  7.7871900865769732e-08  6.9235057042962046e-08  6.1688430058717992e-08  5.6112513012593336e-08  5.1698226339342823e-08  4.7589622875721096e-08  4.3276618811023811e-08  3.8540623812521996e-08  3.3346851346925858e-08  2.7796721509353202e-08  2.2153430234791969e-08  1.6912320103598733e-08  1.2725682136517353e-08  9.2723724891945213e-09  -1.2868001788005784e-24  -8.2284604557560126e-38  3.9066636540189303e-07  2.7744422273101140e-06  3.1113671464351450e-07  1.0354354712576222e-06  3.4418462882926173e-06  1.7441834444045834e-06  8.1365215070969735e-06  1.0025796631716226e-05  7.7130188032041589e-06  1.0817476405269153e-05  1.4039139428476969e-05  1.9078049063924814e-05  9.3270616415082927e-06  2.4710652763788196e-06  1.1446368219252144e-05  7.9290534607429514e-06  1.2801261588645200e-05  9.1957638461432678e-07  2.7856238505406467e-06  2.0808686610410134e-05  1.6914768108156531e-05  3.0518127395895341e-05  3.4118484302781236e-05  3.6443392057798901e-05  3.6159321947917304e-05  3.7940822881644870e-05  2.8706633750870951e-05  1.2464027820591704e-05  2.1653968856023604e-05  3.1335813970337988e-05  2.3428723459868315e-06  5.8895187174141289e-05  4.0612686042733158e-05  3.7138652480743950e-05  7.5222898844198015e-06  4.6231518924315978e-05  6.9857858080997891e-05  5.0661498738749831e-05  1.4891242484587116e-05  1.4758686474633956e-06  7.7973562770414197e-06  4.0108371653249344e-05  6.1973005147716710e-05  4.4014837337290646e-05  1.1447701655043429e-05  7.4305899283494352e-05  5.7081971514633143e-05  2.1430969188495524e-05  1.3775828954295787e-06  5.7665347827923510e-06  1.5534693626355728e-05  1.9144022508569683e-05  7.2318232888807903e-06  9.3478414665365191e-06  1.9878819277700815e-06  3.0032781657466672e-06  5.9315259664408680e-07  9.0317445875591113e-07  3.6520137400895988e-07  2.6198707832419219e-07  1.9028156991652992e-07  1.4389365728468031e-07  1.0973335222513314e-07  8.2349164443305775e-08  5.9815949261495136e-08  4.1088203140386386e-08  2.5506321674316537e-08  1.2378827814776104e-08  1.4229808735277459e-09  8.2238061832849504e-09  1.5314582509838069e-08  2.1139379736657470e-08  2.7272172664293629e-08  3.4249826478788685e-08  4.3823119023455411e-08  4.8826307395967877e-08  5.3751658571654900e-08  5.8844863807434972e-08  5.6880111523454810e-08  5.6098934507444333e-08  6.0960123371224981e-08  6.5644478798806732e-08  6.6775014759789320e-08  7.7556235560173224e-08  9.0593041986922423e-08  9.1373252962404798e-08  8.3413121795667343e-08  7.4845341558355475e-08  6.8505995137633364e-08  6.3926639801048364e-08  6.0065191873669109e-08  5.6195805206360953e-08  5.1957511645795224e-08  4.7232235131107050e-08  4.2070771798120278e-08  3.6713070306510388e-08  3.1664005634616298e-08  2.7470383845172615e-08  2.2339777214259183e-08  5.5804803813600672e-24  -1.1698225660311370e-22  3.5495146265675927e-07  1.0620774144724153e-07  1.7730459829117547e-06  7.0854412212751323e-07  5.3249368527545008e-07  3.2570788690259933e-06  5.8148742541150108e-07  2.3431827366823879e-06  1.1778248452836497e-06  4.7844054601298868e-07  1.0044645480219710e-05  7.2016160213104446e-06  4.4255874301983581e-06  1.7598973369675466e-05  1.1957405839269381e-05  2.4885058491741524e-06  1.2920416746121873e-05  1.0594471670566075e-05  2.3063730587170432e-05  1.3203982492872129e-05  1.6864030122913573e-05  7.3920739388119684e-07  1.6660220614541855e-06  1.4135851725142711e-06  9.6745463847547944e-07  1.2324712770613785e-06  2.6681570231229298e-05  5.4237589598966102e-05  6.7626564402476150e-05  2.9543539328234397e-05  2.7018663370717364e-05  5.6718228607912150e-05  1.0882394988722326e-05  6.4764789873559034e-05  6.5669638333233417e-06  2.8445050940639866e-05  6.7224696567197361e-05  6.5916902116652820e-05  3.8302633764090429e-05  4.6888377748513443e-06  1.6859594034072783e-06  2.6539488790170873e-05  5.6318559632806993e-05  7.0314455379016333e-05  2.2132746531627461e-05  3.9411898354391283e-05  1.4538236025028551e-05  3.1401900683060991e-05  1.7946928528455639e-05  1.0359765351621482e-06  3.1233035726154203e-06  5.3077676996998917e-07  1.1755954480545728e-05  1.3155086075459169e-05  7.0479384427911392e-06  2.8427911975642669e-06  1.1324262586181760e-06  1.2409957909407203e-06  5.8883996566629740e-07  3.0182053122124522e-07  2.3138347580581831e-07  1.7143787176668974e-07  1.3041446922393084e-07  9.8390686075961130e-08  7.2244236895359423e-08  5.0620648107363041e-08  3.2574273872190741e-08  1.7450211473021230e-08  4.7620538212037688e-09  6.1999968508196350e-09  1.5300323425266962e-08  2.1769787668258313e-08  2.8314744887953023e-08  3.5034443320745735e-08  4.4448399660968674e-08  5.3189878637935760e-08  5.7019429474625281e-08  6.4229706769078089e-08  6.5554594623392191e-08  6.3132672460204225e-08  6.5577506305475406e-08  7.2645715881927594e-08  7.4723602373978334e-08  8.0401831431434819e-08  9.6342963747611836e-08  1.0469506919020995e-07  9.9727580423226739e-08  9.0499012153292660e-08  8.3036448790991077e-08  7.7972189007526142e-08  7.4223232392138611e-08  7.0811212219765371e-08  6.7178972942843663e-08  6.3093529145362918e-08  5.8549737646629608e-08  5.3785284867640537e-08  4.9361670854951041e-08  4.5735137704085648e-08  3.9132300279729698e-08  -2.1722790388550708e-24  7.6407132803448688e-38  3.3581007509960841e-06  2.1151893599165203e-06  2.8786112861518907e-06  1.3006130953958779e-08  6.5142427076692425e-07  4.1317749811536075e-06  1.7564821423990468e-06  8.5335808546551369e-06  1.1733581553279441e-05  9.7350729245377556e-06  1.2192822102570213e-05  1.4027663190160630e-05  2.1331256620487301e-05  1.2336729797982963e-05  2.2289096701085707e-06  1.3996171852794950e-05  8.6202955095735446e-06  1.3615752422117531e-05  1.0818978543288476e-06  2.7320744103483086e-06  2.3853308430007266e-05  1.9302721612949173e-05  3.4147831469908106e-05  3.8179840820190730e-05  4.1012121383151367e-05  4.2013365304265921e-05  4.5089256367766861e-05  3.4584372953226495e-05  1.6166963178119670e-05  2.3831068520967559e-05  3.8004732731052026e-05  5.7800046096265857e-06  6.8242463610967109e-05  5.0423563761776887e-05  4.2911360788892112e-05  1.1538939769492696e-05  5.6417883661113790e-05  8.0858381248303154e-05  5.5989115284059733e-05  1.5202647768025884e-05  1.5381756842986715e-06  1.0178499120030803e-05  4.7295228235248674e-05  7.2130374618399116e-05  5.0027505252134829e-05  8.0379499529803031e-06  8.4771281079837430e-05  6.8041826939289419e-05  2.5832511429476140e-05  1.6010738250398728e-06  6.5624356589917447e-06  1.7730156520244229e-05  2.2562548975285913e-05  9.0622915851286134e-06  1.1045222458552730e-05  1.7044589963574363e-06  3.6219701459956040e-06  8.1059232713523477e-07  1.0835838717507494e-06  3.8120940438082561e-07  2.7707188770767273e-07  2.0789187673512369e-07  1.5703390844824739e-07  1.1883334504358128e-07  8.8123673974847936e-08  6.2872274104621549e-08  4.1869342546043527e-08  2.4348193151127558e-08  9.5368667564645614e-09  2.8982181276361123e-09  1.3902543062076501e-08  2.2000020765867314e-08  2.8792728174820322e-08  3.6034935702703550e-08  4.4415640709412040e-08  5.5708458886444674e-08  6.1561127897157474e-08  6.7625502956615671e-08  7.3747201692528030e-08  7.1720579406520631e-08  7.1493835840364457e-08  7.8023585756969020e-08  8.3979798351407642e-08  8.6045437044110575e-08  9.9706946953712151e-08  1.1547285863176460e-07  1.1662324032006716e-07  1.0807785890970640e-07  9.9416815204576086e-08  9.3570689743426532e-08  8.9778463058358317e-08  8.6820279710268280e-08  8.3897566761529195e-08  8.0627845318842160e-08  7.6936506017825508e-08  7.3068952134348057e-08  6.9679832282789770e-08  6.7145961026387130e-08  5.9265281870363333e-08  -3.2898840246688680e-24  9.4039548065783001e-38  3.4273480687313444e-07  1.4338843938720453e-07  9.3066042573406157e-07  9.0373756290167421e-07  7.1557523843516534e-07  1.1172786013227484e-06  4.1824025554796748e-06  1.4526134843657819e-06  1.9320437335292554e-06  9.2318435355976363e-07  1.7711722914448313e-06  8.5968888457099880e-06  7.6408622151967579e-06  4.3684766890678069e-06  2.1203572586581319e-05  1.4587213044378609e-05  1.3064869190631812e-06  1.6619048513066294e-05  1.1567589144511860e-05  2.5193296009370380e-05  1.3748857308320288e-05  1.6803164315912881e-05  4.4361658672107883e-06  2.6308394070975318e-06  2.5287913920902094e-06  5.0135665082943454e-06  3.7238479399081868e-06  2.4377419115305518e-05  5.8271860735214336e-05  7.7917841461933761e-05  3.6593884152063608e-05  2.9890883085800879e-05  6.8809129913010686e-05  6.2909895776015986e-06  7.4155490738589004e-05  4.6759414099759380e-06  3.5609780258903092e-05  7.8568199453055211e-05  7.5517080767546380e-05  4.2028438393518805e-05  3.5646893545817910e-06  2.0078031113024098e-06  3.3259803778728818e-05  6.7271793257563247e-05  7.9037260703745886e-05  2.3185999278783393e-05  5.0857518226611395e-05  9.2954011322738680e-06  3.1949373599169473e-05  1.8944334761519713e-05  8.1567575533402449e-07  4.5111082398049107e-06  1.5129168327975781e-06  1.1788504503928269e-05  1.5156198216917649e-05  7.9066110321265925e-06  3.7265986537377908e-06  1.1817470140643748e-06  1.5066667243314661e-06  6.7197499894697069e-07  3.2500994377155424e-07  2.5431791879550135e-07  1.9115577738239464e-07  1.4492661951316576e-07  1.0847308225329616e-07  7.8693005598671565e-08  5.4085179195666892e-08  3.3549061192066019e-08  1.6303985840153882e-08  1.8039045272461427e-09  1.0812448987051107e-08  2.1248362002112281e-08  2.8795870607606052e-08  3.6562829399813887e-08  4.4650202726106452e-08  5.5994482772962100e-08  6.6123151131777463e-08  7.0948983380594284e-08  7.9668478636814242e-08  8.1319726703606276e-08  7.9154667839130255e-08  8.3034795751778996e-08  9.1977364984505085e-08  9.5002135648916539e-08  1.0303119800960046e-07  1.2254824799615063e-07  1.3250144791259122e-07  1.2726647973790531e-07  1.1779084224314056e-07  1.1079406182564537e-07  1.0668799182465689e-07  1.0411693580557671e-07  1.0197547103415144e-07  9.9675085218321473e-08  9.7046930970800349e-08  9.4349248047310343e-08  9.2362162685797693e-08  9.1393637989598304e-08  8.2413513355162337e-08  -3.6153607386009153e-24  -6.4754932456360539e-23  9.5538396236516696e-07  2.7786765830587549e-06  1.3577065878205229e-06  4.2458648065877806e-06  3.1155174873089223e-07  1.7647956536558092e-07  4.8731949303999455e-06  1.5445423973271834e-06  9.2436964785226662e-06  1.3416428694435602e-05  1.1907142797904850e-05  1.4564780142085215e-05  1.4874394461353787e-05  2.3580924685323880e-05  1.4819608554610587e-05  3.7663506129450419e-0