<?xml version="1.0"?>
<VTKFile type="UnstructuredGrid"  version="0.1"  >
<UnstructuredGrid>
<Piece  NumberOfPoints="10201" NumberOfCells="20000">
<Points>
<DataArray  type="Float64"  NumberOfComponents="3"  format="ascii">0 0 0  0.01 0 0  0.02 0 0  0.03 0 0  0.04 0 0  0.05 0 0  0.06 0 0  0.07000000000000001 0 0  0.08 0 0  0.09 0 0  0.1 0 0  0.11 0 0  0.12 0 0  0.13 0 0  0.14 0 0  0.15 0 0  0.16 0 0  0.17 0 0  0.18 0 0  0.19 0 0  0.2 0 0  0.21 0 0  0.22 0 0  0.23 0 0  0.24 0 0  0.25 0 0  0.26 0 0  0.27 0 0  0.28 0 0  0.29 0 0  0.3 0 0  0.31 0 0  0.32 0 0  0.33 0 0  0.34 0 0  0.35 0 0  0.36 0 0  0.37 0 0  0.38 0 0  0.39 0 0  0.4 0 0  0.41 0 0  0.42 0 0  0.43 0 0  0.44 0 0  0.45 0 0  0.46 0 0  0.47 0 0  0.48 0 0  0.49 0 0  0.5 0 0  0.51 0 0  0.52 0 0  0.53 0 0  0.54 0 0  0.55 0 0  0.5600000000000001 0 0  0.57 0 0  0.58 0 0  0.59 0 0  0.6 0 0  0.61 0 0  0.62 0 0  0.63 0 0  0.64 0 0  0.65 0 0  0.66 0 0  0.67 0 0  0.68 0 0  0.6899999999999999 0 0  0.7 0 0  0.71 0 0  0.72 0 0  0.73 0 0  0.74 0 0  0.75 0 0  0.76 0 0  0.77 0 0  0.78 0 0  0.79 0 0  0.8 0 0  0.8100000000000001 0 0  0.82 0 0  0.83 0 0  0.84 0 0  0.85 0 0  0.86 0 0  0.87 0 0  0.88 0 0  0.89 0 0  0.9 0 0  0.91 0 0  0.92 0 0  0.93 0 0  0.9399999999999999 0 0  0.95 0 0  0.96 0 0  0.97 0 0  0.98 0 0  0.99 0 0  1 0 0  0 0.01 0  0.01 0.01 0  0.02 0.01 0  0.03 0.01 0  0.04 0.01 0  0.05 0.01 0  0.06 0.01 0  0.07000000000000001 0.01 0  0.08 0.01 0  0.09 0.01 0  0.1 0.01 0  0.11 0.01 0  0.12 0.01 0  0.13 0.01 0  0.14 0.01 0  0.15 0.01 0  0.16 0.01 0  0.17 0.01 0  0.18 0.01 0  0.19 0.01 0  0.2 0.01 0  0.21 0.01 0  0.22 0.01 0  0.23 0.01 0  0.24 0.01 0  0.25 0.01 0  0.26 0.01 0  0.27 0.01 0  0.28 0.01 0  0.29 0.01 0  0.3 0.01 0  0.31 0.01 0  0.32 0.01 0  0.33 0.01 0  0.34 0.01 0  0.35 0.01 0  0.36 0.01 0  0.37 0.01 0  0.38 0.01 0  0.39 0.01 0  0.4 0.01 0  0.41 0.01 0  0.42 0.01 0  0.43 0.01 0  0.44 0.01 0  0.45 0.01 0  0.46 0.01 0  0.47 0.01 0  0.48 0.01 0  0.49 0.01 0  0.5 0.01 0  0.51 0.01 0  0.52 0.01 0  0.53 0.01 0  0.54 0.01 0  0.55 0.01 0  0.5600000000000001 0.01 0  0.57 0.01 0  0.58 0.01 0  0.59 0.01 0  0.6 0.01 0  0.61 0.01 0  0.62 0.01 0  0.63 0.01 0  0.64 0.01 0  0.65 0.01 0  0.66 0.01 0  0.67 0.01 0  0.68 0.01 0  0.6899999999999999 0.01 0  0.7 0.01 0  0.71 0.01 0  0.72 0.01 0  0.73 0.01 0  0.74 0.01 0  0.75 0.01 0  0.76 0.01 0  0.77 0.01 0  0.78 0.01 0  0.79 0.01 0  0.8 0.01 0  0.8100000000000001 0.01 0  0.82 0.01 0  0.83 0.01 0  0.84 0.01 0  0.85 0.01 0  0.86 0.01 0  0.87 0.01 0  0.88 0.01 0  0.89 0.01 0  0.9 0.01 0  0.91 0.01 0  0.92 0.01 0  0.93 0.01 0  0.9399999999999999 0.01 0  0.95 0.01 0  0.96 0.01 0  0.97 0.01 0  0.98 0.01 0  0.99 0.01 0  1 0.01 0  0 0.02 0  0.01 0.02 0  0.02 0.02 0  0.03 0.02 0  0.04 0.02 0  0.05 0.02 0  0.06 0.02 0  0.07000000000000001 0.02 0  0.08 0.02 0  0.09 0.02 0  0.1 0.02 0  0.11 0.02 0  0.12 0.02 0  0.13 0.02 0  0.14 0.02 0  0.15 0.02 0  0.16 0.02 0  0.17 0.02 0  0.18 0.02 0  0.19 0.02 0  0.2 0.02 0  0.21 0.02 0  0.22 0.02 0  0.23 0.02 0  0.24 0.02 0  0.25 0.02 0  0.26 0.02 0  0.27 0.02 0  0.28 0.02 0  0.29 0.02 0  0.3 0.02 0  0.31 0.02 0  0.32 0.02 0  0.33 0.02 0  0.34 0.02 0  0.35 0.02 0  0.36 0.02 0  0.37 0.02 0  0.38 0.02 0  0.39 0.02 0  0.4 0.02 0  0.41 0.02 0  0.42 0.02 0  0.43 0.02 0  0.44 0.02 0  0.45 0.02 0  0.46 0.02 0  0.47 0.02 0  0.48 0.02 0  0.49 0.02 0  0.5 0.02 0  0.51 0.02 0  0.52 0.02 0  0.53 0.02 0  0.54 0.02 0  0.55 0.02 0  0.5600000000000001 0.02 0  0.57 0.02 0  0.58 0.02 0  0.59 0.02 0  0.6 0.02 0  0.61 0.02 0  0.62 0.02 0  0.63 0.02 0  0.64 0.02 0  0.65 0.02 0  0.66 0.02 0  0.67 0.02 0  0.68 0.02 0  0.6899999999999999 0.02 0  0.7 0.02 0  0.71 0.02 0  0.72 0.02 0  0.73 0.02 0  0.74 0.02 0  0.75 0.02 0  0.76 0.02 0  0.77 0.02 0  0.78 0.02 0  0.79 0.02 0  0.8 0.02 0  0.8100000000000001 0.02 0  0.82 0.02 0  0.83 0.02 0  0.84 0.02 0  0.85 0.02 0  0.86 0.02 0  0.87 0.02 0  0.88 0.02 0  0.89 0.02 0  0.9 0.02 0  0.91 0.02 0  0.92 0.02 0  0.93 0.02 0  0.9399999999999999 0.02 0  0.95 0.02 0  0.96 0.02 0  0.97 0.02 0  0.98 0.02 0  0.99 0.02 0  1 0.02 0  0 0.03 0  0.01 0.03 0  0.02 0.03 0  0.03 0.03 0  0.04 0.03 0  0.05 0.03 0  0.06 0.03 0  0.07000000000000001 0.03 0  0.08 0.03 0  0.09 0.03 0  0.1 0.03 0  0.11 0.03 0  0.12 0.03 0  0.13 0.03 0  0.14 0.03 0  0.15 0.03 0  0.16 0.03 0  0.17 0.03 0  0.18 0.03 0  0.19 0.03 0  0.2 0.03 0  0.21 0.03 0  0.22 0.03 0  0.23 0.03 0  0.24 0.03 0  0.25 0.03 0  0.26 0.03 0  0.27 0.03 0  0.28 0.03 0  0.29 0.03 0  0.3 0.03 0  0.31 0.03 0  0.32 0.03 0  0.33 0.03 0  0.34 0.03 0  0.35 0.03 0  0.36 0.03 0  0.37 0.03 0  0.38 0.03 0  0.39 0.03 0  0.4 0.03 0  0.41 0.03 0  0.42 0.03 0  0.43 0.03 0  0.44 0.03 0  0.45 0.03 0  0.46 0.03 0  0.47 0.03 0  0.48 0.03 0  0.49 0.03 0  0.5 0.03 0  0.51 0.03 0  0.52 0.03 0  0.53 0.03 0  0.54 0.03 0  0.55 0.03 0  0.5600000000000001 0.03 0  0.57 0.03 0  0.58 0.03 0  0.59 0.03 0  0.6 0.03 0  0.61 0.03 0  0.62 0.03 0  0.63 0.03 0  0.64 0.03 0  0.65 0.03 0  0.66 0.03 0  0.67 0.03 0  0.68 0.03 0  0.6899999999999999 0.03 0  0.7 0.03 0  0.71 0.03 0  0.72 0.03 0  0.73 0.03 0  0.74 0.03 0  0.75 0.03 0  0.76 0.03 0  0.77 0.03 0  0.78 0.03 0  0.79 0.03 0  0.8 0.03 0  0.8100000000000001 0.03 0  0.82 0.03 0  0.83 0.03 0  0.84 0.03 0  0.85 0.03 0  0.86 0.03 0  0.87 0.03 0  0.88 0.03 0  0.89 0.03 0  0.9 0.03 0  0.91 0.03 0  0.92 0.03 0  0.93 0.03 0  0.9399999999999999 0.03 0  0.95 0.03 0  0.96 0.03 0  0.97 0.03 0  0.98 0.03 0  0.99 0.03 0  1 0.03 0  0 0.04 0  0.01 0.04 0  0.02 0.04 0  0.03 0.04 0  0.04 0.04 0  0.05 0.04 0  0.06 0.04 0  0.07000000000000001 0.04 0  0.08 0.04 0  0.09 0.04 0  0.1 0.04 0  0.11 0.04 0  0.12 0.04 0  0.13 0.04 0  0.14 0.04 0  0.15 0.04 0  0.16 0.04 0  0.17 0.04 0  0.18 0.04 0  0.19 0.04 0  0.2 0.04 0  0.21 0.04 0  0.22 0.04 0  0.23 0.04 0  0.24 0.04 0  0.25 0.04 0  0.26 0.04 0  0.27 0.04 0  0.28 0.04 0  0.29 0.04 0  0.3 0.04 0  0.31 0.04 0  0.32 0.04 0  0.33 0.04 0  0.34 0.04 0  0.35 0.04 0  0.36 0.04 0  0.37 0.04 0  0.38 0.04 0  0.39 0.04 0  0.4 0.04 0  0.41 0.04 0  0.42 0.04 0  0.43 0.04 0  0.44 0.04 0  0.45 0.04 0  0.46 0.04 0  0.47 0.04 0  0.48 0.04 0  0.49 0.04 0  0.5 0.04 0  0.51 0.04 0  0.52 0.04 0  0.53 0.04 0  0.54 0.04 0  0.55 0.04 0  0.5600000000000001 0.04 0  0.57 0.04 0  0.58 0.04 0  0.59 0.04 0  0.6 0.04 0  0.61 0.04 0  0.62 0.04 0  0.63 0.04 0  0.64 0.04 0  0.65 0.04 0  0.66 0.04 0  0.67 0.04 0  0.68 0.04 0  0.6899999999999999 0.04 0  0.7 0.04 0  0.71 0.04 0  0.72 0.04 0  0.73 0.04 0  0.74 0.04 0  0.75 0.04 0  0.76 0.04 0  0.77 0.04 0  0.78 0.04 0  0.79 0.04 0  0.8 0.04 0  0.8100000000000001 0.04 0  0.82 0.04 0  0.83 0.04 0  0.84 0.04 0  0.85 0.04 0  0.86 0.04 0  0.87 0.04 0  0.88 0.04 0  0.89 0.04 0  0.9 0.04 0  0.91 0.04 0  0.92 0.04 0  0.93 0.04 0  0.9399999999999999 0.04 0  0.95 0.04 0  0.96 0.04 0  0.97 0.04 0  0.98 0.04 0  0.99 0.04 0  1 0.04 0  0 0.05 0  0.01 0.05 0  0.02 0.05 0  0.03 0.05 0  0.04 0.05 0  0.05 0.05 0  0.06 0.05 0  0.07000000000000001 0.05 0  0.08 0.05 0  0.09 0.05 0  0.1 0.05 0  0.11 0.05 0  0.12 0.05 0  0.13 0.05 0  0.14 0.05 0  0.15 0.05 0  0.16 0.05 0  0.17 0.05 0  0.18 0.05 0  0.19 0.05 0  0.2 0.05 0  0.21 0.05 0  0.22 0.05 0  0.23 0.05 0  0.24 0.05 0  0.25 0.05 0  0.26 0.05 0  0.27 0.05 0  0.28 0.05 0  0.29 0.05 0  0.3 0.05 0  0.31 0.05 0  0.32 0.05 0  0.33 0.05 0  0.34 0.05 0  0.35 0.05 0  0.36 0.05 0  0.37 0.05 0  0.38 0.05 0  0.39 0.05 0  0.4 0.05 0  0.41 0.05 0  0.42 0.05 0  0.43 0.05 0  0.44 0.05 0  0.45 0.05 0  0.46 0.05 0  0.47 0.05 0  0.48 0.05 0  0.49 0.05 0  0.5 0.05 0  0.51 0.05 0  0.52 0.05 0  0.53 0.05 0  0.54 0.05 0  0.55 0.05 0  0.5600000000000001 0.05 0  0.57 0.05 0  0.58 0.05 0  0.59 0.05 0  0.6 0.05 0  0.61 0.05 0  0.62 0.05 0  0.63 0.05 0  0.64 0.05 0  0.65 0.05 0  0.66 0.05 0  0.67 0.05 0  0.68 0.05 0  0.6899999999999999 0.05 0  0.7 0.05 0  0.71 0.05 0  0.72 0.05 0  0.73 0.05 0  0.74 0.05 0  0.75 0.05 0  0.76 0.05 0  0.77 0.05 0  0.78 0.05 0  0.79 0.05 0  0.8 0.05 0  0.8100000000000001 0.05 0  0.82 0.05 0  0.83 0.05 0  0.84 0.05 0  0.85 0.05 0  0.86 0.05 0  0.87 0.05 0  0.88 0.05 0  0.89 0.05 0  0.9 0.05 0  0.91 0.05 0  0.92 0.05 0  0.93 0.05 0  0.9399999999999999 0.05 0  0.95 0.05 0  0.96 0.05 0  0.97 0.05 0  0.98 0.05 0  0.99 0.05 0  1 0.05 0  0 0.06 0  0.01 0.06 0  0.02 0.06 0  0.03 0.06 0  0.04 0.06 0  0.05 0.06 0  0.06 0.06 0  0.07000000000000001 0.06 0  0.08 0.06 0  0.09 0.06 0  0.1 0.06 0  0.11 0.06 0  0.12 0.06 0  0.13 0.06 0  0.14 0.06 0  0.15 0.06 0  0.16 0.06 0  0.17 0.06 0  0.18 0.06 0  0.19 0.06 0  0.2 0.06 0  0.21 0.06 0  0.22 0.06 0  0.23 0.06 0  0.24 0.06 0  0.25 0.06 0  0.26 0.06 0  0.27 0.06 0  0.28 0.06 0  0.29 0.06 0  0.3 0.06 0  0.31 0.06 0  0.32 0.06 0  0.33 0.06 0  0.34 0.06 0  0.35 0.06 0  0.36 0.06 0  0.37 0.06 0  0.38 0.06 0  0.39 0.06 0  0.4 0.06 0  0.41 0.06 0  0.42 0.06 0  0.43 0.06 0  0.44 0.06 0  0.45 0.06 0  0.46 0.06 0  0.47 0.06 0  0.48 0.06 0  0.49 0.06 0  0.5 0.06 0  0.51 0.06 0  0.52 0.06 0  0.53 0.06 0  0.54 0.06 0  0.55 0.06 0  0.5600000000000001 0.06 0  0.57 0.06 0  0.58 0.06 0  0.59 0.06 0  0.6 0.06 0  0.61 0.06 0  0.62 0.06 0  0.63 0.06 0  0.64 0.06 0  0.65 0.06 0  0.66 0.06 0  0.67 0.06 0  0.68 0.06 0  0.6899999999999999 0.06 0  0.7 0.06 0  0.71 0.06 0  0.72 0.06 0  0.73 0.06 0  0.74 0.06 0  0.75 0.06 0  0.76 0.06 0  0.77 0.06 0  0.78 0.06 0  0.79 0.06 0  0.8 0.06 0  0.8100000000000001 0.06 0  0.82 0.06 0  0.83 0.06 0  0.84 0.06 0  0.85 0.06 0  0.86 0.06 0  0.87 0.06 0  0.88 0.06 0  0.89 0.06 0  0.9 0.06 0  0.91 0.06 0  0.92 0.06 0  0.93 0.06 0  0.9399999999999999 0.06 0  0.95 0.06 0  0.96 0.06 0  0.97 0.06 0  0.98 0.06 0  0.99 0.06 0  1 0.06 0  0 0.07000000000000001 0  0.01 0.07000000000000001 0  0.02 0.07000000000000001 0  0.03 0.07000000000000001 0  0.04 0.07000000000000001 0  0.05 0.07000000000000001 0  0.06 0.07000000000000001 0  0.07000000000000001 0.07000000000000001 0  0.08 0.07000000000000001 0  0.09 0.07000000000000001 0  0.1 0.07000000000000001 0  0.11 0.07000000000000001 0  0.12 0.07000000000000001 0  0.13 0.07000000000000001 0  0.14 0.07000000000000001 0  0.15 0.07000000000000001 0  0.16 0.07000000000000001 0  0.17 0.0700
[...]
<PointData  Scalars="Indicator Function"> 
<DataArray  type="Float64"  Name="Indicator Function"  format="ascii">-4.1395516479513686e-19  1.1771728372242093e-18  3.0013167651793499e-17  1.1210635958889899e-18  7.6620974792545813e-17  -1.7166014497480446e-19  -2.7893958291966083e-19  3.5231137063572694e-17  1.5201633680736698e-16  -2.1212707825763929e-19  4.9745219008073361e-17  3.9914021416611005e-17  -1.5337415488016831e-19  -4.9876035112112135e-19  3.6114172203126582e-16  0.0000000000000000e+00  -9.0215032646399011e-19  3.6104474267028054e-16  -7.6408169204034443e-19  -1.0084322611806050e-18  8.1475383500004672e-16  -1.8439030140975822e-18  -8.7579845003682622e-19  4.2914124051804957e-17  -3.1367030967205813e-19  -8.1987577575674368e-19  -6.9792623185415408e-19  -1.0880909879059415e-18  1.0986882398473184e-15  -1.7255158590691456e-18  -3.0573979224140846e-18  -1.5286989612070427e-18  -1.5435790653369556e-18  -2.4983676801743850e-18  7.9403358834787120e-17  -1.0321676138296595e-18  -4.2776508793917241e-18  -6.9264824766338816e-18  -6.4625016402644934e-18  -7.3877829056380924e-18  5.8478254835964041e-16  -3.2073504493862397e-19  -2.1848270326338306e-18  -2.2209390695723597e-18  -1.6094843243321026e-18  -8.0474216216601991e-19  1.7279613512671302e-16  -8.7928683894667124e-19  -2.6312365813177894e-19  -5.5580883032714904e-19  -2.7790441516357471e-19  -5.1904883272905914e-19  -1.5820575751775351e-19  -6.6338267018234257e-19  -5.0770221178917537e-19  -1.4254203777616587e-20  2.8080781441916706e-18  -6.8094380521711687e-20  -3.5273785466998484e-20  -3.6608745166403991e-20  -3.4469497650473201e-21  -9.2956612721008855e-20  -3.9217630902480921e-20  -3.2216449947796236e-20  -4.2908069664235219e-20  -2.3450787921946480e-20  -3.0611661768059476e-20  4.1377401148944520e-35  2.5192615532208837e-17  -6.3646902048280830e-20  -2.0715756203758127e-20  -2.6069256424248563e-21  -1.1968069786183575e-22  -7.8811332898221788e-20  -2.0398254615428531e-19  -1.3582590395752988e-19  -3.3661852217050428e-20  -9.6112245525884523e-20  -1.1337630271964286e-19  -5.3838028714744128e-20  -3.1125393869329067e-20  3.2771543079019406e-17  -2.7949354648020566e-21  -1.0946443798993528e-19  -1.1254429461299581e-19  -5.6774661077378151e-20  -3.0092655381050560e-36  -1.8897589288802647e-20  -3.0563432819494323e-20  -9.6036019113076297e-21  -2.9480504222407785e-21  -3.4172957339165388e-21  -8.6409464051273281e-21  3.6679854740037223e-18  -5.2007001622195129e-21  -2.2880374841006249e-21  -9.8889592443295621e-23  -3.3295298145507125e-22  -1.1991178517424852e-21  -1.0579449157400588e-37  5.6423728839469800e-37  0.0000000000000000e+00  1.5841766685479697e-02  2.9981874152353032e-02  6.6988012189858987e-03  7.8921117815815567e-03  7.1875066210152800e-04  3.7639557404416843e-03  3.1429509365626385e-03  2.8672759266545982e-02  2.4069553536536111e-02  3.8213417223851602e-03  3.3649050764393389e-02  5.5258862941327128e-03  1.7969735451649555e-02  1.1335215892891342e-02  4.6643353962560523e-02  2.2479303031095483e-02  5.0120439808338281e-03  2.7528944188428099e-02  3.6332601245450381e-02  1.9958731622556635e-02  4.6467347562818652e-02  3.3216803708788822e-02  1.5776982292950204e-02  1.1301163918050146e-02  2.9539137905505337e-02  2.5145442541683698e-02  1.2970104367442479e-02  1.3116252486992185e-02  1.6509970312228745e-02  2.2829145163588360e-02  5.5077184576429593e-02  2.6224767446856069e-02  1.4694264690445607e-02  3.7659458668648546e-02  2.3740292312281811e-02  1.8593878724108587e-02  6.7762368263744266e-02  1.0536849626411458e-01  1.0722643730856080e-01  8.2192955770698309e-02  4.3826721695341402e-02  5.7778489154809883e-03  3.6469420382414318e-02  2.1774171273347461e-02  2.8993892013282847e-02  3.1758375046858550e-02  1.1390566125779234e-02  1.5839823520928040e-02  4.7400144348585657e-03  1.0012561764602320e-02  7.3007787876483068e-03  5.6999631248385715e-03  2.9287139054663047e-03  1.0486082832215820e-02  3.9029085512077158e-03  2.5678090728538524e-04  2.4533586139488428e-03  1.2708720566809687e-03  1.3189690487193477e-03  1.2418945341945544e-04  5.2318680459540552e-04  1.4129640633501334e-03  1.1704157809224731e-04  5.2183917887425782e-04  5.1204347676701899e-04  5.4558418797119568e-04  2.7865858014169926e-04  1.3306274934963343e-04  8.0039376406430254e-04  7.4636377535954479e-04  9.3924394814457363e-05  4.3119515703521885e-06  6.2510492888755728e-04  1.9783509064535947e-03  2.6854474221752996e-03  1.1040982507139188e-03  6.0639802040523617e-04  1.4282052823418425e-03  1.3283032575523910e-03  9.2901317050848484e-04  2.0686318235571376e-04  9.8669695091295909e-05  9.8525725135830550e-04  1.4793073828880201e-03  1.2877640816830425e-03  7.3573741273503862e-04  4.3479800330757765e-04  4.8641004320671089e-04  3.0737683702479582e-04  4.7094887886206994e-05  5.3107355132292014e-05  9.5675178108637127e-05  1.8569004175755186e-04  1.4509977957651439e-04  1.1114530490929773e-04  5.6417920076423353e-05  1.9526040081436843e-05  5.9979476928518132e-06  2.0201373036215977e-05  5.6070073684622194e-22  -9.8910010959088983e-19  2.9462282681933542e-03  7.1865701771447743e-03  4.4815847373438108e-04  9.3281038200008076e-03  2.9068673423254778e-02  5.2003357769932193e-03  2.4530653017482910e-02  2.3237443918784739e-04  1.2994365703904005e-02  3.7080421385049633e-02  2.7841014193829144e-02  1.6769456818129649e-02  5.4663066173745715e-02  5.5372199077364341e-02  3.7887915308671298e-02  4.5208815448648425e-03  6.6714874145485339e-02  1.7799971653014411e-02  1.3045033840218431e-02  1.5379168969582819e-02  3.5321287465393425e-02  3.3716908696039584e-02  3.8053849674717921e-02  2.1220866064070410e-02  2.7174864424497235e-04  2.7194236197660236e-02  3.5261644902054579e-02  5.5137844552027845e-02  2.1780123285605722e-02  5.3681649011238987e-02  5.4773266563868168e-02  2.7437104086157939e-02  4.1027479401230332e-02  4.0603018717224472e-02  4.1231338109249061e-02  8.6615186371683597e-03  6.2641559534861391e-02  1.1128076672336455e-01  1.2615923547407806e-01  1.4162506212793308e-01  7.6945387720344760e-02  7.5499848712090971e-03  1.4753057109396268e-02  4.6320910509752400e-02  1.6252106468951553e-02  3.8004698797720806e-03  8.1314899395398214e-03  1.8385032956364261e-02  1.0959058825445908e-02  1.6499748350399111e-02  4.9384740410646760e-03  6.4795917795236182e-03  5.9576523144328668e-03  1.5952879659519938e-02  6.7218030313262291e-03  8.8916205404417678e-05  1.7941576252130198e-03  1.6846475902819499e-03  1.5674189232186611e-03  2.3230015445847639e-03  1.3074824839854526e-03  2.2993141410122147e-03  5.1669777933939314e-04  8.5059767610095704e-04  5.9913776578172549e-04  6.5093919046873454e-04  6.6928268059494303e-04  6.7090723464185894e-05  6.3238818359243347e-04  1.3412130862441517e-03  1.4451298282851591e-04  1.9082051804496778e-04  9.1960889424412898e-05  1.8011181983309153e-03  3.2736764125883958e-03  2.4776990047427699e-03  2.8656842689794772e-04  1.4689779103304486e-03  1.7086880168472674e-03  1.2882288007997757e-03  8.0551011997045279e-04  2.5314044720149421e-04  5.8511080536802782e-04  1.9501691983977508e-03  1.6156531194302106e-03  1.2313044848337581e-03  5.3046700246081645e-04  6.4635586180668584e-04  5.1317044654478614e-04  1.6602513095340430e-04  9.9713157793771090e-05  5.3817314149920090e-05  2.1615785493997214e-04  2.2868708292866604e-04  1.6563823070553249e-04  1.1376409428387967e-04  5.7441153255260873e-05  1.8775191866396329e-05  1.2400858345728492e-05  -5.7431852370897235e-22  7.7037197775489434e-34  2.2007806775792768e-02  7.8188511475228220e-03  4.2200919014079019e-02  2.0341357734034164e-02  6.3430226805213669e-04  1.4439004789416397e-03  9.1007953118654868e-04  6.9937239641271586e-03  4.8702160098501188e-02  7.4972847262212192e-02  4.4893906081412707e-02  4.8539791508760331e-02  2.9761115642728118e-02  1.3272922107336526e-02  3.1931591011033635e-02  1.0449097106156988e-01  2.6752764277961543e-03  1.2648599010634599e-02  4.2983059214585832e-02  7.6379167377728555e-02  6.4865202013939582e-02  1.0941956523054154e-01  1.0619154413009725e-01  6.8977349168989038e-02  3.2556506462523657e-02  5.4612421908882568e-02  5.8590869988778965e-02  2.6844779207866241e-02  3.5001800188606803e-02  3.8236528178040789e-02  4.6671975158548380e-02  1.1958094525381077e-01  7.7754661610485845e-02  5.7102249552283329e-03  5.4810523422562242e-02  2.9766178783347370e-02  4.1670268496584707e-02  1.0416837574560049e-01  1.4648205611369311e-01  1.2861152593539318e-01  1.0466550084914476e-01  5.6702137922229105e-02  2.6915338955829635e-02  4.8190327389306599e-02  2.1005356642400011e-02  6.7074172646534161e-02  8.4499314967807909e-02  4.6201531675240583e-02  4.1858692544352830e-02  2.3749714816661490e-02  2.7289214703687642e-02  2.0950006352256533e-02  4.1396594479550372e-03  6.5494542681520176e-03  1.7934866852074495e-02  6.4006633520753958e-04  2.3426745804869266e-03  6.5101366876240720e-03  3.4098952331143373e-03  2.4678431667782834e-03  3.6811808169668367e-04  3.0299560030991194e-04  2.6077411549388220e-03  1.1574448885219837e-03  8.7129007626210984e-04  5.3167023320175113e-04  7.9260975892788831e-04  4.1312481904166859e-04  7.6302288007867503e-05  1.4140940877545144e-03  1.0746900759804096e-03  6.0115892357010653e-04  2.3685502068807740e-04  8.1422735810993000e-04  3.0167436346092685e-03  3.6155781229935628e-03  6.0625690354150269e-04  1.3899154667516430e-03  1.7447872455436824e-03  1.4336104789710526e-03  1.0515314430698537e-03  1.8732129395365342e-04  2.2529577914046705e-04  1.7752080497095717e-03  2.0894822127212088e-03  1.3761599368012456e-03  7.5896035628217839e-04  4.9802811700705506e-04  7.8774630775867334e-04  3.2630155310621434e-04  5.2540102439156382e-05  9.6268932639310162e-05  9.3049378839276135e-05  2.9334629562422090e-04  1.8745370606695647e-04  1.5689730466410639e-04  8.8570099808854853e-05  5.0769433750255014e-05  2.1687534315960615e-05  -3.0097499931159684e-21  -3.7063039635262869e-19  7.8774587132547664e-03  9.7133478729671228e-03  1.8158870491962496e-02  1.6613820995206073e-03  4.7187915173827529e-03  2.8698935583662474e-02  3.0132755729009919e-02  3.3776069514164675e-02  1.2610016695653231e-02  7.2119248320143131e-03  2.2026532393426463e-02  4.1991664743520007e-02  5.7044487901792548e-02  5.6133980568420755e-02  1.0635407979315657e-01  4.3709219028893950e-03  3.3064080561093293e-03  8.5007332066701149e-02  4.5380904539852877e-02  4.2493955040021507e-02  4.9778261500875214e-02  9.9741257072748276e-03  1.4180671163420528e-02  2.1478263354658161e-02  1.9170777058618964e-02  7.5893407031704377e-03  6.2095232990358469e-02  7.7097742992337195e-02  8.6535801088324246e-02  3.6064458420736599e-02  7.0459476366661639e-02  7.6752988071744868e-02  5.6836879353514065e-02  9.6779431010072983e-02  3.0836361942541034e-02  4.1948296955267569e-02  1.5721781526361191e-02  7.4340943586079317e-02  1.2665318641749615e-01  1.4476826880499924e-01  1.5555367391592331e-01  6.3781957005837900e-02  2.0353097412969260e-02  1.1194707609660582e-02  5.8962225468023648e-02  3.1181274028647340e-02  1.7025405497705714e-02  4.3712471366777826e-02  4.2644896420126788e-04  8.0459564917621466e-03  1.4917604202039258e-02  7.7244483610009915e-04  1.4074704163011464e-02  6.0109263749079525e-03  2.4100122205783382e-02  6.7290130934532155e-03  4.6507205439181827e-03  1.3492860194836550e-03  4.7443146491853196e-03  4.1760611386691899e-03  4.3450396937348415e-03  2.7656503339028768e-03  3.2072255389084914e-03  6.5588644648240145e-04  1.7821420847749559e-03  6.0962600898644608e-04  6.0902488122768458e-04  8.3293441880487253e-04  3.6929763824918501e-05  6.8497061089879338e-04  1.8803968396409957e-03  8.1760563118245349e-06  4.9323194768843154e-04  3.5124595883743060e-04  2.0486434442937955e-03  3.9209623924398281e-03  2.6293440837391242e-03  1.2591968366914774e-03  1.8872296793597592e-03  1.6197965293568094e-03  1.1174475743589384e-03  7.8255273900906905e-04  5.2742213481026044e-04  6.5760080506629568e-04  2.6068198954823795e-03  1.6595221683877533e-03  1.0958340347079030e-03  3.4051440093618533e-04  7.4430395731371406e-04  6.6704160264557835e-04  9.5201433939819609e-05  1.8945729230568532e-04  1.3387562742807022e-05  2.1509249377207418e-04  2.6638331787757352e-04  1.5790970058848848e-04  1.2257386613446589e-04  6.4767717608274546e-05  3.3088851231049263e-05  9.7165272423840603e-22  -1.3706685101252099e-18  4.1838616799918973e-02  3.7261265248263425e-02  4.4684093774354340e-03  4.7003327139537823e-02  4.3743929621441906e-02  5.0168905679273280e-03  1.7145097502342221e-02  8.0034941442399411e-03  2.6641868810108819e-02  4.6826128481458978e-02  8.6871487909098280e-02  8.2814820973236572e-02  2.2968779235451996e-02  3.4015251786518708e-02  2.2329569293392221e-02  6.9264426301770135e-03  1.2313478794155913e-01  3.2931138342864263e-02  3.5663631121944990e-02  2.6130531902611543e-02  7.4998756312370518e-02  7.1973324050177742e-02  1.3006048260897041e-01  1.4356181694505099e-01  1.0864167494898584e-01  5.2455177288012279e-02  5.4081617570085540e-02  5.6862170292389477e-02  1.8601157431519820e-02  6.8040911807557808e-02  6.7102745143372153e-02  7.0139732913088365e-02  1.6733473049218678e-01  8.5236719155080548e-02  2.2678817479901962e-02  6.4593021683707577e-02  3.3669692703400846e-02  5.8162088391568022e-02  1.1957646714679944e-01  1.5420493937555890e-01  1.2939636510156113e-01  1.2123050808385066e-01  5.2256141392789356e-02  5.3850153975909650e-02  4.5896745270122163e-02  2.0860430820307495e-02  9.0412980737210560e-02  1.0164461538296907e-01  5.2308975165199965e-02  5.2086599147009666e-02  3.8024877955358499e-02  3.8603768935331760e-02  2.8413904567369141e-02  4.8439373528415897e-03  6.3976196506603808e-03  2.5425397437679093e-02  4.5671917001200235e-03  5.4286595483744029e-03  8.2843516434262954e-03  3.1020509897500353e-03  1.5048363056552562e-03  6.1326444482808580e-04  8.3093232705729590e-04  3.7431393672922547e-03  1.7218770058993499e-03  1.3502717142336931e-03  4.6141255331958288e-04  8.2164717371424059e-04  5.1926006436868336e-04  9.0459347700812053e-05  1.6606330059381594e-03  1.4372818952423174e-03  9.6203694215377458e-04  3.0215694003559622e-04  4.8491456015013556e-04  3.3843946033072750e-03  4.0703070689092893e-03  3.1362712473181442e-04  2.1746959100616787e-03  1.8855008366077568e-03  1.2706257950204770e-03  9.5888084210593171e-04  1.3845762248511595e-04  4.9058135782488997e-04  2.0446111631310555e-03  2.5138249741843426e-03  1.2280709685701518e-03  6.3804556877295360e-04  3.5290797904214175e-04  9.4969031984026972e-04  3.6344471156553353e-04  1.3888042055800232e-04  1.3674926978174534e-04  4.1169496630544996e-05  3.1161281765793128e-04  1.8979345464317909e-04  1.4633538585139610e-04  8.4151936386206625e-05  4.4359720875757843e-05  -2.4624591741105808e-21  -1.2024325310358976e-19  2.5104515190211528e-02  3.9472077493566795e-03  9.0039422761486101e-03  3.7166982487021542e-02  2.2972450640630110e-02  1.1595850217549874e-03  2.0065111354801220e-02  3.7395127959539060e-02  2.9668625626668249e-02  1.0310039537874875e-02  2.0054229085153065e-02  1.0109303788017389e-02  9.8601023944665453e-03  7.7741439332596710e-02  2.8844443366713778e-02  1.0997325938152011e-01  1.8019865064981867e-02  3.0188596958442931e-02  6.8138011918197669e-02  4.2601943855547914e-02  4.7737687958161544e-02  7.3098271447218935e-02  1.5192983715436117e-02  1.7159629989167140e-02  2.3216274635351784e-02  1.0202468646069921e-02  1.4695207781908009e-02  8.0000169356023706e-02  1.0518754712921823e-01  9.5906457055457639e-02  2.3213275290419912e-02  8.5634229715112808e-02  7.4432700888238459e-02  8.8163393354915381e-02  1.3569565932316868e-01  2.0320590656133022e-02  4.4521279913485687e-02  1.2522117382561853e-02  8.4975700447841987e-02  1.4312460952680742e-01  1.6022615299045206e-01  1.5393313019978080e-01  6.0086662975133480e-02  2.0143243091436829e-02  2.3093456281232445e-02  6.6087943913765407e-02  3.9731105322378654e-02  3.9307725067982850e-02  7.7584325830112114e-02  2.2220681449734814e-02  6.0964855889868892e-03  2.7885127321101489e-03  1.0233419851302536e-02  2.4292502030850080e-02  4.1313705824393594e-03  2.7412448348763004e-02  9.9281452561543852e-03  9.6643816147701355e-03  7.1976535347875015e-05  7.5843206690533399e-03  5.7556110369407455e-03  4.9814945753775099e-03  3.1171691069945958e-03  3.0278761710955597e-03  1.2691636667179500e-03  2.6063193568094350e-03  7.6541451571883955e-04  5.6317403042252783e-04  9.1324611338839008e-04  1.4608017898590501e-06  6.1690156927769909e-04  2.2623431832437292e-03  1.2329968267016446e-04  8.4225120591869390e-04  6.6938395455579211e-04  2.0039269056929625e-03  4.3916370503351929e-03  2.8207594629463700e-03  1.9220444384929097e-03  2.3937951785224635e-03  1.5442102422954383e-03  9.4401503532589648e-04  7.3573197439660669e-04  6.3091651302900494e-04  6.1869335304001261e-04  3.0208066369215450e-03  1.8434887676123681e-03  8.8975577204925287e-04  2.2071230079715677e-04  7.2022514951838520e-04  8.3669321842869289e-04  5.1941335764878936e-05  2.6887625089168279e-04  1.3666864732694918e-05  1.9013475038635676e-04  2.9567445293891831e-04  1.5471590605153394e-04  1.2069098656391255e-04  5.6138970943323263e-05  -3.1163389060020054e-21  -5.2330257064835175e-19  2.1661098794845879e-03  1.7160796100405263e-02  9.9379909980146317e-03  2.8765224858948300e-02  3.0910403651152062e-02  4.9409065027031726e-02  1.6609544985946030e-03  3.2598972160224018e-02  2.0050102590607043e-02  3.6304560732892607e-02  3.6553763523930118e-02  7.2631409507811828e-02  7.1160008112638992e-02  1.1202419186690795e-02  6.8499205752006733e-03  2.9260389529190710e-02  2.4816799136756426e-02  1.0630515893044640e-01  2.6605103402335926e-02  3.6952149673365374e-02  1.0366535122921856e-02  5.6635568508034716e-02  4.7426303342479895e-02  1.1097015977006264e-01  1.2692444888652990e-01  9.6932069586999944e-02  4.8091373514217807e-02  4.4191931560917559e-02  3.6828135757548890e-02  2.4372567524557393e-03  8.8284851224868274e-02  8.7253257936962744e-02  8.0019581440594692e-02  1.9072279701061176e-01  6.5984802307055765e-02  6.4495897588131512e-02  6.3505945224045221e-02  3.2367818958362292e-02  7.0692268740172787e-02  1.3277368333087874e-01  1.6151734083051911e-01  1.4068024160798179e-01  1.3100519111352674e-01  4.0329767643670501e-02  6.7966732047263667e-02  4.6609701356302539e-02  2.0119882295631112e-02  1.0096431952241409e-01  9.1907780196743269e-02  2.5711163138322200e-02  3.6296992074375548e-02  3.2503773847656875e-02  3.5672579145383569e-02  2.4497043096053949e-02  1.1152369185739178e-02  8.0041679808424988e-03  3.1097388270183129e-02  5.2423588130965345e-03  9.4737298418072300e-03  7.9902470928402535e-03  7.1357536130495257e-04  4.1889296354181955e-04  1.8351800174698223e-03  1.8095467297688840e-03  4.2473282394899286e-03  1.7326502522134475e-03  2.0429200142921514e-03  5.1737655611513826e-04  8.2984512881472533e-04  6.3030133395007646e-04  1.0393987727095143e-04  1.7419224977880403e-03  1.8099030196716038e-03  1.0463075888409109e-03  1.2084825874193923e-04  1.1231623869829167e-04  3.5778399203546802e-03  4.4884172577958114e-03  2.4662711536773047e-04  2.9785708925914186e-03  2.1804534921124764e-03  1.1110665267353946e-03  8.3400654727167523e-04  7.7308078086081708e-05  6.0759177247879978e-04  2.2006866507043358e-03  2.9476190407030176e-03  1.2446529450325244e-03  4.7809625230802025e-04  2.2993674594374761e-04  1.0218802037656966e-03  4.8175850757776339e-04  2.1345461438158987e-04  1.8758298986853303e-04  2.6675807342984551e-05  3.0851020773610974e-04  2.1666088722574085e-04  1.4697260820047044e-04  8.3792227968076586e-05  -1.1628507596849856e-20  -2.6172442507521770e-19  1.0557492302190252e-02  9.6233740982053610e-03  1.1215975682523714e-02  1.5007053159538500e-02  1.7939965355002165e-02  4.2209766810324775e-02  5.0557519080777586e-03  9.2118680135662018e-03  2.9967536322308641e-02  2.6560581000311348e-02  3.6308371649990587e-03  9.5324246820750001e-03  1.3162539925867852e-02  1.7250862337570901e-02  6.3356108657709659e-02  1.9363069632771231e-02