<?xml version="1.0"?>
<VTKFile type="UnstructuredGrid"  version="0.1"  >
<UnstructuredGrid>
<Piece  NumberOfPoints="10201" NumberOfCells="20000">
<Points>
<DataArray  type="Float64"  NumberOfComponents="3"  format="ascii">0 0 0  0.01 0 0  0.02 0 0  0.03 0 0  0.04 0 0  0.05 0 0  0.06 0 0  0.07000000000000001 0 0  0.08 0 0  0.09 0 0  0.1 0 0  0.11 0 0  0.12 0 0  0.13 0 0  0.14 0 0  0.15 0 0  0.16 0 0  0.17 0 0  0.18 0 0  0.19 0 0  0.2 0 0  0.21 0 0  0.22 0 0  0.23 0 0  0.24 0 0  0.25 0 0  0.26 0 0  0.27 0 0  0.28 0 0  0.29 0 0  0.3 0 0  0.31 0 0  0.32 0 0  0.33 0 0  0.34 0 0  0.35 0 0  0.36 0 0  0.37 0 0  0.38 0 0  0.39 0 0  0.4 0 0  0.41 0 0  0.42 0 0  0.43 0 0  0.44 0 0  0.45 0 0  0.46 0 0  0.47 0 0  0.48 0 0  0.49 0 0  0.5 0 0  0.51 0 0  0.52 0 0  0.53 0 0  0.54 0 0  0.55 0 0  0.5600000000000001 0 0  0.57 0 0  0.58 0 0  0.59 0 0  0.6 0 0  0.61 0 0  0.62 0 0  0.63 0 0  0.64 0 0  0.65 0 0  0.66 0 0  0.67 0 0  0.68 0 0  0.6899999999999999 0 0  0.7 0 0  0.71 0 0  0.72 0 0  0.73 0 0  0.74 0 0  0.75 0 0  0.76 0 0  0.77 0 0  0.78 0 0  0.79 0 0  0.8 0 0  0.8100000000000001 0 0  0.82 0 0  0.83 0 0  0.84 0 0  0.85 0 0  0.86 0 0  0.87 0 0  0.88 0 0  0.89 0 0  0.9 0 0  0.91 0 0  0.92 0 0  0.93 0 0  0.9399999999999999 0 0  0.95 0 0  0.96 0 0  0.97 0 0  0.98 0 0  0.99 0 0  1 0 0  0 0.01 0  0.01 0.01 0  0.02 0.01 0  0.03 0.01 0  0.04 0.01 0  0.05 0.01 0  0.06 0.01 0  0.07000000000000001 0.01 0  0.08 0.01 0  0.09 0.01 0  0.1 0.01 0  0.11 0.01 0  0.12 0.01 0  0.13 0.01 0  0.14 0.01 0  0.15 0.01 0  0.16 0.01 0  0.17 0.01 0  0.18 0.01 0  0.19 0.01 0  0.2 0.01 0  0.21 0.01 0  0.22 0.01 0  0.23 0.01 0  0.24 0.01 0  0.25 0.01 0  0.26 0.01 0  0.27 0.01 0  0.28 0.01 0  0.29 0.01 0  0.3 0.01 0  0.31 0.01 0  0.32 0.01 0  0.33 0.01 0  0.34 0.01 0  0.35 0.01 0  0.36 0.01 0  0.37 0.01 0  0.38 0.01 0  0.39 0.01 0  0.4 0.01 0  0.41 0.01 0  0.42 0.01 0  0.43 0.01 0  0.44 0.01 0  0.45 0.01 0  0.46 0.01 0  0.47 0.01 0  0.48 0.01 0  0.49 0.01 0  0.5 0.01 0  0.51 0.01 0  0.52 0.01 0  0.53 0.01 0  0.54 0.01 0  0.55 0.01 0  0.5600000000000001 0.01 0  0.57 0.01 0  0.58 0.01 0  0.59 0.01 0  0.6 0.01 0  0.61 0.01 0  0.62 0.01 0  0.63 0.01 0  0.64 0.01 0  0.65 0.01 0  0.66 0.01 0  0.67 0.01 0  0.68 0.01 0  0.6899999999999999 0.01 0  0.7 0.01 0  0.71 0.01 0  0.72 0.01 0  0.73 0.01 0  0.74 0.01 0  0.75 0.01 0  0.76 0.01 0  0.77 0.01 0  0.78 0.01 0  0.79 0.01 0  0.8 0.01 0  0.8100000000000001 0.01 0  0.82 0.01 0  0.83 0.01 0  0.84 0.01 0  0.85 0.01 0  0.86 0.01 0  0.87 0.01 0  0.88 0.01 0  0.89 0.01 0  0.9 0.01 0  0.91 0.01 0  0.92 0.01 0  0.93 0.01 0  0.9399999999999999 0.01 0  0.95 0.01 0  0.96 0.01 0  0.97 0.01 0  0.98 0.01 0  0.99 0.01 0  1 0.01 0  0 0.02 0  0.01 0.02 0  0.02 0.02 0  0.03 0.02 0  0.04 0.02 0  0.05 0.02 0  0.06 0.02 0  0.07000000000000001 0.02 0  0.08 0.02 0  0.09 0.02 0  0.1 0.02 0  0.11 0.02 0  0.12 0.02 0  0.13 0.02 0  0.14 0.02 0  0.15 0.02 0  0.16 0.02 0  0.17 0.02 0  0.18 0.02 0  0.19 0.02 0  0.2 0.02 0  0.21 0.02 0  0.22 0.02 0  0.23 0.02 0  0.24 0.02 0  0.25 0.02 0  0.26 0.02 0  0.27 0.02 0  0.28 0.02 0  0.29 0.02 0  0.3 0.02 0  0.31 0.02 0  0.32 0.02 0  0.33 0.02 0  0.34 0.02 0  0.35 0.02 0  0.36 0.02 0  0.37 0.02 0  0.38 0.02 0  0.39 0.02 0  0.4 0.02 0  0.41 0.02 0  0.42 0.02 0  0.43 0.02 0  0.44 0.02 0  0.45 0.02 0  0.46 0.02 0  0.47 0.02 0  0.48 0.02 0  0.49 0.02 0  0.5 0.02 0  0.51 0.02 0  0.52 0.02 0  0.53 0.02 0  0.54 0.02 0  0.55 0.02 0  0.5600000000000001 0.02 0  0.57 0.02 0  0.58 0.02 0  0.59 0.02 0  0.6 0.02 0  0.61 0.02 0  0.62 0.02 0  0.63 0.02 0  0.64 0.02 0  0.65 0.02 0  0.66 0.02 0  0.67 0.02 0  0.68 0.02 0  0.6899999999999999 0.02 0  0.7 0.02 0  0.71 0.02 0  0.72 0.02 0  0.73 0.02 0  0.74 0.02 0  0.75 0.02 0  0.76 0.02 0  0.77 0.02 0  0.78 0.02 0  0.79 0.02 0  0.8 0.02 0  0.8100000000000001 0.02 0  0.82 0.02 0  0.83 0.02 0  0.84 0.02 0  0.85 0.02 0  0.86 0.02 0  0.87 0.02 0  0.88 0.02 0  0.89 0.02 0  0.9 0.02 0  0.91 0.02 0  0.92 0.02 0  0.93 0.02 0  0.9399999999999999 0.02 0  0.95 0.02 0  0.96 0.02 0  0.97 0.02 0  0.98 0.02 0  0.99 0.02 0  1 0.02 0  0 0.03 0  0.01 0.03 0  0.02 0.03 0  0.03 0.03 0  0.04 0.03 0  0.05 0.03 0  0.06 0.03 0  0.07000000000000001 0.03 0  0.08 0.03 0  0.09 0.03 0  0.1 0.03 0  0.11 0.03 0  0.12 0.03 0  0.13 0.03 0  0.14 0.03 0  0.15 0.03 0  0.16 0.03 0  0.17 0.03 0  0.18 0.03 0  0.19 0.03 0  0.2 0.03 0  0.21 0.03 0  0.22 0.03 0  0.23 0.03 0  0.24 0.03 0  0.25 0.03 0  0.26 0.03 0  0.27 0.03 0  0.28 0.03 0  0.29 0.03 0  0.3 0.03 0  0.31 0.03 0  0.32 0.03 0  0.33 0.03 0  0.34 0.03 0  0.35 0.03 0  0.36 0.03 0  0.37 0.03 0  0.38 0.03 0  0.39 0.03 0  0.4 0.03 0  0.41 0.03 0  0.42 0.03 0  0.43 0.03 0  0.44 0.03 0  0.45 0.03 0  0.46 0.03 0  0.47 0.03 0  0.48 0.03 0  0.49 0.03 0  0.5 0.03 0  0.51 0.03 0  0.52 0.03 0  0.53 0.03 0  0.54 0.03 0  0.55 0.03 0  0.5600000000000001 0.03 0  0.57 0.03 0  0.58 0.03 0  0.59 0.03 0  0.6 0.03 0  0.61 0.03 0  0.62 0.03 0  0.63 0.03 0  0.64 0.03 0  0.65 0.03 0  0.66 0.03 0  0.67 0.03 0  0.68 0.03 0  0.6899999999999999 0.03 0  0.7 0.03 0  0.71 0.03 0  0.72 0.03 0  0.73 0.03 0  0.74 0.03 0  0.75 0.03 0  0.76 0.03 0  0.77 0.03 0  0.78 0.03 0  0.79 0.03 0  0.8 0.03 0  0.8100000000000001 0.03 0  0.82 0.03 0  0.83 0.03 0  0.84 0.03 0  0.85 0.03 0  0.86 0.03 0  0.87 0.03 0  0.88 0.03 0  0.89 0.03 0  0.9 0.03 0  0.91 0.03 0  0.92 0.03 0  0.93 0.03 0  0.9399999999999999 0.03 0  0.95 0.03 0  0.96 0.03 0  0.97 0.03 0  0.98 0.03 0  0.99 0.03 0  1 0.03 0  0 0.04 0  0.01 0.04 0  0.02 0.04 0  0.03 0.04 0  0.04 0.04 0  0.05 0.04 0  0.06 0.04 0  0.07000000000000001 0.04 0  0.08 0.04 0  0.09 0.04 0  0.1 0.04 0  0.11 0.04 0  0.12 0.04 0  0.13 0.04 0  0.14 0.04 0  0.15 0.04 0  0.16 0.04 0  0.17 0.04 0  0.18 0.04 0  0.19 0.04 0  0.2 0.04 0  0.21 0.04 0  0.22 0.04 0  0.23 0.04 0  0.24 0.04 0  0.25 0.04 0  0.26 0.04 0  0.27 0.04 0  0.28 0.04 0  0.29 0.04 0  0.3 0.04 0  0.31 0.04 0  0.32 0.04 0  0.33 0.04 0  0.34 0.04 0  0.35 0.04 0  0.36 0.04 0  0.37 0.04 0  0.38 0.04 0  0.39 0.04 0  0.4 0.04 0  0.41 0.04 0  0.42 0.04 0  0.43 0.04 0  0.44 0.04 0  0.45 0.04 0  0.46 0.04 0  0.47 0.04 0  0.48 0.04 0  0.49 0.04 0  0.5 0.04 0  0.51 0.04 0  0.52 0.04 0  0.53 0.04 0  0.54 0.04 0  0.55 0.04 0  0.5600000000000001 0.04 0  0.57 0.04 0  0.58 0.04 0  0.59 0.04 0  0.6 0.04 0  0.61 0.04 0  0.62 0.04 0  0.63 0.04 0  0.64 0.04 0  0.65 0.04 0  0.66 0.04 0  0.67 0.04 0  0.68 0.04 0  0.6899999999999999 0.04 0  0.7 0.04 0  0.71 0.04 0  0.72 0.04 0  0.73 0.04 0  0.74 0.04 0  0.75 0.04 0  0.76 0.04 0  0.77 0.04 0  0.78 0.04 0  0.79 0.04 0  0.8 0.04 0  0.8100000000000001 0.04 0  0.82 0.04 0  0.83 0.04 0  0.84 0.04 0  0.85 0.04 0  0.86 0.04 0  0.87 0.04 0  0.88 0.04 0  0.89 0.04 0  0.9 0.04 0  0.91 0.04 0  0.92 0.04 0  0.93 0.04 0  0.9399999999999999 0.04 0  0.95 0.04 0  0.96 0.04 0  0.97 0.04 0  0.98 0.04 0  0.99 0.04 0  1 0.04 0  0 0.05 0  0.01 0.05 0  0.02 0.05 0  0.03 0.05 0  0.04 0.05 0  0.05 0.05 0  0.06 0.05 0  0.07000000000000001 0.05 0  0.08 0.05 0  0.09 0.05 0  0.1 0.05 0  0.11 0.05 0  0.12 0.05 0  0.13 0.05 0  0.14 0.05 0  0.15 0.05 0  0.16 0.05 0  0.17 0.05 0  0.18 0.05 0  0.19 0.05 0  0.2 0.05 0  0.21 0.05 0  0.22 0.05 0  0.23 0.05 0  0.24 0.05 0  0.25 0.05 0  0.26 0.05 0  0.27 0.05 0  0.28 0.05 0  0.29 0.05 0  0.3 0.05 0  0.31 0.05 0  0.32 0.05 0  0.33 0.05 0  0.34 0.05 0  0.35 0.05 0  0.36 0.05 0  0.37 0.05 0  0.38 0.05 0  0.39 0.05 0  0.4 0.05 0  0.41 0.05 0  0.42 0.05 0  0.43 0.05 0  0.44 0.05 0  0.45 0.05 0  0.46 0.05 0  0.47 0.05 0  0.48 0.05 0  0.49 0.05 0  0.5 0.05 0  0.51 0.05 0  0.52 0.05 0  0.53 0.05 0  0.54 0.05 0  0.55 0.05 0  0.5600000000000001 0.05 0  0.57 0.05 0  0.58 0.05 0  0.59 0.05 0  0.6 0.05 0  0.61 0.05 0  0.62 0.05 0  0.63 0.05 0  0.64 0.05 0  0.65 0.05 0  0.66 0.05 0  0.67 0.05 0  0.68 0.05 0  0.6899999999999999 0.05 0  0.7 0.05 0  0.71 0.05 0  0.72 0.05 0  0.73 0.05 0  0.74 0.05 0  0.75 0.05 0  0.76 0.05 0  0.77 0.05 0  0.78 0.05 0  0.79 0.05 0  0.8 0.05 0  0.8100000000000001 0.05 0  0.82 0.05 0  0.83 0.05 0  0.84 0.05 0  0.85 0.05 0  0.86 0.05 0  0.87 0.05 0  0.88 0.05 0  0.89 0.05 0  0.9 0.05 0  0.91 0.05 0  0.92 0.05 0  0.93 0.05 0  0.9399999999999999 0.05 0  0.95 0.05 0  0.96 0.05 0  0.97 0.05 0  0.98 0.05 0  0.99 0.05 0  1 0.05 0  0 0.06 0  0.01 0.06 0  0.02 0.06 0  0.03 0.06 0  0.04 0.06 0  0.05 0.06 0  0.06 0.06 0  0.07000000000000001 0.06 0  0.08 0.06 0  0.09 0.06 0  0.1 0.06 0  0.11 0.06 0  0.12 0.06 0  0.13 0.06 0  0.14 0.06 0  0.15 0.06 0  0.16 0.06 0  0.17 0.06 0  0.18 0.06 0  0.19 0.06 0  0.2 0.06 0  0.21 0.06 0  0.22 0.06 0  0.23 0.06 0  0.24 0.06 0  0.25 0.06 0  0.26 0.06 0  0.27 0.06 0  0.28 0.06 0  0.29 0.06 0  0.3 0.06 0  0.31 0.06 0  0.32 0.06 0  0.33 0.06 0  0.34 0.06 0  0.35 0.06 0  0.36 0.06 0  0.37 0.06 0  0.38 0.06 0  0.39 0.06 0  0.4 0.06 0  0.41 0.06 0  0.42 0.06 0  0.43 0.06 0  0.44 0.06 0  0.45 0.06 0  0.46 0.06 0  0.47 0.06 0  0.48 0.06 0  0.49 0.06 0  0.5 0.06 0  0.51 0.06 0  0.52 0.06 0  0.53 0.06 0  0.54 0.06 0  0.55 0.06 0  0.5600000000000001 0.06 0  0.57 0.06 0  0.58 0.06 0  0.59 0.06 0  0.6 0.06 0  0.61 0.06 0  0.62 0.06 0  0.63 0.06 0  0.64 0.06 0  0.65 0.06 0  0.66 0.06 0  0.67 0.06 0  0.68 0.06 0  0.6899999999999999 0.06 0  0.7 0.06 0  0.71 0.06 0  0.72 0.06 0  0.73 0.06 0  0.74 0.06 0  0.75 0.06 0  0.76 0.06 0  0.77 0.06 0  0.78 0.06 0  0.79 0.06 0  0.8 0.06 0  0.8100000000000001 0.06 0  0.82 0.06 0  0.83 0.06 0  0.84 0.06 0  0.85 0.06 0  0.86 0.06 0  0.87 0.06 0  0.88 0.06 0  0.89 0.06 0  0.9 0.06 0  0.91 0.06 0  0.92 0.06 0  0.93 0.06 0  0.9399999999999999 0.06 0  0.95 0.06 0  0.96 0.06 0  0.97 0.06 0  0.98 0.06 0  0.99 0.06 0  1 0.06 0  0 0.07000000000000001 0  0.01 0.07000000000000001 0  0.02 0.07000000000000001 0  0.03 0.07000000000000001 0  0.04 0.07000000000000001 0  0.05 0.07000000000000001 0  0.06 0.07000000000000001 0  0.07000000000000001 0.07000000000000001 0  0.08 0.07000000000000001 0  0.09 0.07000000000000001 0  0.1 0.07000000000000001 0  0.11 0.07000000000000001 0  0.12 0.07000000000000001 0  0.13 0.07000000000000001 0  0.14 0.07000000000000001 0  0.15 0.07000000000000001 0  0.16 0.07000000000000001 0  0.17 0.0700
[...]
<PointData  Scalars="u"> 
<DataArray  type="Float64"  Name="u"  format="ascii">0.0000000000000000e+00  0.0000000000000000e+00  0.0000000000000000e+00  0.0000000000000000e+00  0.0000000000000000e+00  0.0000000000000000e+00  0.0000000000000000e+00  0.0000000000000000e+00  0.0000000000000000e+00  0.0000000000000000e+00  0.0000000000000000e+00  0.0000000000000000e+00  0.0000000000000000e+00  0.0000000000000000e+00  0.0000000000000000e+00  0.0000000000000000e+00  0.0000000000000000e+00  0.0000000000000000e+00  0.0000000000000000e+00  0.0000000000000000e+00  0.0000000000000000e+00  0.0000000000000000e+00  0.0000000000000000e+00  0.0000000000000000e+00  0.0000000000000000e+00  0.0000000000000000e+00  0.0000000000000000e+00  0.0000000000000000e+00  0.0000000000000000e+00  0.0000000000000000e+00  0.0000000000000000e+00  0.0000000000000000e+00  0.0000000000000000e+00  0.0000000000000000e+00  0.0000000000000000e+00  0.0000000000000000e+00  0.0000000000000000e+00  0.0000000000000000e+00  0.0000000000000000e+00  0.0000000000000000e+00  0.0000000000000000e+00  0.0000000000000000e+00  0.0000000000000000e+00  0.0000000000000000e+00  0.0000000000000000e+00  0.0000000000000000e+00  0.0000000000000000e+00  0.0000000000000000e+00  0.0000000000000000e+00  0.0000000000000000e+00  0.0000000000000000e+00  0.0000000000000000e+00  0.0000000000000000e+00  0.0000000000000000e+00  0.0000000000000000e+00  0.0000000000000000e+00  0.0000000000000000e+00  0.0000000000000000e+00  0.0000000000000000e+00  0.0000000000000000e+00  0.0000000000000000e+00  0.0000000000000000e+00  0.0000000000000000e+00  0.0000000000000000e+00  0.0000000000000000e+00  0.0000000000000000e+00  0.0000000000000000e+00  0.0000000000000000e+00  0.0000000000000000e+00  0.0000000000000000e+00  0.0000000000000000e+00  0.0000000000000000e+00  0.0000000000000000e+00  0.0000000000000000e+00  0.0000000000000000e+00  0.0000000000000000e+00  0.0000000000000000e+00  0.0000000000000000e+00  0.0000000000000000e+00  0.0000000000000000e+00  0.0000000000000000e+00  0.0000000000000000e+00  0.0000000000000000e+00  0.0000000000000000e+00  0.0000000000000000e+00  0.0000000000000000e+00  0.0000000000000000e+00  0.0000000000000000e+00  0.0000000000000000e+00  0.0000000000000000e+00  0.0000000000000000e+00  0.0000000000000000e+00  0.0000000000000000e+00  0.0000000000000000e+00  0.0000000000000000e+00  0.0000000000000000e+00  0.0000000000000000e+00  0.0000000000000000e+00  0.0000000000000000e+00  0.0000000000000000e+00  0.0000000000000000e+00  0.0000000000000000e+00  -1.6905219787410886e-02  -6.6506607172266238e-02  -2.1499091899433432e-02  -1.9785938880109346e-02  1.8143991327377419e-02  -1.5965090869716890e-02  -1.5155909403066135e-02  3.7052170377274554e-02  -5.8181877190481103e-02  -3.4738306901607547e-03  7.1994594392381775e-02  -2.2529600015927274e-02  -8.8598331037835903e-02  4.4143133580393304e-02  -1.9275521365165055e-02  -4.7151137062910915e-03  9.7562625115186642e-03  -3.6800531221120848e-02  9.7199893016655478e-02  -6.1807564697324222e-02  5.2526365111856023e-02  -6.5412151261913978e-02  2.1120615243811390e-02  -1.1534536533529854e-02  6.0658095795160849e-02  -6.6162728195589354e-02  3.7423239889784694e-02  -1.8656697859373083e-02  -9.5423064905020318e-03  6.0690437175615342e-03  5.1411060649730445e-02  -7.2999072313190361e-02  1.4640230982850267e-02  7.8160809744584245e-04  7.9959518313653648e-04  1.8529083791951763e-02  1.4483315883657122e-02  4.3640572873455699e-02  5.2086745549928173e-03  -2.7745507992129735e-02  -1.8111261306784022e-02  -8.9568961514893807e-03  -2.1113511061982553e-02  1.0568876016128751e-02  3.7138725963931939e-02  -4.4050207737565301e-02  2.0498039921893890e-02  -6.3132992824610117e-03  9.6438780146837263e-03  -9.8722421025036356e-03  9.7670037280820510e-03  2.4103612172771964e-03  -8.7032473553415139e-03  -2.4249104640036781e-03  3.7317457472951085e-03  5.7095006366830112e-03  -5.4442044801708252e-03  3.6151059114322994e-03  -1.5315659745415106e-03  1.0603830376535819e-03  -8.2133281665715892e-04  -4.0425255524246167e-04  2.4819546843055849e-04  -1.0389246662207720e-04  3.4803706050273405e-04  4.2679580180809089e-04  -1.6206159614543195e-04  3.1254809906048454e-04  1.1839071997354774e-03  -5.7637246317907844e-04  -5.8650542254635053e-04  8.9730798690039525e-04  -1.5878660372097919e-03  -3.6244778052184623e-03  -3.6573327051400505e-04  3.1570228643947283e-03  1.9161706815923189e-03  3.1942233087312624e-04  -1.2459600929568172e-04  -1.3272454090371976e-04  -2.9466221359266537e-04  3.0983441992792868e-04  8.2638167000683620e-04  4.6854800972413952e-04  -1.0935494581348473e-04  -2.4031054638755221e-04  -1.9024967714070302e-04  7.3456534212349713e-05  -3.5986801807589918e-05  -1.0766386528771630e-04  -6.7749047562305038e-05  -2.8308487338994504e-05  -1.7770510464879148e-05  5.4309881149216083e-06  1.1733256271292259e-05  1.3194098739402577e-05  1.3469922703873296e-05  1.2931390506406090e-05  1.0652538974003866e-05  0.0000000000000000e+00  0.0000000000000000e+00  -1.2125325612820120e-02  -1.8866804335228277e-02  5.2653267222582581e-02  -3.3268555910678857e-02  -6.2885077551620233e-02  -1.2725004719772989e-02  5.0530015962258965e-02  -3.5751616222769227e-02  -8.2670797302187085e-02  1.3497200194474410e-01  -9.6040343564048891e-02  -2.8453416402463225e-02  1.1299342190735490e-01  -1.1032906015384762e-01  -9.9259014141781024e-02  7.7034875725969343e-02  -4.3134982478534867e-02  7.1091031848651995e-02  -2.0841118931965306e-02  -1.6599935829707171e-02  1.0458850553894238e-01  -1.1161690938312549e-01  3.1118019454499267e-03  5.8002167538395648e-02  -2.6483100891546780e-02  -2.9242290054319962e-02  4.1682746258494850e-02  5.1502074064495636e-03  1.3497715923076027e-03  -9.5985332391901379e-02  9.4567038375136470e-02  2.6981120284962912e-02  -6.1697988565116497e-02  -4.1847708736770101e-02  2.0406086518720692e-02  2.7101350161303765e-02  5.8162484701707380e-02  3.0599309991271903e-02  2.5395768058004082e-03  4.8866324266681797e-02  -4.6130024300936608e-02  -7.6641388260348012e-02  2.9676556860259447e-04  4.0019249904762258e-03  4.1016247782305663e-02  -3.2200690892359531e-02  2.1652253300579294e-02  -3.4686976347829829e-02  4.3663442675623505e-02  -2.7809300119022974e-02  1.6144059451346029e-02  -1.1088812065384713e-04  8.1629640163512675e-03  -2.5561614894209765e-02  8.7600948516916039e-03  9.0124710052778695e-03  -1.0513915827007829e-04  -3.7049786520787307e-03  4.2812445626615415e-03  -2.2891961177774578e-03  1.8658176404003880e-03  -2.3997383397965427e-03  5.7975154963378563e-04  -1.5077084418408756e-04  2.1309673449766155e-04  7.2768789271369580e-04  5.1596966174146709e-04  -5.0954168558748356e-04  1.8559577436734252e-03  1.0839762865359117e-03  -2.0806650426985502e-03  6.3194050265233056e-04  4.8777827002961528e-04  -5.4528393097561306e-03  -5.0635420668986948e-03  3.2849786335137085e-03  5.4200275456596130e-03  1.6688495613772223e-03  -1.4288422557754384e-04  -1.9753106519383140e-04  -3.8638658585672740e-04  -1.7588572584436733e-04  1.2007410791357090e-03  1.4259149122373674e-03  2.7182554427048031e-04  -3.0104961528777831e-04  -4.6537964540206749e-04  -4.1897647350130337e-05  1.2744080916750724e-04  -1.4411096795965536e-04  -1.6634122598895934e-04  -7.9302329673910926e-05  -4.7904419577354679e-05  -2.4923119430809455e-05  8.1107616987488374e-06  5.3972683943201152e-06  9.4604584183750264e-06  1.0978799439533336e-05  1.9082026393238684e-05  0.0000000000000000e+00  0.0000000000000000e+00  5.2017836188531945e-02  5.0521735724636918e-02  -1.3633897407711867e-01  5.7110886507028495e-02  1.4059552408767337e-02  3.3625681887810871e-02  -6.4939503600269552e-02  1.3403052551328145e-02  7.7660906456455889e-02  -2.1907248991314721e-01  1.2617985077250318e-01  1.2758923056068852e-01  -1.6086082959756301e-01  -1.0898224988056981e-01  1.3114103719211281e-01  -1.4071307543189823e-01  1.5652455882614547e-02  -5.6541583922263151e-03  -2.4164096340107084e-02  2.3283174396839765e-01  -2.1911892405595942e-01  2.0075027370442294e-01  -2.2795557250719442e-01  6.8414915180914387e-02  2.3121378818911978e-02  1.2700565001429873e-01  -2.1831467353879541e-01  1.3081614695730615e-01  -3.7514487019802568e-02  6.8906671405177108e-03  -4.7548329861290171e-02  1.3739399498692625e-01  -1.5863463589048316e-01  5.4876148800792099e-02  -3.1753268860064826e-02  -4.5556643984659270e-03  5.1417299834232398e-02  6.6346932356816671e-02  1.1216463225676539e-01  -2.7266239567507837e-02  -3.6437679496910451e-02  -3.0932164532321095e-02  -5.5858800745462428e-02  -4.9979008596376849e-02  4.2421293729582435e-02  1.0543861046511299e-01  -1.3876329890950753e-01  8.0884863258153236e-02  -4.2332121715272050e-02  4.7255270676529751e-02  -4.0529252958059300e-02  3.3866132009332056e-02  2.2513625478861972e-04  -1.4362375186972677e-02  -1.5717108602074623e-02  1.3400848705954631e-02  1.5557909160732795e-02  -1.3537531008073089e-02  7.4167044342857641e-03  -2.4671422256580412e-03  1.6724384928418195e-03  -1.1538747663327883e-03  -1.6582115535055263e-03  9.1762257601071481e-04  -3.8772982726409426e-04  8.1962299103541811e-04  1.1496307555818148e-03  -2.5861984851118327e-04  4.1326377175830383e-04  3.3549250370557867e-03  -1.0019443035936423e-03  -2.2112719820624061e-03  2.4377406598471451e-03  -3.2017310868108825e-03  -9.7799317091235988e-03  -2.1613578482668734e-03  8.4951476049917752e-03  5.6722848797989634e-03  6.1358122387442267e-04  -6.8054185264450622e-04  -4.6589273601613197e-04  -7.8572553926708338e-04  6.4803045171972810e-04  2.2401922862233296e-03  1.4333195466508328e-03  -2.4034336249208768e-04  -5.9428511194595777e-04  -5.2195833713341222e-04  2.2593839584219229e-04  1.6056445033661351e-05  -2.4441441360770341e-04  -1.6799837761969811e-04  -6.8867078832453291e-05  -5.4430849300694069e-05  -8.1162839968493933e-06  9.3292615737382214e-06  3.2816979228039564e-06  -4.0943235741651411e-07  -2.2637264843407910e-06  0.0000000000000000e+00  0.0000000000000000e+00  -6.3505492816574652e-02  -5.7307457343417224e-02  7.0152048950888127e-02  4.5348130181265815e-02  -5.0581042186745293e-02  -6.3967040824638360e-02  6.5050234271567878e-02  7.0023637038261394e-02  -5.7929615930989581e-02  -3.3650131634456876e-02  9.1421899470415360e-02  -1.4048139107563515e-01  1.0644077510555847e-01  1.1042680420775226e-01  -3.0489291905978000e-01  -4.4375409360531602e-02  1.0922523796678718e-01  -6.7200255384666480e-02  8.7219576082000608e-02  -8.8599753356471272e-02  1.2608204117878963e-01  5.8255455667153871e-02  -9.1949653588945565e-02  -7.8898262324586854e-02  8.6971505703708527e-02  -4.8050086721843896e-02  6.4556847984640009e-02  -3.2577721047735632e-02  3.7006364269100527e-02  -3.3442303119468067e-02  -1.2650742119841107e-01  1.5681497655370819e-01  8.9847679779153533e-02  -1.9959009409017558e-01  -2.6905274673907954e-02  4.7570671885956518e-02  3.8383478112528784e-02  8.7755305962789049e-02  5.0658929605648134e-02  6.7985781517536245e-02  6.7038569704154838e-02  -1.1576906734185236e-01  -1.1872281244774452e-01  5.0898454693336839e-03  -2.1412929280863909e-02  6.9750310770802820e-02  1.0931196163560133e-02  -3.0695700812735552e-02  -1.9601832058641057e-02  5.3827452708226711e-02  -2.6323029414829720e-02  8.9559427360307482e-03  1.2790165344475819e-02  1.2088955263002079e-02  -4.5525932450157847e-02  9.5062054245109856e-03  1.7896340622298845e-02  5.0459005236119748e-03  -1.0637520014792923e-02  9.1926678194721098e-03  -4.7845609624884997e-03  3.4714300158959137e-03  -4.2062941861373644e-03  5.0113185783766151e-04  2.8942617283601938e-05  1.5161885110679432e-04  1.3308986513166660e-03  1.1307909797964779e-03  -1.0224047915596121e-03  2.9006851566137624e-03  2.7429814293886438e-03  -3.6375272937237001e-03  1.9188480884722517e-04  1.7326615233509124e-03  -9.2447106201082804e-03  -1.0855170510782179e-02  4.5910891092206651e-03  1.1280836616329150e-02  4.2176942807020555e-03  -3.3123468127623391e-04  -7.8045937692098472e-04  -9.4916183305633302e-04  -6.6376628898758179e-04  1.9523703308861936e-03  2.8024847401938138e-03  7.6683026171610726e-04  -6.2903014245626601e-04  -9.1979564976418489e-04  -2.4449830700650112e-04  2.7660129315924711e-04  -1.9022822771876956e-04  -2.9670274723671687e-04  -1.4164872559831662e-04  -7.1045706190608738e-05  -4.2026262640273313e-05  1.3133449689176473e-05  8.5255244826920594e-06  5.9944269723563829e-06  -1.4694479987746753e-06  0.0000000000000000e+00  0.0000000000000000e+00  1.4371400710273835e-01  1.0265684127200311e-01  -1.8414825381067524e-02  -1.6651048236313554e-01  1.5183555396708834e-01  2.5242641876110201e-02  -1.1160975251610987e-02  -6.0079333583516241e-02  8.5618280644307973e-02  6.1895341712368671e-02  -2.5730537877015214e-01  2.6628592550307195e-01  3.9118316226401190e-02  -1.8853237559205166e-01  1.3896271715330000e-02  4.9410921501007656e-02  -2.5059203822138792e-01  7.6960843957248851e-02  -7.9417823996227165e-03  4.9721457577797799e-02  2.0939629619494307e-01  -2.5405888875246446e-01  2.9309650998267534e-01  -3.2276801481294520e-01  9.2746724440076464e-02  6.6618457293423375e-02  8.6616389138052724e-02  -2.5719238888987511e-01  1.9112896315931904e-01  -2.1109770666095647e-02  -1.0021876410943563e-02  -1.3776132874535651e-01  2.2325272880712999e-01  -1.3057997588480419e-01  1.0383129670091491e-02  -8.2968071388672834e-02  7.3589069403814569e-03  9.4817724485765989e-02  1.2580157450044149e-01  1.3204545754284405e-01  -3.5482556968652920e-02  7.7644229765285776e-03  -7.2761444676579301e-02  -1.3075488966812671e-01  -5.1746972529109980e-02  5.9774038360519352e-02  1.3993566919008901e-01  -1.7119556277912537e-01  1.0419421754688878e-01  -6.9243263389356810e-02  8.3686966542104183e-02  -6.2777496929365295e-02  4.8138000437169093e-02  1.4680423451341950e-03  -1.1543446800865779e-02  -3.5946221199412598e-02  2.1467843367191746e-02  2.3547519889682705e-02  -1.5158946139092393e-02  6.1489192505464040e-03  -5.3049136333554385e-04  5.8271127012983937e-04  -4.6220777872557742e-04  -3.3603012706023179e-03  1.3139241956395659e-03  -5.9241191910492784e-04  9.6881809383044925e-04  1.7774932101483137e-03  -3.2512002370638546e-05  1.0021248843100042e-04  5.0133424466986473e-03  -4.2682401596261672e-04  -4.0350046682933417e-03  3.0422929055218804e-03  -3.3577310775799174e-03  -1.4819644737646973e-02  -5.9808101418251424e-03  1.2000541562287395e-02  1.0467523662227611e-02  1.9766693277500098e-03  -9.3345610706106123e-04  -8.4245786118301413e-04  -1.3198967925002077e-03  5.0592321213763604e-04  3.2606767208238213e-03  2.5017459040649680e-03  -1.3611508006634767e-04  -9.7381254941129858e-04  -9.4515540792958815e-04  1.4572791780009757e-04  6.7032304614932689e-05  -3.6628370008573034e-04  -2.9185866540598843e-04  -1.2333182184491129e-04  -8.1472757333166565e-05  -1.6241626091773860e-05  2.1003101831049722e-05  1.1149268038828862e-05  3.5962819031947992e-06  0.0000000000000000e+00  0.0000000000000000e+00  -1.2955683112760827e-01  -5.9763377036420255e-02  3.3524925074059936e-02  1.4712535573880509e-01  -5.1712453883712900e-02  -3.7671686894865268e-02  -2.6779929463676199e-02  1.0293991141772037e-01  3.8185277426431651e-02  -2.7632963672905429e-02  -3.8306029235632148e-03  -3.1801215580802740e-02  -8.2937979276450809e-03  1.8583039110517788e-01  -1.6527393180703280e-02  -3.3287014534267323e-01  4.8717479535194466e-02  3.7860644891716609e-02  -6.4483691314365529e-02  5.5964603480632473e-02  -4.9484552472044002e-02  2.5282769271860345e-01  -5.0092307939349330e-02  -2.8027592370010986e-03  -2.1268757420729215e-01  1.2289191722745289e-01  6.1165886752102168e-03  1.2063760914722418e-01  -1.6088229478690599e-01  8.8617205575940106e-02  -4.3207798187708542e-02  -9.8971577440710695e-02  1.3157338142465549e-01  1.3446046894154556e-01  -2.8230722617319332e-01  1.4543039410481091e-02  3.6038388262093164e-02  2.9554044358507191e-02  1.0867854601366431e-01  1.0574791510354527e-01  1.3828590605492438e-01  3.4704331498525427e-02  -1.3669146301497137e-01  -1.3164795948234273e-01  -3.2754176322328479e-02  -5.0562285321708922e-02  1.0050569720716912e-01  6.3203340379759082e-02  -1.0535947021542350e-01  2.4906612143766497e-02  3.0682660277711184e-02  2.3017911255339162e-03  -1.3948225597387835e-02  3.3340032467280359e-02  9.5387279532253358e-03  -5.1370094250922614e-02  -1.5990490565622958e-03  2.8557014982218951e-02  1.0287471618159490e-02  -1.4937756283669952e-02  1.1203135611710191e-02  -5.1099766413683070e-03  3.6943588364021182e-03  -4.6787815119037728e-03  -3.2685086793869000e-04  3.7602927476449349e-04  -4.4867143049096835e-05  1.6415765591215946e-03  1.7066532575755568e-03  -1.2593712158667080e-03  3.2245494134859874e-03  4.3935549710403471e-03  -4.1554597343439487e-03  -1.0674196605106924e-03  2.6420995638237257e-03  -1.1324295857378529e-02  -1.6191724422421030e-02  3.5903430545466725e-03  1.6097993581213287e-02  7.6065590126489250e-03  -1.0030093244830391e-05  -1.1534801446713234e-03  -1.3179557118226659e-03  -1.0250189702506133e-03  2.3439896850496098e-03  3.9945433535531387e-03  1.4691577935738906e-03  -7.9851035503280849e-04  -1.3199012254922491e-03  -5.4653937789051030e-04  2.8219331411810346e-04  -2.2202758689288701e-04  -4.4607989728435342e-04  -2.4935925225311021e-04  -1.2548880968998253e-04  -7.5746404447133922e-05  3.3049697848892751e-06  1.5470597075374418e-05  1.1576093976564319e-05  0.0000000000000000e+00  0.0000000000000000e+00  6.1970892655154257e-02  4.7783133207651568e-02  -2.9857304585215728e-02  -1.2350842098110805e-01  -8.1935991601522484e-02  1.7973025753132621e-01  2.7630817091345377e-03  -6.2206088763054022e-02  -1.7379161586213571e-02  1.0585467477989918e-01  3.8663663243009801e-02  -1.9602479591446920e-01  2.2077626653905516e-01  -1.1399734660805030e-02  -6.7567168533033295e-02  3.3964197440934013e-02  -1.1298870497251950e-01  -2.1790275181703303e-01  1.0474949196638170e-01  1.2977844798711712e-02  6.9514214374517005e-02  1.3111891485604033e-01  -1.3014813946500664e-01  2.5982596588665680e-01  -2.8139513718528086e-01  2.9185400510994910e-02  7.9302363035155241e-02  5.1387547297990978e-02  -1.6598111720672604e-01  1.4903297217651160e-01  1.5534335837585700e-02  -6.9030775279460305e-02  -1.6292130870475346e-01  2.8274876129478543e-01  -6.1408541692318699e-02  -1.1247413607833791e-01  -8.6245122181327960e-02  2.8511137411915584e-02  1.2663137623178050e-01  1.5817786514750348e-01  1.3927767567415997e-01  1.8621075175057698e-02  2.8217207148409841e-02  -1.3209502544234425e-01  -1.7524866429241107e-01  -5.0548257954795922e-02  4.8633660593119778e-02  1.5689170877867861e-01  -1.3423196920950514e-01  5.4271912400159494e-02  -5.0203523111374701e-02  8.5918804541212007e-02  -5.6779095354938566e-02  3.9541898429715089e-02  1.5004891373252720e-02  -1.2516417493233789e-02  -4.9953024963984571e-02  2.1043949885768715e-02  3.2593209023317929e-02  -1.2763526757061990e-02  2.7983856280743113e-03  1.9018889682853315e-03  -3.6949823130743594e-04  1.3945522584210749e-04  -4.3896497456963118e-03  1.2562711090179247e-03  -4.3938797256816165e-04  9.7670416759389049e-04  2.2385001918373802e-03  4.3630257906020290e-04  -2.6096223774612221e-04  5.9398657995267945e-03  7.2895376868517580e-04  -5.2528745258457283e-03  2.5865632195085182e-03  -2.9117428413734060e-03  -1.8321760307850307e-02  -1.0591326450890639e-02  1.3368372056146311e-02  1.5458696087184254e-02  4.2362427183174909e-03  -1.0772520859060511e-03  -1.2864564325314372e-03  -1.7877615681668462e-03  3.2058212868988143e-04  4.0284893828467236e-03  3.6544845299322525e-03  2.8588124461498531e-04  -1.2664452498097418e-03  -1.3102307562911058e-03  -5.2095400803195004e-05  9.4372980145604514e-05  -4.4354917670526360e-04  -4.2758668844955055e-04  -2.0886685327601440e-04  -1.2983628816803174e-04  -4.9292518515568611e-05  7.5056883597958779e-06  7.5059138000074934e-06  0.0000000000000000e+00  0.0000000000000000e+00  -1.6555292767296503e-02  2.0182905889936410e-02  4.1074383710375292e-02  7.5943441204729109e-02  4.4346988188767790e-02  -1.4497499039692671e-01  -4.8093008772250034e-