<?xml version="1.0"?>
<VTKFile type="UnstructuredGrid"  version="0.1"  >
<UnstructuredGrid>
<Piece  NumberOfPoints="10201" NumberOfCells="20000">
<Points>
<DataArray  type="Float64"  NumberOfComponents="3"  format="ascii">0 0 0  0.01 0 0  0.02 0 0  0.03 0 0  0.04 0 0  0.05 0 0  0.06 0 0  0.07000000000000001 0 0  0.08 0 0  0.09 0 0  0.1 0 0  0.11 0 0  0.12 0 0  0.13 0 0  0.14 0 0  0.15 0 0  0.16 0 0  0.17 0 0  0.18 0 0  0.19 0 0  0.2 0 0  0.21 0 0  0.22 0 0  0.23 0 0  0.24 0 0  0.25 0 0  0.26 0 0  0.27 0 0  0.28 0 0  0.29 0 0  0.3 0 0  0.31 0 0  0.32 0 0  0.33 0 0  0.34 0 0  0.35 0 0  0.36 0 0  0.37 0 0  0.38 0 0  0.39 0 0  0.4 0 0  0.41 0 0  0.42 0 0  0.43 0 0  0.44 0 0  0.45 0 0  0.46 0 0  0.47 0 0  0.48 0 0  0.49 0 0  0.5 0 0  0.51 0 0  0.52 0 0  0.53 0 0  0.54 0 0  0.55 0 0  0.5600000000000001 0 0  0.57 0 0  0.58 0 0  0.59 0 0  0.6 0 0  0.61 0 0  0.62 0 0  0.63 0 0  0.64 0 0  0.65 0 0  0.66 0 0  0.67 0 0  0.68 0 0  0.6899999999999999 0 0  0.7 0 0  0.71 0 0  0.72 0 0  0.73 0 0  0.74 0 0  0.75 0 0  0.76 0 0  0.77 0 0  0.78 0 0  0.79 0 0  0.8 0 0  0.8100000000000001 0 0  0.82 0 0  0.83 0 0  0.84 0 0  0.85 0 0  0.86 0 0  0.87 0 0  0.88 0 0  0.89 0 0  0.9 0 0  0.91 0 0  0.92 0 0  0.93 0 0  0.9399999999999999 0 0  0.95 0 0  0.96 0 0  0.97 0 0  0.98 0 0  0.99 0 0  1 0 0  0 0.01 0  0.01 0.01 0  0.02 0.01 0  0.03 0.01 0  0.04 0.01 0  0.05 0.01 0  0.06 0.01 0  0.07000000000000001 0.01 0  0.08 0.01 0  0.09 0.01 0  0.1 0.01 0  0.11 0.01 0  0.12 0.01 0  0.13 0.01 0  0.14 0.01 0  0.15 0.01 0  0.16 0.01 0  0.17 0.01 0  0.18 0.01 0  0.19 0.01 0  0.2 0.01 0  0.21 0.01 0  0.22 0.01 0  0.23 0.01 0  0.24 0.01 0  0.25 0.01 0  0.26 0.01 0  0.27 0.01 0  0.28 0.01 0  0.29 0.01 0  0.3 0.01 0  0.31 0.01 0  0.32 0.01 0  0.33 0.01 0  0.34 0.01 0  0.35 0.01 0  0.36 0.01 0  0.37 0.01 0  0.38 0.01 0  0.39 0.01 0  0.4 0.01 0  0.41 0.01 0  0.42 0.01 0  0.43 0.01 0  0.44 0.01 0  0.45 0.01 0  0.46 0.01 0  0.47 0.01 0  0.48 0.01 0  0.49 0.01 0  0.5 0.01 0  0.51 0.01 0  0.52 0.01 0  0.53 0.01 0  0.54 0.01 0  0.55 0.01 0  0.5600000000000001 0.01 0  0.57 0.01 0  0.58 0.01 0  0.59 0.01 0  0.6 0.01 0  0.61 0.01 0  0.62 0.01 0  0.63 0.01 0  0.64 0.01 0  0.65 0.01 0  0.66 0.01 0  0.67 0.01 0  0.68 0.01 0  0.6899999999999999 0.01 0  0.7 0.01 0  0.71 0.01 0  0.72 0.01 0  0.73 0.01 0  0.74 0.01 0  0.75 0.01 0  0.76 0.01 0  0.77 0.01 0  0.78 0.01 0  0.79 0.01 0  0.8 0.01 0  0.8100000000000001 0.01 0  0.82 0.01 0  0.83 0.01 0  0.84 0.01 0  0.85 0.01 0  0.86 0.01 0  0.87 0.01 0  0.88 0.01 0  0.89 0.01 0  0.9 0.01 0  0.91 0.01 0  0.92 0.01 0  0.93 0.01 0  0.9399999999999999 0.01 0  0.95 0.01 0  0.96 0.01 0  0.97 0.01 0  0.98 0.01 0  0.99 0.01 0  1 0.01 0  0 0.02 0  0.01 0.02 0  0.02 0.02 0  0.03 0.02 0  0.04 0.02 0  0.05 0.02 0  0.06 0.02 0  0.07000000000000001 0.02 0  0.08 0.02 0  0.09 0.02 0  0.1 0.02 0  0.11 0.02 0  0.12 0.02 0  0.13 0.02 0  0.14 0.02 0  0.15 0.02 0  0.16 0.02 0  0.17 0.02 0  0.18 0.02 0  0.19 0.02 0  0.2 0.02 0  0.21 0.02 0  0.22 0.02 0  0.23 0.02 0  0.24 0.02 0  0.25 0.02 0  0.26 0.02 0  0.27 0.02 0  0.28 0.02 0  0.29 0.02 0  0.3 0.02 0  0.31 0.02 0  0.32 0.02 0  0.33 0.02 0  0.34 0.02 0  0.35 0.02 0  0.36 0.02 0  0.37 0.02 0  0.38 0.02 0  0.39 0.02 0  0.4 0.02 0  0.41 0.02 0  0.42 0.02 0  0.43 0.02 0  0.44 0.02 0  0.45 0.02 0  0.46 0.02 0  0.47 0.02 0  0.48 0.02 0  0.49 0.02 0  0.5 0.02 0  0.51 0.02 0  0.52 0.02 0  0.53 0.02 0  0.54 0.02 0  0.55 0.02 0  0.5600000000000001 0.02 0  0.57 0.02 0  0.58 0.02 0  0.59 0.02 0  0.6 0.02 0  0.61 0.02 0  0.62 0.02 0  0.63 0.02 0  0.64 0.02 0  0.65 0.02 0  0.66 0.02 0  0.67 0.02 0  0.68 0.02 0  0.6899999999999999 0.02 0  0.7 0.02 0  0.71 0.02 0  0.72 0.02 0  0.73 0.02 0  0.74 0.02 0  0.75 0.02 0  0.76 0.02 0  0.77 0.02 0  0.78 0.02 0  0.79 0.02 0  0.8 0.02 0  0.8100000000000001 0.02 0  0.82 0.02 0  0.83 0.02 0  0.84 0.02 0  0.85 0.02 0  0.86 0.02 0  0.87 0.02 0  0.88 0.02 0  0.89 0.02 0  0.9 0.02 0  0.91 0.02 0  0.92 0.02 0  0.93 0.02 0  0.9399999999999999 0.02 0  0.95 0.02 0  0.96 0.02 0  0.97 0.02 0  0.98 0.02 0  0.99 0.02 0  1 0.02 0  0 0.03 0  0.01 0.03 0  0.02 0.03 0  0.03 0.03 0  0.04 0.03 0  0.05 0.03 0  0.06 0.03 0  0.07000000000000001 0.03 0  0.08 0.03 0  0.09 0.03 0  0.1 0.03 0  0.11 0.03 0  0.12 0.03 0  0.13 0.03 0  0.14 0.03 0  0.15 0.03 0  0.16 0.03 0  0.17 0.03 0  0.18 0.03 0  0.19 0.03 0  0.2 0.03 0  0.21 0.03 0  0.22 0.03 0  0.23 0.03 0  0.24 0.03 0  0.25 0.03 0  0.26 0.03 0  0.27 0.03 0  0.28 0.03 0  0.29 0.03 0  0.3 0.03 0  0.31 0.03 0  0.32 0.03 0  0.33 0.03 0  0.34 0.03 0  0.35 0.03 0  0.36 0.03 0  0.37 0.03 0  0.38 0.03 0  0.39 0.03 0  0.4 0.03 0  0.41 0.03 0  0.42 0.03 0  0.43 0.03 0  0.44 0.03 0  0.45 0.03 0  0.46 0.03 0  0.47 0.03 0  0.48 0.03 0  0.49 0.03 0  0.5 0.03 0  0.51 0.03 0  0.52 0.03 0  0.53 0.03 0  0.54 0.03 0  0.55 0.03 0  0.5600000000000001 0.03 0  0.57 0.03 0  0.58 0.03 0  0.59 0.03 0  0.6 0.03 0  0.61 0.03 0  0.62 0.03 0  0.63 0.03 0  0.64 0.03 0  0.65 0.03 0  0.66 0.03 0  0.67 0.03 0  0.68 0.03 0  0.6899999999999999 0.03 0  0.7 0.03 0  0.71 0.03 0  0.72 0.03 0  0.73 0.03 0  0.74 0.03 0  0.75 0.03 0  0.76 0.03 0  0.77 0.03 0  0.78 0.03 0  0.79 0.03 0  0.8 0.03 0  0.8100000000000001 0.03 0  0.82 0.03 0  0.83 0.03 0  0.84 0.03 0  0.85 0.03 0  0.86 0.03 0  0.87 0.03 0  0.88 0.03 0  0.89 0.03 0  0.9 0.03 0  0.91 0.03 0  0.92 0.03 0  0.93 0.03 0  0.9399999999999999 0.03 0  0.95 0.03 0  0.96 0.03 0  0.97 0.03 0  0.98 0.03 0  0.99 0.03 0  1 0.03 0  0 0.04 0  0.01 0.04 0  0.02 0.04 0  0.03 0.04 0  0.04 0.04 0  0.05 0.04 0  0.06 0.04 0  0.07000000000000001 0.04 0  0.08 0.04 0  0.09 0.04 0  0.1 0.04 0  0.11 0.04 0  0.12 0.04 0  0.13 0.04 0  0.14 0.04 0  0.15 0.04 0  0.16 0.04 0  0.17 0.04 0  0.18 0.04 0  0.19 0.04 0  0.2 0.04 0  0.21 0.04 0  0.22 0.04 0  0.23 0.04 0  0.24 0.04 0  0.25 0.04 0  0.26 0.04 0  0.27 0.04 0  0.28 0.04 0  0.29 0.04 0  0.3 0.04 0  0.31 0.04 0  0.32 0.04 0  0.33 0.04 0  0.34 0.04 0  0.35 0.04 0  0.36 0.04 0  0.37 0.04 0  0.38 0.04 0  0.39 0.04 0  0.4 0.04 0  0.41 0.04 0  0.42 0.04 0  0.43 0.04 0  0.44 0.04 0  0.45 0.04 0  0.46 0.04 0  0.47 0.04 0  0.48 0.04 0  0.49 0.04 0  0.5 0.04 0  0.51 0.04 0  0.52 0.04 0  0.53 0.04 0  0.54 0.04 0  0.55 0.04 0  0.5600000000000001 0.04 0  0.57 0.04 0  0.58 0.04 0  0.59 0.04 0  0.6 0.04 0  0.61 0.04 0  0.62 0.04 0  0.63 0.04 0  0.64 0.04 0  0.65 0.04 0  0.66 0.04 0  0.67 0.04 0  0.68 0.04 0  0.6899999999999999 0.04 0  0.7 0.04 0  0.71 0.04 0  0.72 0.04 0  0.73 0.04 0  0.74 0.04 0  0.75 0.04 0  0.76 0.04 0  0.77 0.04 0  0.78 0.04 0  0.79 0.04 0  0.8 0.04 0  0.8100000000000001 0.04 0  0.82 0.04 0  0.83 0.04 0  0.84 0.04 0  0.85 0.04 0  0.86 0.04 0  0.87 0.04 0  0.88 0.04 0  0.89 0.04 0  0.9 0.04 0  0.91 0.04 0  0.92 0.04 0  0.93 0.04 0  0.9399999999999999 0.04 0  0.95 0.04 0  0.96 0.04 0  0.97 0.04 0  0.98 0.04 0  0.99 0.04 0  1 0.04 0  0 0.05 0  0.01 0.05 0  0.02 0.05 0  0.03 0.05 0  0.04 0.05 0  0.05 0.05 0  0.06 0.05 0  0.07000000000000001 0.05 0  0.08 0.05 0  0.09 0.05 0  0.1 0.05 0  0.11 0.05 0  0.12 0.05 0  0.13 0.05 0  0.14 0.05 0  0.15 0.05 0  0.16 0.05 0  0.17 0.05 0  0.18 0.05 0  0.19 0.05 0  0.2 0.05 0  0.21 0.05 0  0.22 0.05 0  0.23 0.05 0  0.24 0.05 0  0.25 0.05 0  0.26 0.05 0  0.27 0.05 0  0.28 0.05 0  0.29 0.05 0  0.3 0.05 0  0.31 0.05 0  0.32 0.05 0  0.33 0.05 0  0.34 0.05 0  0.35 0.05 0  0.36 0.05 0  0.37 0.05 0  0.38 0.05 0  0.39 0.05 0  0.4 0.05 0  0.41 0.05 0  0.42 0.05 0  0.43 0.05 0  0.44 0.05 0  0.45 0.05 0  0.46 0.05 0  0.47 0.05 0  0.48 0.05 0  0.49 0.05 0  0.5 0.05 0  0.51 0.05 0  0.52 0.05 0  0.53 0.05 0  0.54 0.05 0  0.55 0.05 0  0.5600000000000001 0.05 0  0.57 0.05 0  0.58 0.05 0  0.59 0.05 0  0.6 0.05 0  0.61 0.05 0  0.62 0.05 0  0.63 0.05 0  0.64 0.05 0  0.65 0.05 0  0.66 0.05 0  0.67 0.05 0  0.68 0.05 0  0.6899999999999999 0.05 0  0.7 0.05 0  0.71 0.05 0  0.72 0.05 0  0.73 0.05 0  0.74 0.05 0  0.75 0.05 0  0.76 0.05 0  0.77 0.05 0  0.78 0.05 0  0.79 0.05 0  0.8 0.05 0  0.8100000000000001 0.05 0  0.82 0.05 0  0.83 0.05 0  0.84 0.05 0  0.85 0.05 0  0.86 0.05 0  0.87 0.05 0  0.88 0.05 0  0.89 0.05 0  0.9 0.05 0  0.91 0.05 0  0.92 0.05 0  0.93 0.05 0  0.9399999999999999 0.05 0  0.95 0.05 0  0.96 0.05 0  0.97 0.05 0  0.98 0.05 0  0.99 0.05 0  1 0.05 0  0 0.06 0  0.01 0.06 0  0.02 0.06 0  0.03 0.06 0  0.04 0.06 0  0.05 0.06 0  0.06 0.06 0  0.07000000000000001 0.06 0  0.08 0.06 0  0.09 0.06 0  0.1 0.06 0  0.11 0.06 0  0.12 0.06 0  0.13 0.06 0  0.14 0.06 0  0.15 0.06 0  0.16 0.06 0  0.17 0.06 0  0.18 0.06 0  0.19 0.06 0  0.2 0.06 0  0.21 0.06 0  0.22 0.06 0  0.23 0.06 0  0.24 0.06 0  0.25 0.06 0  0.26 0.06 0  0.27 0.06 0  0.28 0.06 0  0.29 0.06 0  0.3 0.06 0  0.31 0.06 0  0.32 0.06 0  0.33 0.06 0  0.34 0.06 0  0.35 0.06 0  0.36 0.06 0  0.37 0.06 0  0.38 0.06 0  0.39 0.06 0  0.4 0.06 0  0.41 0.06 0  0.42 0.06 0  0.43 0.06 0  0.44 0.06 0  0.45 0.06 0  0.46 0.06 0  0.47 0.06 0  0.48 0.06 0  0.49 0.06 0  0.5 0.06 0  0.51 0.06 0  0.52 0.06 0  0.53 0.06 0  0.54 0.06 0  0.55 0.06 0  0.5600000000000001 0.06 0  0.57 0.06 0  0.58 0.06 0  0.59 0.06 0  0.6 0.06 0  0.61 0.06 0  0.62 0.06 0  0.63 0.06 0  0.64 0.06 0  0.65 0.06 0  0.66 0.06 0  0.67 0.06 0  0.68 0.06 0  0.6899999999999999 0.06 0  0.7 0.06 0  0.71 0.06 0  0.72 0.06 0  0.73 0.06 0  0.74 0.06 0  0.75 0.06 0  0.76 0.06 0  0.77 0.06 0  0.78 0.06 0  0.79 0.06 0  0.8 0.06 0  0.8100000000000001 0.06 0  0.82 0.06 0  0.83 0.06 0  0.84 0.06 0  0.85 0.06 0  0.86 0.06 0  0.87 0.06 0  0.88 0.06 0  0.89 0.06 0  0.9 0.06 0  0.91 0.06 0  0.92 0.06 0  0.93 0.06 0  0.9399999999999999 0.06 0  0.95 0.06 0  0.96 0.06 0  0.97 0.06 0  0.98 0.06 0  0.99 0.06 0  1 0.06 0  0 0.07000000000000001 0  0.01 0.07000000000000001 0  0.02 0.07000000000000001 0  0.03 0.07000000000000001 0  0.04 0.07000000000000001 0  0.05 0.07000000000000001 0  0.06 0.07000000000000001 0  0.07000000000000001 0.07000000000000001 0  0.08 0.07000000000000001 0  0.09 0.07000000000000001 0  0.1 0.07000000000000001 0  0.11 0.07000000000000001 0  0.12 0.07000000000000001 0  0.13 0.07000000000000001 0  0.14 0.07000000000000001 0  0.15 0.07000000000000001 0  0.16 0.07000000000000001 0  0.17 0.0700
[...]
<PointData  Scalars="u"> 
<DataArray  type="Float64"  Name="u"  format="ascii">0.0000000000000000e+00  0.0000000000000000e+00  0.0000000000000000e+00  0.0000000000000000e+00  0.0000000000000000e+00  0.0000000000000000e+00  0.0000000000000000e+00  0.0000000000000000e+00  0.0000000000000000e+00  0.0000000000000000e+00  0.0000000000000000e+00  0.0000000000000000e+00  0.0000000000000000e+00  0.0000000000000000e+00  0.0000000000000000e+00  0.0000000000000000e+00  0.0000000000000000e+00  0.0000000000000000e+00  0.0000000000000000e+00  0.0000000000000000e+00  0.0000000000000000e+00  0.0000000000000000e+00  0.0000000000000000e+00  0.0000000000000000e+00  0.0000000000000000e+00  0.0000000000000000e+00  0.0000000000000000e+00  0.0000000000000000e+00  0.0000000000000000e+00  0.0000000000000000e+00  0.0000000000000000e+00  0.0000000000000000e+00  0.0000000000000000e+00  0.0000000000000000e+00  0.0000000000000000e+00  0.0000000000000000e+00  0.0000000000000000e+00  0.0000000000000000e+00  0.0000000000000000e+00  0.0000000000000000e+00  0.0000000000000000e+00  0.0000000000000000e+00  0.0000000000000000e+00  0.0000000000000000e+00  0.0000000000000000e+00  0.0000000000000000e+00  0.0000000000000000e+00  0.0000000000000000e+00  0.0000000000000000e+00  0.0000000000000000e+00  0.0000000000000000e+00  0.0000000000000000e+00  0.0000000000000000e+00  0.0000000000000000e+00  0.0000000000000000e+00  0.0000000000000000e+00  0.0000000000000000e+00  0.0000000000000000e+00  0.0000000000000000e+00  0.0000000000000000e+00  0.0000000000000000e+00  0.0000000000000000e+00  0.0000000000000000e+00  0.0000000000000000e+00  0.0000000000000000e+00  0.0000000000000000e+00  0.0000000000000000e+00  0.0000000000000000e+00  0.0000000000000000e+00  0.0000000000000000e+00  0.0000000000000000e+00  0.0000000000000000e+00  0.0000000000000000e+00  0.0000000000000000e+00  0.0000000000000000e+00  0.0000000000000000e+00  0.0000000000000000e+00  0.0000000000000000e+00  0.0000000000000000e+00  0.0000000000000000e+00  0.0000000000000000e+00  0.0000000000000000e+00  0.0000000000000000e+00  0.0000000000000000e+00  0.0000000000000000e+00  0.0000000000000000e+00  0.0000000000000000e+00  0.0000000000000000e+00  0.0000000000000000e+00  0.0000000000000000e+00  0.0000000000000000e+00  0.0000000000000000e+00  0.0000000000000000e+00  0.0000000000000000e+00  0.0000000000000000e+00  0.0000000000000000e+00  0.0000000000000000e+00  0.0000000000000000e+00  0.0000000000000000e+00  0.0000000000000000e+00  0.0000000000000000e+00  0.0000000000000000e+00  -1.1146846289093229e-02  -1.8806294389284647e-02  -3.6620080967123387e-03  -7.7346874656529490e-03  3.1629706207966994e-03  -5.3750424085566328e-04  -8.9548025198302548e-03  9.9323590294547043e-03  -1.5249041173728124e-02  -1.1300240399898078e-03  1.6301958818942457e-02  -6.2260947868865695e-03  -2.1621752991760296e-02  1.9668302404342287e-02  -9.7070183184182132e-03  1.2398895659734477e-03  1.5804005885330968e-02  -1.3907535119836655e-02  2.2567651042940593e-02  -2.2248487921549751e-02  1.8452213961485654e-02  -1.9137625881414426e-02  1.1348111085485647e-02  -7.6786145369633360e-03  1.8075925657163244e-02  -2.2482774329398322e-02  1.8030651842133975e-02  -3.3320921260628590e-03  -8.0967822231424510e-03  6.2293357782472894e-03  2.1675520340352035e-02  -3.4313912237487823e-02  8.4523073194048438e-03  3.3504088440929752e-03  8.9987150024625380e-03  1.0373102346034387e-02  1.9543978737973349e-03  -5.5936113710747274e-03  -1.4857485786855225e-02  -2.3616653596338327e-02  -1.6964689619547044e-02  -7.2395371421261996e-03  -3.3273886165494848e-03  9.5880745966734088e-03  1.5689885913204561e-02  -2.4843528770888045e-02  1.5080147112503196e-02  -5.2538338354802079e-03  4.9878689638315149e-03  -4.4793701543759381e-03  5.9553589842096452e-03  -3.6345347092104610e-04  -4.3074987327858909e-03  -1.0365947981225618e-03  3.6277356816627635e-03  1.4092192483631514e-03  -1.4229495890889384e-03  1.1943957163646937e-03  -5.1021815748191087e-04  4.0285763617427532e-04  -9.9510146079551952e-05  -1.8124220507363396e-04  1.1137090174141408e-04  -3.5901850803778701e-05  2.4885251723555208e-05  1.0630404998992851e-04  1.5699659949251707e-05  -6.3379612615082134e-05  3.2177026279625901e-04  1.4024858670311510e-05  -3.2678520371920590e-04  1.7765729794051325e-04  -1.4371060327340713e-04  -4.9064211563402428e-04  -1.8018037014416036e-04  6.7471612112297407e-04  5.7835264522999798e-04  1.1171384756166196e-04  -8.5860377994004581e-05  -6.5193785752472498e-05  -1.7407612635014576e-04  4.4614760638387010e-05  2.5674698981727835e-04  1.5635562695671222e-04  -5.2938599807235794e-05  -9.9173976538619114e-05  -7.6498446571304633e-05  7.5038096662080584e-05  -1.8334115206370344e-05  -6.3103261909176051e-05  -2.8914820474955457e-05  -6.2265034548816279e-06  -9.6393026271956710e-06  -7.5315377795414861e-07  2.8997880096950746e-06  5.5428446322290333e-06  8.2706737753081079e-06  8.5463751977583221e-06  7.5488289933457293e-06  0.0000000000000000e+00  0.0000000000000000e+00  -7.5585031532736900e-04  -6.0602873997626754e-03  6.3210033687058622e-03  -7.1061323331536351e-03  -2.1836653160670738e-02  4.4797233511546962e-03  9.5364057225549251e-03  -1.1220403367922505e-02  -2.2584607398342352e-02  3.1403922584460134e-02  -2.6556986002403887e-02  -1.7705895758891161e-03  2.7344328588680834e-02  -3.6732332865912265e-02  -1.1282635332382784e-02  3.4627089509809930e-02  -2.6195366499366959e-02  2.7659037691163298e-02  -2.5988498316054797e-03  -1.7538578312776495e-03  1.9734352773764483e-02  -4.0920739092195839e-02  3.7514961848652745e-02  -1.9646453452373230e-02  2.8773317200852305e-03  1.0311499368287989e-02  -2.1333233683717090e-02  3.9054397324403994e-02  -2.8609987287213832e-02  -2.3395088835320186e-02  5.4422596021006985e-02  -7.3980458821522287e-03  -2.6434805400464122e-02  -1.6285411099661602e-04  5.8159086086766688e-03  2.5540877621922826e-02  1.9222667251491493e-02  5.4340397711646346e-03  -1.2841946292464579e-02  -4.6174112105074805e-03  -2.6146886469716749e-02  -4.1236593683540462e-02  6.4972451766855848e-04  -1.9739315597369208e-03  3.1761036241831034e-02  -1.4454138543943135e-02  1.0075553029719221e-03  -9.2720042474906429e-03  1.7088408930353689e-02  -1.2521709308536830e-02  8.0496137740479357e-03  2.3178513841726612e-03  -6.5862748979548304e-05  -1.0215630151424505e-02  4.4476134037266671e-03  5.0086391123964251e-03  -6.2720281088431715e-04  -7.5623465513408104e-04  1.4178922736748601e-03  -8.1551800139910815e-04  9.3362735805516497e-04  -6.7556578625175298e-04  1.4257170641010692e-04  -4.9057476960864153e-07  -9.9978075166567165e-06  6.8603998127003013e-05  2.5931355641457143e-04  -1.9004365876370823e-04  2.3616200636717303e-04  5.6779013320725099e-04  -4.9340567381364272e-04  -1.8848418096054103e-04  2.8752566753854718e-04  -6.6996961949948109e-04  -8.4417904895081792e-04  3.5250367802094451e-04  1.4328197682473645e-03  6.2029327386250251e-04  -7.2998544349813782e-05  -1.0474472245241087e-04  -2.0016607215483429e-04  -2.0296491130472854e-04  3.3609602771262232e-04  4.7388105696975156e-04  7.5194057895502762e-05  -1.1197936905117861e-04  -2.1830369050639413e-04  3.3765940669683056e-05  1.0229132421430730e-04  -9.3993214381120013e-05  -9.0623362032002348e-05  -2.3241129034890428e-05  -1.5528026133285027e-05  -1.6678872846799129e-05  -2.6705804317443058e-06  -2.3559311668503605e-06  3.4368902479479497e-06  7.2566866273187650e-06  1.0656392211248267e-05  0.0000000000000000e+00  0.0000000000000000e+00  1.5228010691504810e-02  8.3252664380573591e-03  -3.0230144612430135e-02  2.0539856558069332e-02  -8.9068469182841323e-04  9.6324082196894839e-04  -2.9602497487415317e-03  -7.1165662264726127e-03  2.5461874253682026e-02  -6.0441456253543926e-02  3.3411521842152195e-02  2.8759308212551432e-02  -3.6763425914985569e-02  -2.2606686011759743e-02  3.5811665309702680e-02  -5.2132801055084048e-02  2.9005265823428959e-02  1.4215386965695966e-02  -2.3995552833715995e-02  5.7940444131721260e-02  -6.2064876291340373e-02  6.8601729744025799e-02  -8.3124137604095177e-02  5.7881468639538247e-02  -2.8288868317438681e-02  4.1660950296047050e-02  -5.2546316250495918e-02  2.8646252402034417e-02  1.6213210207656599e-02  -3.2697867274170449e-02  -1.2263471278326037e-02  8.2613431090959588e-02  -8.1064228684862946e-02  1.2203149224786278e-02  -5.9590422339325603e-03  1.0741848090505440e-02  3.5250138721595929e-02  2.9005154203618804e-02  1.5846632715512250e-02  -1.4806051487018475e-02  -2.5560711146926745e-02  -2.5604985172149423e-02  -3.5570033829637790e-02  -1.3361944981884893e-02  1.6176395920542319e-02  5.5543879067440606e-02  -7.1009976601066560e-02  4.5258794875790154e-02  -2.5707533130093854e-02  2.4221724245979029e-02  -1.9947911952675083e-02  1.9482400813630490e-02  -1.2272337861919740e-03  -8.5335173910162723e-03  -8.1089289556005844e-03  1.0143261580930868e-02  4.5180858713415543e-03  -3.9020798859839079e-03  2.5349479049242784e-03  -8.0755078804625442e-04  6.2534132894777350e-04  1.3175884402292503e-04  -6.0453257280874148e-04  3.6540861866437950e-04  -1.5423919581152330e-04  5.0799159261196380e-05  2.4559794325096249e-04  1.6225331124359061e-04  -2.3990793397436842e-04  8.2918018633970582e-04  2.6363499620185783e-04  -9.6251627010358301e-04  3.9786655676509098e-04  -1.8548969933730229e-04  -1.3368942015723083e-03  -7.5283082038892532e-04  1.6521757846054510e-03  1.7304227890291774e-03  3.6388965209902544e-04  -2.9064095571222116e-04  -1.7135337651787608e-04  -4.4037108544281770e-04  6.6546720109968017e-05  7.1240697392274688e-04  5.0423421404856110e-04  -1.0732065037908798e-04  -2.2944726270234555e-04  -2.3146631748370065e-04  2.0661082558799893e-04  1.1584615230533395e-05  -1.5916313972084720e-04  -7.9751020660445688e-05  -1.2747560697408633e-05  -2.6147263430529505e-05  -1.2381476867350602e-05  -4.3840993524567797e-06  -3.7128917995368970e-06  4.2805884300703992e-07  3.2744725354728289e-07  0.0000000000000000e+00  0.0000000000000000e+00  -9.0320649953218469e-03  -9.5480990923374719e-03  1.4020285518603365e-02  2.9970323543387647e-03  -1.5786233039217074e-03  -2.3733082505052822e-02  2.5983532807127570e-02  1.9950130888563195e-02  -2.2503434648613176e-02  -7.0793060328257175e-03  1.7216134625270035e-02  -3.6054902236642677e-02  3.2133975272437089e-02  2.8617864761435210e-02  -8.3214119018677993e-02  1.2420240630900480e-02  2.5554840944445736e-02  -3.8705942723228276e-02  5.5078151664399055e-02  -2.5126282188602470e-02  3.0360607148084983e-02  -1.8123662542598572e-03  -2.5045261996477115e-02  1.8862070161265052e-02  -1.4315285490119213e-02  -5.0635235096201676e-03  4.0942724256860470e-02  -6.0086691018446763e-02  7.0032327255857618e-02  -4.0264800600168446e-02  -4.5526597512443465e-02  7.6073515272272213e-02  2.4450021846169821e-02  -8.1793993376131746e-02  2.5393386091571136e-03  4.5119706396392909e-03  3.8485419324345724e-02  4.1847422862483059e-02  2.9028239925427780e-02  7.0786213772393528e-03  5.3667358054110183e-03  -4.3643847805790031e-02  -6.5527651813173257e-02  -7.8459749748331833e-03  -1.5123348263605719e-02  5.0741566705050083e-02  7.8287556191592236e-03  -3.2975626883403795e-02  7.6641789710289975e-03  1.5051567709416496e-02  -9.6810832382509867e-03  3.9800400560846619e-03  1.1595766974590393e-02  -1.9133984800430624e-04  -1.9518030592495052e-02  3.0641414971043709e-03  1.1271442870572163e-02  6.3081608816373551e-04  -2.7502131961684804e-03  3.1826739344690074e-03  -1.7228184378731430e-03  1.6672094570565281e-03  -1.0479956228240488e-03  1.1926783727551709e-04  1.1495254639306538e-04  -1.1336133520737804e-04  1.1567749728396898e-04  4.6406530762316939e-04  -2.2288019993491520e-04  2.5872105592849529e-04  1.1647479821312976e-03  -6.5485243447924646e-04  -6.3656232678718826e-04  6.4199070577534317e-04  -1.0813251826444371e-03  -1.7618047551305198e-03  2.2780350645184303e-04  2.8113490128034578e-03  1.4960064947146449e-03  -2.6262408433293453e-05  -3.1189628028676112e-04  -3.8545739450755962e-04  -4.8721449969048964e-04  5.5385116690777065e-04  9.5162921651564911e-04  2.6942958624388998e-04  -2.1987503384066366e-04  -3.9624634889277107e-04  -2.7602842208375625e-05  2.3167044822702687e-04  -1.2713843449697380e-04  -1.7628734519865586e-04  -4.9992478625243753e-05  -1.9505912591592278e-05  -2.8596334537475611e-05  -6.9763960500371920e-06  -7.2429353043271189e-06  -1.8786755212774197e-06  1.1768499401411915e-06  0.0000000000000000e+00  0.0000000000000000e+00  2.9393323303168527e-02  2.5530463135970571e-02  -3.4123136443704352e-03  -3.6145337296772058e-02  3.9333592031653521e-02  3.4606997449328422e-03  -1.3134401405829905e-02  7.1769381549350439e-03  1.1005325654357349e-02  2.3692892021418298e-02  -7.5594196019084223e-02  6.4951236517007307e-02  1.1152678112334389e-02  -3.8467424762676963e-02  3.5299911168236832e-03  7.9403830687220477e-03  -7.0111811613220984e-02  5.4719449337232891e-02  -4.4401320086748129e-03  -5.8143753297172363e-03  6.0460622992009133e-02  -6.6452284713322152e-02  8.7617162791422593e-02  -1.1919491048965486e-01  9.0853704574094696e-02  -4.4683057095316676e-02  4.3261868211773351e-02  -5.0334719411995292e-02  1.7981522083926473e-02  4.8996310263589651e-02  -6.0607392820141846e-02  -3.6607917898019635e-02  1.3067482183685772e-01  -8.6011830593184319e-02  -1.3220682617945519e-02  -1.6710957127047676e-02  9.4095879414229557e-03  5.9788789414708651e-02  5.6479888399835677e-02  3.5465744810946782e-02  -7.5250208280673659e-03  -1.4060541842423464e-02  -3.8653104460615213e-02  -7.2218392103439277e-02  -2.0453089953352679e-02  1.4967189589021625e-02  8.4191943168938813e-02  -8.4856193270815380e-02  4.6772856020554240e-02  -3.3527178187317506e-02  3.8759753879338499e-02  -3.0007071399468892e-02  2.6948408872106939e-02  1.5700632787735086e-03  -9.5294947650151340e-03  -1.7337851041044079e-02  1.3651060808417947e-02  8.7721193945344347e-03  -4.5076683803617823e-03  2.3117861197226577e-03  4.1493955873929147e-05  2.5394094141263114e-04  6.6317715374232392e-04  -1.0296597005695681e-03  5.7064169716130979e-04  -2.0945564615951358e-04  5.3936388020672259e-06  3.2833595926290004e-04  3.4759505331613316e-04  -3.6366657512205400e-04  1.1026964978481193e-03  7.0457733139146382e-04  -1.4039387978719690e-03  2.8780318245405701e-04  1.3290570431156730e-06  -2.0015035528597614e-03  -1.5020795434475737e-03  2.0983004871129758e-03  3.0529561157663543e-03  9.1016927588244607e-04  -3.5322609025080265e-04  -3.0813250800458693e-04  -6.6103048054018409e-04  -8.4449723588479232e-05  1.0625887856881525e-03  8.8795851163809279e-04  -5.7296338134138305e-05  -3.5003552965242614e-04  -3.9599338034348184e-04  2.2962255048628694e-04  8.3884363787355246e-05  -2.2695846220992445e-04  -1.4536399686340768e-04  -2.8942944787493908e-05  -3.4806601684776836e-05  -2.0501757971260198e-05  -6.0587762453166375e-06  -6.9778122538743453e-06  -1.9106992233747824e-06  0.0000000000000000e+00  0.0000000000000000e+00  -2.1476769035934169e-02  -5.5459402643609967e-03  4.2299301242849831e-03  2.9257586099480200e-02  -1.6151091104044779e-02  5.0778339721623458e-03  -1.7535769383641028e-02  3.1217881791023298e-02  2.0029716409832289e-02  -1.9693159030498831e-02  3.6588464625133509e-03  -1.3605348589446387e-02  -7.2891161549970265e-03  5.0786588313717108e-02  7.5084672691808196e-03  -9.1000486716337869e-02  2.5448901398197377e-02  -9.0941403543254372e-04  -2.2908439785669008e-02  5.4290456862865044e-02  -2.7043558797852786e-02  5.4903429696231881e-02  -2.3963868715054668e-02  3.1249441366768085e-03  -2.4094734338831188e-02  1.4104870286918111e-02  -1.4016856350279211e-02  5.9470828466395585e-02  -8.5856307655934577e-02  7.9365036395752500e-02  -2.6467585641315579e-02  -6.5549884180327520e-02  7.2757401611824257e-02  6.2591179498285826e-02  -1.1952509298389277e-01  2.2123709485724927e-03  7.0930643389110516e-06  4.1050602306471853e-02  6.4240026499606293e-02  5.6919537852384683e-02  3.0103753177988302e-02  8.5602636564332101e-03  -4.9767485793859818e-02  -7.7319709673704967e-02  -3.1779862397175430e-02  -2.7079593335884788e-02  6.0132908521524017e-02  3.5447796854699766e-02  -6.5133352164516892e-02  2.7218999645448865e-02  2.3074881612931827e-03  3.3415562598362561e-03  -6.5956577804006794e-03  2.2705601126032916e-02  -8.2468288979379212e-04  -2.4282910771130074e-02  -2.3287194632049895e-03  1.7178288120619483e-02  2.8289303741325165e-03  -4.1784071091621033e-03  4.1060651907292292e-03  -1.7476593667370248e-03  1.9040643332938444e-03  -9.3126658938870845e-04  -2.6359616878243141e-06  3.5105133262473983e-04  -2.3018537616298517e-04  1.3696814931776045e-04  5.8673954700788915e-04  -1.2194675790493558e-04  1.9449313916652651e-04  1.6022872843065306e-03  -5.0798123820943722e-04  -1.1198529403106448e-03  7.8955548292490151e-04  -1.2179989464273908e-03  -2.5686647304248131e-03  -1.5499179110884298e-04  3.7801988109558153e-03  2.5679538858436818e-03  2.1000742247576884e-04  -4.5908764065204731e-04  -5.1413807515873593e-04  -7.0384586982423785e-04  6.3000195026428885e-04  1.3811273247111898e-03  5.2302792802541164e-04  -2.7564489957646488e-04  -5.2871859340525773e-04  -1.3106944536369692e-04  3.0183206556204503e-04  -1.1092375780616661e-04  -2.5151121800205418e-04  -9.2746172337211663e-05  -2.9970865305568771e-05  -3.8332816892158381e-05  -1.1710215176978308e-05  -7.1069704292878236e-06  -2.7312965727758037e-06  0.0000000000000000e+00  0.0000000000000000e+00  3.2994652683741637e-03  1.0313728956562431e-02  4.6385775516865676e-03  -2.4153237938784385e-02  -2.3680486927364540e-02  4.1621860582018617e-02  2.7817153658523906e-03  -2.6374654755493943e-02  1.8537289732666044e-02  2.1650206245958724e-02  1.5186682010758302e-02  -6.5061124371905046e-02  5.2715085053021318e-02  3.8822847449435809e-03  -1.3109427813910411e-02  7.5969997316223921e-03  -2.4855023576596094e-02  -6.0516651911401778e-02  4.6454135044484285e-02  -4.4015288299162477e-03  1.1842437867425882e-02  4.7403291690940971e-02  -4.0192814818054250e-02  7.0421178855215885e-02  -1.0497697094551606e-01  7.4018361813970007e-02  -3.6228323689159694e-02  3.3880990227307291e-02  -3.1382686793332941e-02  -1.2326240651560716e-03  7.1634939574750769e-02  -7.7021735543412892e-02  -5.3209627981251284e-02  1.5350713742849387e-01  -6.3779037680270073e-02  -5.8077903835956290e-02  -2.1368494770592092e-02  9.2204640932371067e-03  7.7425441762587102e-02  8.1347216209008991e-02  5.5749023304469347e-02  9.7653253584494750e-03  -4.9544093979053587e-03  -5.4347368968728660e-02  -9.7198506592626299e-02  -3.2519547877260926e-02  1.0913625468576830e-02  9.9407960970825646e-02  -7.1714035483852870e-02  1.8271655035792100e-02  -1.8483393646129616e-02  3.4583475680232283e-02  -2.6086815817220204e-02  2.3165149880131412e-02  9.8488397268739966e-03  -1.1168572260646541e-02  -2.4695485160902791e-02  1.2718150702369367e-02  1.4394644975407891e-02  -3.6496792739891927e-03  1.1819654360188604e-03  1.1544207999417090e-03  -7.1736716800814755e-05  1.0991348195047185e-03  -1.1620266919618416e-03  7.4015466255533354e-04  -5.5904896664149186e-05  -6.8878595837217537e-05  4.1371386296163993e-04  4.9593524932136572e-04  -3.3135691213367674e-04  1.1865892034769662e-03  1.1483969828945081e-03  -1.5229560344987708e-03  -6.1148220486487078e-05  2.1460344872849550e-04  -2.4267057054836103e-03  -2.2693978319873560e-03  2.1338550008907211e-03  4.2816147722438674e-03  1.6972084452567997e-03  -2.9588215928594991e-04  -4.8626588852317446e-04  -8.2242358924513887e-04  -2.5989504692793420e-04  1.3217717304206179e-03  1.3040589593849912e-03  9.3127895019717077e-05  -4.5557038041743418e-04  -5.1555481449772609e-04  1.8076864118957682e-04  1.5916688425862691e-04  -2.4596072908704967e-04  -2.0888274765232039e-04  -5.4218142639603804e-05  -4.0284577702654502e-05  -2.6405384678370662e-05  -7.1467162551146746e-06  -5.4066678088634725e-06  0.0000000000000000e+00  0.0000000000000000e+00  6.8185448250731731e-03  7.7185561348500995e-03  6.7017014159428652e-03  8.8607633622429186e-03  1.3579981919361415e-02  -3.1559629292146708e-02  9