<?xml version="1.0"?>
<VTKFile type="UnstructuredGrid"  version="0.1"  >
<UnstructuredGrid>
<Piece  NumberOfPoints="10201" NumberOfCells="20000">
<Points>
<DataArray  type="Float64"  NumberOfComponents="3"  format="ascii">0 0 0  0.01 0 0  0.02 0 0  0.03 0 0  0.04 0 0  0.05 0 0  0.06 0 0  0.07000000000000001 0 0  0.08 0 0  0.09 0 0  0.1 0 0  0.11 0 0  0.12 0 0  0.13 0 0  0.14 0 0  0.15 0 0  0.16 0 0  0.17 0 0  0.18 0 0  0.19 0 0  0.2 0 0  0.21 0 0  0.22 0 0  0.23 0 0  0.24 0 0  0.25 0 0  0.26 0 0  0.27 0 0  0.28 0 0  0.29 0 0  0.3 0 0  0.31 0 0  0.32 0 0  0.33 0 0  0.34 0 0  0.35 0 0  0.36 0 0  0.37 0 0  0.38 0 0  0.39 0 0  0.4 0 0  0.41 0 0  0.42 0 0  0.43 0 0  0.44 0 0  0.45 0 0  0.46 0 0  0.47 0 0  0.48 0 0  0.49 0 0  0.5 0 0  0.51 0 0  0.52 0 0  0.53 0 0  0.54 0 0  0.55 0 0  0.5600000000000001 0 0  0.57 0 0  0.58 0 0  0.59 0 0  0.6 0 0  0.61 0 0  0.62 0 0  0.63 0 0  0.64 0 0  0.65 0 0  0.66 0 0  0.67 0 0  0.68 0 0  0.6899999999999999 0 0  0.7 0 0  0.71 0 0  0.72 0 0  0.73 0 0  0.74 0 0  0.75 0 0  0.76 0 0  0.77 0 0  0.78 0 0  0.79 0 0  0.8 0 0  0.8100000000000001 0 0  0.82 0 0  0.83 0 0  0.84 0 0  0.85 0 0  0.86 0 0  0.87 0 0  0.88 0 0  0.89 0 0  0.9 0 0  0.91 0 0  0.92 0 0  0.93 0 0  0.9399999999999999 0 0  0.95 0 0  0.96 0 0  0.97 0 0  0.98 0 0  0.99 0 0  1 0 0  0 0.01 0  0.01 0.01 0  0.02 0.01 0  0.03 0.01 0  0.04 0.01 0  0.05 0.01 0  0.06 0.01 0  0.07000000000000001 0.01 0  0.08 0.01 0  0.09 0.01 0  0.1 0.01 0  0.11 0.01 0  0.12 0.01 0  0.13 0.01 0  0.14 0.01 0  0.15 0.01 0  0.16 0.01 0  0.17 0.01 0  0.18 0.01 0  0.19 0.01 0  0.2 0.01 0  0.21 0.01 0  0.22 0.01 0  0.23 0.01 0  0.24 0.01 0  0.25 0.01 0  0.26 0.01 0  0.27 0.01 0  0.28 0.01 0  0.29 0.01 0  0.3 0.01 0  0.31 0.01 0  0.32 0.01 0  0.33 0.01 0  0.34 0.01 0  0.35 0.01 0  0.36 0.01 0  0.37 0.01 0  0.38 0.01 0  0.39 0.01 0  0.4 0.01 0  0.41 0.01 0  0.42 0.01 0  0.43 0.01 0  0.44 0.01 0  0.45 0.01 0  0.46 0.01 0  0.47 0.01 0  0.48 0.01 0  0.49 0.01 0  0.5 0.01 0  0.51 0.01 0  0.52 0.01 0  0.53 0.01 0  0.54 0.01 0  0.55 0.01 0  0.5600000000000001 0.01 0  0.57 0.01 0  0.58 0.01 0  0.59 0.01 0  0.6 0.01 0  0.61 0.01 0  0.62 0.01 0  0.63 0.01 0  0.64 0.01 0  0.65 0.01 0  0.66 0.01 0  0.67 0.01 0  0.68 0.01 0  0.6899999999999999 0.01 0  0.7 0.01 0  0.71 0.01 0  0.72 0.01 0  0.73 0.01 0  0.74 0.01 0  0.75 0.01 0  0.76 0.01 0  0.77 0.01 0  0.78 0.01 0  0.79 0.01 0  0.8 0.01 0  0.8100000000000001 0.01 0  0.82 0.01 0  0.83 0.01 0  0.84 0.01 0  0.85 0.01 0  0.86 0.01 0  0.87 0.01 0  0.88 0.01 0  0.89 0.01 0  0.9 0.01 0  0.91 0.01 0  0.92 0.01 0  0.93 0.01 0  0.9399999999999999 0.01 0  0.95 0.01 0  0.96 0.01 0  0.97 0.01 0  0.98 0.01 0  0.99 0.01 0  1 0.01 0  0 0.02 0  0.01 0.02 0  0.02 0.02 0  0.03 0.02 0  0.04 0.02 0  0.05 0.02 0  0.06 0.02 0  0.07000000000000001 0.02 0  0.08 0.02 0  0.09 0.02 0  0.1 0.02 0  0.11 0.02 0  0.12 0.02 0  0.13 0.02 0  0.14 0.02 0  0.15 0.02 0  0.16 0.02 0  0.17 0.02 0  0.18 0.02 0  0.19 0.02 0  0.2 0.02 0  0.21 0.02 0  0.22 0.02 0  0.23 0.02 0  0.24 0.02 0  0.25 0.02 0  0.26 0.02 0  0.27 0.02 0  0.28 0.02 0  0.29 0.02 0  0.3 0.02 0  0.31 0.02 0  0.32 0.02 0  0.33 0.02 0  0.34 0.02 0  0.35 0.02 0  0.36 0.02 0  0.37 0.02 0  0.38 0.02 0  0.39 0.02 0  0.4 0.02 0  0.41 0.02 0  0.42 0.02 0  0.43 0.02 0  0.44 0.02 0  0.45 0.02 0  0.46 0.02 0  0.47 0.02 0  0.48 0.02 0  0.49 0.02 0  0.5 0.02 0  0.51 0.02 0  0.52 0.02 0  0.53 0.02 0  0.54 0.02 0  0.55 0.02 0  0.5600000000000001 0.02 0  0.57 0.02 0  0.58 0.02 0  0.59 0.02 0  0.6 0.02 0  0.61 0.02 0  0.62 0.02 0  0.63 0.02 0  0.64 0.02 0  0.65 0.02 0  0.66 0.02 0  0.67 0.02 0  0.68 0.02 0  0.6899999999999999 0.02 0  0.7 0.02 0  0.71 0.02 0  0.72 0.02 0  0.73 0.02 0  0.74 0.02 0  0.75 0.02 0  0.76 0.02 0  0.77 0.02 0  0.78 0.02 0  0.79 0.02 0  0.8 0.02 0  0.8100000000000001 0.02 0  0.82 0.02 0  0.83 0.02 0  0.84 0.02 0  0.85 0.02 0  0.86 0.02 0  0.87 0.02 0  0.88 0.02 0  0.89 0.02 0  0.9 0.02 0  0.91 0.02 0  0.92 0.02 0  0.93 0.02 0  0.9399999999999999 0.02 0  0.95 0.02 0  0.96 0.02 0  0.97 0.02 0  0.98 0.02 0  0.99 0.02 0  1 0.02 0  0 0.03 0  0.01 0.03 0  0.02 0.03 0  0.03 0.03 0  0.04 0.03 0  0.05 0.03 0  0.06 0.03 0  0.07000000000000001 0.03 0  0.08 0.03 0  0.09 0.03 0  0.1 0.03 0  0.11 0.03 0  0.12 0.03 0  0.13 0.03 0  0.14 0.03 0  0.15 0.03 0  0.16 0.03 0  0.17 0.03 0  0.18 0.03 0  0.19 0.03 0  0.2 0.03 0  0.21 0.03 0  0.22 0.03 0  0.23 0.03 0  0.24 0.03 0  0.25 0.03 0  0.26 0.03 0  0.27 0.03 0  0.28 0.03 0  0.29 0.03 0  0.3 0.03 0  0.31 0.03 0  0.32 0.03 0  0.33 0.03 0  0.34 0.03 0  0.35 0.03 0  0.36 0.03 0  0.37 0.03 0  0.38 0.03 0  0.39 0.03 0  0.4 0.03 0  0.41 0.03 0  0.42 0.03 0  0.43 0.03 0  0.44 0.03 0  0.45 0.03 0  0.46 0.03 0  0.47 0.03 0  0.48 0.03 0  0.49 0.03 0  0.5 0.03 0  0.51 0.03 0  0.52 0.03 0  0.53 0.03 0  0.54 0.03 0  0.55 0.03 0  0.5600000000000001 0.03 0  0.57 0.03 0  0.58 0.03 0  0.59 0.03 0  0.6 0.03 0  0.61 0.03 0  0.62 0.03 0  0.63 0.03 0  0.64 0.03 0  0.65 0.03 0  0.66 0.03 0  0.67 0.03 0  0.68 0.03 0  0.6899999999999999 0.03 0  0.7 0.03 0  0.71 0.03 0  0.72 0.03 0  0.73 0.03 0  0.74 0.03 0  0.75 0.03 0  0.76 0.03 0  0.77 0.03 0  0.78 0.03 0  0.79 0.03 0  0.8 0.03 0  0.8100000000000001 0.03 0  0.82 0.03 0  0.83 0.03 0  0.84 0.03 0  0.85 0.03 0  0.86 0.03 0  0.87 0.03 0  0.88 0.03 0  0.89 0.03 0  0.9 0.03 0  0.91 0.03 0  0.92 0.03 0  0.93 0.03 0  0.9399999999999999 0.03 0  0.95 0.03 0  0.96 0.03 0  0.97 0.03 0  0.98 0.03 0  0.99 0.03 0  1 0.03 0  0 0.04 0  0.01 0.04 0  0.02 0.04 0  0.03 0.04 0  0.04 0.04 0  0.05 0.04 0  0.06 0.04 0  0.07000000000000001 0.04 0  0.08 0.04 0  0.09 0.04 0  0.1 0.04 0  0.11 0.04 0  0.12 0.04 0  0.13 0.04 0  0.14 0.04 0  0.15 0.04 0  0.16 0.04 0  0.17 0.04 0  0.18 0.04 0  0.19 0.04 0  0.2 0.04 0  0.21 0.04 0  0.22 0.04 0  0.23 0.04 0  0.24 0.04 0  0.25 0.04 0  0.26 0.04 0  0.27 0.04 0  0.28 0.04 0  0.29 0.04 0  0.3 0.04 0  0.31 0.04 0  0.32 0.04 0  0.33 0.04 0  0.34 0.04 0  0.35 0.04 0  0.36 0.04 0  0.37 0.04 0  0.38 0.04 0  0.39 0.04 0  0.4 0.04 0  0.41 0.04 0  0.42 0.04 0  0.43 0.04 0  0.44 0.04 0  0.45 0.04 0  0.46 0.04 0  0.47 0.04 0  0.48 0.04 0  0.49 0.04 0  0.5 0.04 0  0.51 0.04 0  0.52 0.04 0  0.53 0.04 0  0.54 0.04 0  0.55 0.04 0  0.5600000000000001 0.04 0  0.57 0.04 0  0.58 0.04 0  0.59 0.04 0  0.6 0.04 0  0.61 0.04 0  0.62 0.04 0  0.63 0.04 0  0.64 0.04 0  0.65 0.04 0  0.66 0.04 0  0.67 0.04 0  0.68 0.04 0  0.6899999999999999 0.04 0  0.7 0.04 0  0.71 0.04 0  0.72 0.04 0  0.73 0.04 0  0.74 0.04 0  0.75 0.04 0  0.76 0.04 0  0.77 0.04 0  0.78 0.04 0  0.79 0.04 0  0.8 0.04 0  0.8100000000000001 0.04 0  0.82 0.04 0  0.83 0.04 0  0.84 0.04 0  0.85 0.04 0  0.86 0.04 0  0.87 0.04 0  0.88 0.04 0  0.89 0.04 0  0.9 0.04 0  0.91 0.04 0  0.92 0.04 0  0.93 0.04 0  0.9399999999999999 0.04 0  0.95 0.04 0  0.96 0.04 0  0.97 0.04 0  0.98 0.04 0  0.99 0.04 0  1 0.04 0  0 0.05 0  0.01 0.05 0  0.02 0.05 0  0.03 0.05 0  0.04 0.05 0  0.05 0.05 0  0.06 0.05 0  0.07000000000000001 0.05 0  0.08 0.05 0  0.09 0.05 0  0.1 0.05 0  0.11 0.05 0  0.12 0.05 0  0.13 0.05 0  0.14 0.05 0  0.15 0.05 0  0.16 0.05 0  0.17 0.05 0  0.18 0.05 0  0.19 0.05 0  0.2 0.05 0  0.21 0.05 0  0.22 0.05 0  0.23 0.05 0  0.24 0.05 0  0.25 0.05 0  0.26 0.05 0  0.27 0.05 0  0.28 0.05 0  0.29 0.05 0  0.3 0.05 0  0.31 0.05 0  0.32 0.05 0  0.33 0.05 0  0.34 0.05 0  0.35 0.05 0  0.36 0.05 0  0.37 0.05 0  0.38 0.05 0  0.39 0.05 0  0.4 0.05 0  0.41 0.05 0  0.42 0.05 0  0.43 0.05 0  0.44 0.05 0  0.45 0.05 0  0.46 0.05 0  0.47 0.05 0  0.48 0.05 0  0.49 0.05 0  0.5 0.05 0  0.51 0.05 0  0.52 0.05 0  0.53 0.05 0  0.54 0.05 0  0.55 0.05 0  0.5600000000000001 0.05 0  0.57 0.05 0  0.58 0.05 0  0.59 0.05 0  0.6 0.05 0  0.61 0.05 0  0.62 0.05 0  0.63 0.05 0  0.64 0.05 0  0.65 0.05 0  0.66 0.05 0  0.67 0.05 0  0.68 0.05 0  0.6899999999999999 0.05 0  0.7 0.05 0  0.71 0.05 0  0.72 0.05 0  0.73 0.05 0  0.74 0.05 0  0.75 0.05 0  0.76 0.05 0  0.77 0.05 0  0.78 0.05 0  0.79 0.05 0  0.8 0.05 0  0.8100000000000001 0.05 0  0.82 0.05 0  0.83 0.05 0  0.84 0.05 0  0.85 0.05 0  0.86 0.05 0  0.87 0.05 0  0.88 0.05 0  0.89 0.05 0  0.9 0.05 0  0.91 0.05 0  0.92 0.05 0  0.93 0.05 0  0.9399999999999999 0.05 0  0.95 0.05 0  0.96 0.05 0  0.97 0.05 0  0.98 0.05 0  0.99 0.05 0  1 0.05 0  0 0.06 0  0.01 0.06 0  0.02 0.06 0  0.03 0.06 0  0.04 0.06 0  0.05 0.06 0  0.06 0.06 0  0.07000000000000001 0.06 0  0.08 0.06 0  0.09 0.06 0  0.1 0.06 0  0.11 0.06 0  0.12 0.06 0  0.13 0.06 0  0.14 0.06 0  0.15 0.06 0  0.16 0.06 0  0.17 0.06 0  0.18 0.06 0  0.19 0.06 0  0.2 0.06 0  0.21 0.06 0  0.22 0.06 0  0.23 0.06 0  0.24 0.06 0  0.25 0.06 0  0.26 0.06 0  0.27 0.06 0  0.28 0.06 0  0.29 0.06 0  0.3 0.06 0  0.31 0.06 0  0.32 0.06 0  0.33 0.06 0  0.34 0.06 0  0.35 0.06 0  0.36 0.06 0  0.37 0.06 0  0.38 0.06 0  0.39 0.06 0  0.4 0.06 0  0.41 0.06 0  0.42 0.06 0  0.43 0.06 0  0.44 0.06 0  0.45 0.06 0  0.46 0.06 0  0.47 0.06 0  0.48 0.06 0  0.49 0.06 0  0.5 0.06 0  0.51 0.06 0  0.52 0.06 0  0.53 0.06 0  0.54 0.06 0  0.55 0.06 0  0.5600000000000001 0.06 0  0.57 0.06 0  0.58 0.06 0  0.59 0.06 0  0.6 0.06 0  0.61 0.06 0  0.62 0.06 0  0.63 0.06 0  0.64 0.06 0  0.65 0.06 0  0.66 0.06 0  0.67 0.06 0  0.68 0.06 0  0.6899999999999999 0.06 0  0.7 0.06 0  0.71 0.06 0  0.72 0.06 0  0.73 0.06 0  0.74 0.06 0  0.75 0.06 0  0.76 0.06 0  0.77 0.06 0  0.78 0.06 0  0.79 0.06 0  0.8 0.06 0  0.8100000000000001 0.06 0  0.82 0.06 0  0.83 0.06 0  0.84 0.06 0  0.85 0.06 0  0.86 0.06 0  0.87 0.06 0  0.88 0.06 0  0.89 0.06 0  0.9 0.06 0  0.91 0.06 0  0.92 0.06 0  0.93 0.06 0  0.9399999999999999 0.06 0  0.95 0.06 0  0.96 0.06 0  0.97 0.06 0  0.98 0.06 0  0.99 0.06 0  1 0.06 0  0 0.07000000000000001 0  0.01 0.07000000000000001 0  0.02 0.07000000000000001 0  0.03 0.07000000000000001 0  0.04 0.07000000000000001 0  0.05 0.07000000000000001 0  0.06 0.07000000000000001 0  0.07000000000000001 0.07000000000000001 0  0.08 0.07000000000000001 0  0.09 0.07000000000000001 0  0.1 0.07000000000000001 0  0.11 0.07000000000000001 0  0.12 0.07000000000000001 0  0.13 0.07000000000000001 0  0.14 0.07000000000000001 0  0.15 0.07000000000000001 0  0.16 0.07000000000000001 0  0.17 0.0700
[...]
<PointData  Scalars="Indicator Function"> 
<DataArray  type="Float64"  Name="Indicator Function"  format="ascii">-7.4309847677172186e-19  6.2739885976337575e-18  4.1759044038743299e-17  1.4387929433055166e-18  9.9710859131792941e-17  -1.9804589156955196e-19  -3.2389308124459783e-19  7.2508499198044564e-17  2.3963788440752047e-16  -1.1555579666323415e-33  7.9919958321694093e-17  7.6267053074163775e-17  -1.5756487035156763e-19  -1.6003854986749595e-18  2.8503757224795474e-16  -1.2725034768259845e-18  -3.7700669542610732e-18  3.4007416266163155e-16  -1.1163346378980137e-18  -1.3251815816818720e-18  9.4104035929078953e-16  -1.8060142594034406e-18  -8.3666837246768675e-19  1.7873049525198407e-16  -3.0740378509425760e-19  -1.0921351320074165e-18  -1.2011816383262399e-18  -4.8988187627133994e-19  -1.2447526162365971e-17  -1.7508016021289831e-18  -2.5092354331575064e-18  -1.2546177165787530e-18  -1.3233040810463827e-18  -2.4775503390011237e-18  4.7600339318871425e-17  -6.4798998014957893e-19  -3.4036777481611840e-18  -4.8292450198955158e-18  -3.9846547602258708e-18  -6.4607064968478217e-18  7.0455303038450138e-16  -6.0222963989501936e-19  -1.6720563557101126e-18  -2.3755893932327163e-18  -1.5071620674654512e-18  -7.5358103373270035e-19  1.4507781482516711e-16  -9.9859550375471763e-19  -2.4371894465038860e-19  -5.3509586001099688e-19  -2.6754793000549849e-19  -5.2828678625206451e-19  -1.7748679759235347e-19  -6.8824379211744401e-19  -5.7416696195778963e-19  1.1675950287847617e-33  1.6023737137301802e-31  -7.4817333516181058e-21  -6.0185310762101120e-36  -4.8950924013496114e-22  -2.4475462006748236e-22  -3.2872492072172725e-22  -1.1231446592667655e-21  -8.2395697332702447e-22  -5.9623139837509276e-21  -5.6001832353987927e-21  -4.1739745879825815e-20  -2.5885518085052998e-21  3.4812318873970324e-17  -1.0795338738766884e-19  -3.6213811891060176e-20  -9.4499279563633638e-22  -7.9166994385806153e-22  -6.0566999870242354e-20  -3.3080453848120173e-19  -2.6299112335288064e-19  -5.4204345056211854e-20  -1.5106990570547585e-19  -1.1559802454332504e-19  -6.0862237460319328e-20  -3.3310422606965518e-20  1.1579808073115337e-17  -2.5913302371837031e-20  -6.9024603239699192e-20  -6.2321967142848979e-20  -4.0818632729977379e-20  -2.1905567647292788e-20  -1.0744396390086690e-20  -4.9847002765394086e-21  -1.7393715473934159e-21  -2.8965064999781042e-22  -9.5791310578532507e-22  -1.2186274918021306e-21  1.8411789294471107e-21  -1.1705193112714830e-21  -9.7867161440285183e-22  -6.9045757659545702e-22  -5.2663480274555550e-22  -1.1331171545218035e-22  -1.1754943508222875e-38  1.4105932209867450e-37  1.9259299443872359e-34  1.3386472092354860e-02  4.4364592299068251e-02  1.3766495533857977e-02  1.0203934369433757e-02  5.9577766958767370e-03  3.5676776138995666e-03  5.8347390400042111e-03  3.1323076539661952e-02  3.8625807916699541e-02  1.2724330467974532e-03  5.1081392131865820e-02  5.6768727312160004e-03  3.9060119007829547e-02  9.2999226380119718e-03  7.5748441694746010e-02  6.4765794699890425e-02  3.5532591171542789e-02  4.0220194074066164e-02  4.7744698219685230e-02  1.8630678259630263e-02  5.2106566323855130e-02  3.2534260582700557e-02  5.8115318944007366e-03  1.1075388576022230e-02  3.9348314988374600e-02  4.3277129430162674e-02  1.3550821609885346e-02  2.0495165367820827e-03  1.2263514502240464e-02  2.5407880520670788e-02  4.5202367047011957e-02  2.4571552672640495e-02  1.1552750728873133e-02  3.8855203769631856e-02  3.0533963942706466e-02  1.1673149732565833e-02  5.5478632486948912e-02  1.0516194232714096e-01  9.7469369377032461e-02  7.5306581174708301e-02  3.5329308819981128e-02  1.0848804727290719e-02  4.4996541279090675e-02  2.0296543385047303e-02  2.7150618101697402e-02  2.8520052343850015e-02  1.9006544065417619e-03  1.7038770151143509e-02  4.3904501932424834e-03  9.6394300630120808e-03  6.2442657816747420e-03  6.3946358040008469e-03  5.4992328816425332e-04  1.2123336298798588e-02  4.2816043142869060e-03  1.8704062513967478e-03  2.6955785227546149e-04  4.4007020925837385e-05  1.7350717176463952e-05  8.8182145258649127e-06  1.1843563443758128e-05  7.0926427943290144e-05  4.9333444573112360e-06  3.8535575973457096e-05  1.0862059067508624e-04  3.8188221147453412e-04  5.6097531022642388e-04  5.6195124810752289e-05  1.1292544623698780e-03  1.3800881096650136e-03  3.4046953618364707e-05  2.8522915713276943e-05  4.1218602018381684e-04  3.3527568024434304e-03  5.2223171386692772e-03  2.3937291902497307e-03  9.7645867278806943e-04  2.2332041477742732e-03  1.9215612440262328e-03  1.3777586484186701e-03  4.3305264532830307e-04  2.4965099526340129e-04  7.7436673274735321e-04  1.0721256597221438e-03  1.0365175535485855e-03  7.6890356414109238e-04  4.7151777329947238e-04  2.5011540862486731e-04  1.1245969827757414e-04  3.4413701974648261e-05  5.2178822375910252e-06  2.2094677701478708e-05  2.7456873327090386e-05  2.7760995876782385e-05  2.5221084312201404e-05  2.0885330445494668e-05  1.5852233163950190e-05  1.0118435833163891e-05  2.0782956500084180e-06  -7.0529661049337250e-38  -4.5357678025114422e-19  7.2020577614554642e-03  6.4324475719386917e-03  1.2292045640357019e-02  1.5615447933758853e-02  3.9140217612947170e-02  1.1678388474657474e-03  3.3658144013768002e-02  1.1949462094774087e-02  2.2778646199115161e-02  5.0745794684377635e-02  4.6092730349630934e-02  1.6088935086018212e-02  7.2571581737774754e-02  8.2642627342529904e-02  8.9662853608308460e-02  3.4299350337098175e-02  9.0724612039191493e-02  5.1460309170910127e-03  2.0978089802608343e-02  7.4245556624983810e-03  6.2515295032333426e-02  4.0256262545980588e-02  1.2147542520707382e-02  4.3276949863242167e-03  1.1615835851208369e-02  6.4204784113612210e-04  6.0452075142237343e-03  2.0206734610375834e-02  1.8910467203813724e-03  7.0972068946597688e-02  4.2915760190388404e-02  3.4369064898969806e-02  3.5139924545199118e-02  4.9760913941928719e-02  3.9783541343025322e-02  9.0398264902238413e-04  5.1085596979244190e-02  9.0384909690694348e-02  1.0001321982672622e-01  1.3692723845868363e-01  5.6748129833370527e-02  1.6368796078420410e-02  2.2226924931559238e-02  4.0377017886917284e-02  9.9421781351627589e-03  9.9782900555151020e-03  3.4614562467825210e-03  3.3374294132986489e-02  1.3443208171632580e-02  1.5333928110148488e-02  2.9506267941132635e-03  5.7824802057186665e-03  9.0292910707391125e-03  1.5648777752754105e-02  7.1658015316533935e-03  2.4899082235479665e-03  1.5432901820689893e-03  4.3133621980033926e-05  4.9417400124561161e-05  2.6567324847250483e-05  1.1998453948940123e-05  2.7060553270638714e-05  5.3742798413285106e-05  5.2259840209351328e-05  6.3301512760069616e-05  1.8068547474481514e-04  8.2239916566233533e-04  1.5811646918909836e-04  5.1048477248569646e-04  2.0425648710251719e-03  6.3099577667655616e-04  4.5350959159674761e-04  3.4805020979906319e-04  2.1139850698313630e-03  6.0407705149967067e-03  4.8357602847026440e-03  1.8658846520517597e-05  2.3036885710111736e-03  2.3968732339040752e-03  1.9018649055144853e-03  1.0720685339836609e-03  1.3974247588105967e-04  6.9793031891957102e-04  1.2028517923059394e-03  1.2544104028955137e-03  1.0430757508960492e-03  6.9822963919654050e-04  3.9963846103681995e-04  1.9718707880602495e-04  7.5937906592621872e-05  1.0296896576049317e-05  1.9967847204825385e-05  3.1113307521988341e-05  3.3776491128625497e-05  3.2721383560875804e-05  2.8877586357690275e-05  2.3135135218194766e-05  1.7975896047129290e-05  8.4009636937338160e-06  2.0985622474102403e-21  8.6666847497425613e-34  3.1470638600722176e-02  1.9568549338343601e-02  7.1950739614619785e-02  2.4204603031709314e-02  9.1605508387737674e-03  1.0324758291513891e-02  2.5795739932435596e-02  1.7876561952570823e-02  4.5930803097762922e-02  1.0589346768587006e-01  5.4024794221873423e-02  7.2411275819362464e-02  5.5411814813157483e-02  3.5277697968371526e-02  2.8378347055028834e-02  1.4282963384457403e-01  6.0032645880443034e-02  4.1501966277386990e-02  4.8544719889094527e-02  9.6817970947579546e-02  8.4947462194635587e-02  1.2163033035897429e-01  1.0340048960551868e-01  2.5007744436917962e-02  9.1994468203438883e-03  6.7711772255713176e-02  1.1063980103759892e-01  5.3193797369521401e-02  5.2115643040194001e-05  7.8910286820779666e-03  5.4117543247181800e-02  8.6762203417928660e-02  6.7518036979757390e-02  1.5181147243862166e-02  5.9604989717303963e-02  4.1796175403558185e-02  2.4132810135455613e-02  7.6472029109834888e-02  1.3818200304762665e-01  8.8058224009547714e-02  8.9890258680757271e-02  4.3547711086072013e-02  2.7128531119479261e-02  6.0858669727397445e-02  1.0893891384445764e-02  5.5215367128943753e-02  7.7044828356154491e-02  2.7612796291451011e-02  3.7488654732476853e-02  2.0974023034608848e-02  2.5483978964274040e-02  1.7357350149256431e-02  4.1710037944102931e-03  1.1354454322097612e-03  1.9747481190105835e-02  9.2492601207127612e-04  2.8856277411878364e-03  8.9027100052400260e-04  7.9923649657159899e-06  4.1261895723897754e-05  4.4598681400407502e-05  3.7992906436252385e-06  1.4979972564166705e-04  9.3768444018810773e-07  1.1020650536492473e-04  1.4967120019087455e-04  4.3442448992026667e-04  8.1403393308010020e-04  2.6728108384426445e-04  1.6460744135447087e-03  1.8956658766815916e-03  6.1609957768585970e-04  1.2254621014683956e-04  1.8446017728806471e-04  4.6649800783658312e-03  6.8757209306222504e-03  1.9435946061610334e-03  2.0003407054846401e-03  2.5533112274410343e-03  1.9376680657308811e-03  1.6091010159615911e-03  3.7934713346857391e-04  2.7822066099712149e-04  1.1807463100890290e-03  1.3291462437092908e-03  1.1711977445908852e-03  8.6491426804829661e-04  5.4169542795386627e-04  2.9925702406697691e-04  1.4184085972314945e-04  4.8764723104097246e-05  8.0501838218489109e-07  2.0049768609685206e-05  2.7684639578268359e-05  2.9690178096613376e-05  2.8286408222394947e-05  2.4683556687655856e-05  2.0010436330110718e-05  1.4285919231486436e-05  -1.0109251417071673e-36  -3.0542482339365194e-19  2.4210334684293539e-02  2.5286403627029042e-02  3.7706184316085301e-02  7.6560520546115202e-03  2.4058041819313494e-02  3.7424145912988122e-02  3.7854256553869862e-02  4.0878693744495757e-02  2.5352329837858227e-02  6.9623655383688138e-03  2.8142354755036559e-02  7.4765830797746957e-02  7.9138792946177594e-02  7.2509736509121403e-02  1.5790162474772218e-01  4.7037258631144468e-02  2.7559689730702500e-02  1.1056435694844720e-01  1.1800308974253803e-02  5.5407425176219029e-02  5.2644913860573239e-02  3.8207567322832918e-02  2.7090030540492943e-02  3.7640598400205554e-03  8.6561368116535708e-03  2.3535871554722188e-02  4.4187459075119756e-02  4.2435353631691625e-02  3.6883267071980690e-02  1.8682889099820802e-02  8.0625708496906229e-02  6.9836891707749038e-02  5.5254709018745692e-02  9.2163821715553332e-02  3.2964448215635427e-02  3.2344390220939746e-02  6.3905734518464124e-04  5.0100598361126049e-02  8.6649904906660982e-02  1.1636652100291990e-01  1.4473307250149578e-01  3.2347530076650685e-02  2.3350270127979769e-02  1.0311265530539498e-02  5.3666788012424478e-02  1.8989223444825891e-02  6.6808170117845095e-03  2.7723486663218576e-02  2.5748216412639063e-02  1.7442200953651319e-02  1.6242530860814695e-02  1.2929501400437146e-03  1.1312954075771238e-02  9.1572267821932347e-03  2.1458689665833079e-02  7.2648804876185380e-03  1.2243890808758572e-03  2.7163567838177261e-03  3.1480282975630971e-04  5.1925958257981938e-05  7.6504408148616573e-05  1.0921680665471712e-04  8.9989740218794295e-05  1.5384058121814913e-04  9.7115904368349259e-05  7.7771742225968852e-06  1.4365174870660297e-04  9.1361224544456903e-04  8.2851327831908521e-05  2.9040545455882063e-04  2.5450083038952216e-03  5.9271386157155610e-04  9.3249681362292890e-04  7.9350596444636176e-04  2.1008444322409407e-03  7.0901457944721946e-03  5.2738712885225022e-03  1.0427498417823055e-03  2.8331342875630781e-03  2.2322795031426939e-03  1.6904524631295235e-03  1.0629200761240413e-03  6.4235637122335830e-05  7.9354270236252084e-04  1.4343565610031603e-03  1.2947310622791843e-03  1.0199128910800719e-03  6.8574186666918880e-04  4.0768870359005489e-04  2.1673773908605629e-04  9.6755594760388974e-05  2.8968545423936557e-05  3.1906881371016946e-06  1.6309724216949762e-05  2.1412865594807742e-05  2.2881420104065023e-05  2.1080464860247004e-05  1.7191403852178640e-05  1.3554784814405313e-05  2.7463770323165411e-21  -2.2518492185361804e-18  7.2713228702409483e-02  5.8025037101294481e-02  1.1532143410176717e-02  8.0001560927872098e-02  6.7239983186673472e-02  1.4453425841015610e-02  1.3526087203445893e-02  2.2393353977937468e-02  4.7837137884903395e-02  3.5534513989478808e-02  1.0907585575266608e-01  1.1230344934806259e-01  2.3698048461191577e-02  6.4165084406228354e-02  2.7008026923918967e-02  3.2805790236768865e-03  1.7532443426314073e-01  2.7579240642044429e-02  5.2530101708301823e-02  2.4041657531315985e-02  8.4573795064058363e-02  1.0365772915918535e-01  1.5389247419707533e-01  1.4330302492345662e-01  6.1122300984832630e-02  1.1785715391850830e-02  4.6657220631680520e-02  1.2203634330712769e-01  7.6159091061069287e-02  1.3915660877136381e-02  2.0752430411471581e-02  9.1732106724623189e-02  1.2507238283257802e-01  6.1958334732031432e-02  6.2312191426472947e-03  7.7972920889130812e-02  4.3079557465860119e-02  3.9357238566645768e-02  8.7516860094142446e-02  1.3260534944433566e-01  7.2754520618035765e-02  1.1486246532349828e-01  3.4819365840714996e-02  5.0366394500862256e-02  5.4325626718336878e-02  5.0197654992403069e-03  6.4832366271422748e-02  9.3987048072058918e-02  4.0623675954635251e-02  5.0711317919005343e-02  3.6475866632354019e-02  3.6581080632843536e-02  2.2958009202346061e-02  3.8142967113426666e-03  3.9440809377182349e-04  2.6462676949298134e-02  4.8421776820436633e-03  2.1412998475268436e-03  1.7777526321003071e-03  6.7333706417438882e-05  1.1353447581365039e-04  1.1029890956025699e-04  8.6089576859978766e-05  2.3632889855491971e-04  7.7194687530405864e-05  1.9498410262154398e-04  9.7234801635471909e-05  4.0034531396963602e-04  8.9508028146435847e-04  4.7429849701823181e-04  1.6939735143161312e-03  2.2334170950310639e-03  9.0849851305482485e-04  2.7595007116534361e-05  1.9425988044107599e-04  5.0308547387009116e-03  7.7545158060972142e-03  1.8183026189847005e-03  2.8204774289772388e-03  2.7511106060242726e-03  1.7734706716439049e-03  1.5457782771903384e-03  3.3676475845391803e-04  1.5217847416946042e-04  1.3254227898598305e-03  1.4596775805158942e-03  1.1665814672800216e-03  8.4275371149599928e-04  5.3533314611349124e-04  3.0602510783673387e-04  1.5337509759795877e-04  6.0389739424100725e-05  1.2542929599441143e-05  7.7288368004682221e-06  1.5280380303293637e-05  1.7970674040493636e-05  1.7627051795797797e-05  1.4869351420345411e-05  1.0146163606967777e-05  -5.6322522240347118e-22  -9.4198422222530421e-19  5.4720612592173083e-02  2.0976399914444367e-02  1.8543682586177761e-02  7.1425420652146188e-02  3.3475994623645061e-02  2.0067618052490802e-02  1.6530359074726626e-02  5.4707366359537289e-02  2.5553577516176987e-02  1.5718319749031276e-02  1.7314949292683523e-02  1.9050235995671534e-02  2.0559243921966994e-02  1.1073558514222424e-01  1.9253828453322627e-02  1.5556018749141959e-01  2.0880716707031184e-03  6.0120016374870272e-02  1.0188214449432624e-01  4.9207734647011168e-03  5.1796183153130351e-02  9.0973820494567662e-02  3.0270554085942013e-03  1.2398473764926017e-02  5.7604263179736798e-02  1.4230090988259130e-02  8.4297126371309910e-03  6.4422565045761451e-02  9.3031532227855693e-02  5.4532294920704841e-02  1.7248494095794802e-02  6.7877152626632048e-02  5.8179891117551952e-02  6.9759108275142742e-02  1.2828089198535134e-01  4.0102550194094349e-03  3.5664781839214191e-02  8.3338180500787153e-03  5.0378041386444063e-02  9.7868645209660765e-02  1.3490533385735110e-01  1.2470048209194237e-01  2.8736132177574123e-02  1.6352907767645784e-02  1.7102312672476291e-02  6.3335197162287610e-02  2.9397588884390813e-02  2.4143925595821323e-02  6.1441392017164170e-02  3.8196934040569766e-03  6.0981699968490179e-03  5.4311948047310781e-03  1.1495541135504916e-02  1.9364429125954288e-02  6.8163261832513934e-03  2.2137127970168438e-02  1.0736490719711167e-02  5.7557629607231887e-03  3.4562709893824570e-03  8.4226135631149102e-04  8.9719871311495813e-05  1.0657503633130209e-04  1.2792896104419949e-04  1.2488046335726395e-04  2.0517371622984153e-04  1.3541581883939823e-04  6.7179523358903173e-05  1.3919300437213492e-04  9.1666524470522233e-04  8.7278341150530636e-05  1.7915228570153155e-04  2.7349042387644689e-03  6.7311146584633200e-04  1.2191721592455299e-03  8.4556439192867347e-04  2.0661471608674101e-03  7.6942491638694105e-03  5.7061160746110047e-03  1.5522912809468722e-03  3.3698806130805100e-03  2.2011897325692632e-03  1.5455104525014739e-03  1.0546454109966385e-03  8.2870419765492288e-05  8.0734509026173873e-04  1.6148630505767724e-03  1.3695484536836091e-03  9.9755388191386548e-04  6.7016872509689373e-04  4.1106026674396907e-04  2.2800528139123500e-04  1.0635001467794286e-04  3.5245389505797108e-05  1.9617312969199814e-06  1.0908339405174321e-05  1.5585933962100326e-05  1.6694940319650422e-05  1.4463841383251774e-05  9.3638189783908177e-06  -5.1979637141157306e-22  -2.8509776478265346e-19  1.8758778572524951e-02  2.6399871352476373e-02  1.0540865901248733e-03  5.6570377355887373e-02  4.1172491678934685e-02  8.0452572706235126e-02  1.2333274772431241e-03  3.6834257447446728e-02  3.3108583566585463e-03  5.5784078160496443e-02  2.5140451540903001e-02  7.7286985456091112e-02  8.9609581103109126e-02  5.9049228187028069e-03  1.2852699638941017e-02  3.6829422081205175e-02  5.8224796359441382e-02  1.4576840914942568e-01  2.3515197041882895e-02  5.1645077798394758e-02  6.8524291251587845e-03  4.9848551851900839e-02  6.6663375886996834e-02  1.3328208885885398e-01  1.1615466978985081e-01  4.8803359927806829e-02  1.8523472318263682e-02  2.9233200490720299e-02  8.2052781247385964e-02  6.0764209488582389e-02  2.9229472293967558e-02  4.8835501756065908e-02  9.5427097742533482e-02  1.4771975895148232e-01  3.8286645407284360e-02  4.0150785164249941e-02  7.2347314507434354e-02  3.5385775007672024e-02  5.1053971900340653e-02  9.0570333644804144e-02  1.2265942643879479e-01  8.5950653485379461e-02  1.2359532824803936e-01  1.6493782312243892e-02  5.8274178999654168e-02  4.4949356347413920e-02  8.0890455519231838e-03  6.5851230919136500e-02  8.0483397793594424e-02  1.9195702809198922e-02  4.0400720285510373e-02  3.5367396071504721e-02  3.4874019036146425e-02  1.9114084110197199e-02  8.7167677376359630e-03  9.9712480300100667e-04  2.9489736407418116e-02  5.0188230242980197e-03  9.0669535802012527e-04  2.6471067326020487e-03  1.9841002584443227e-04  9.5836076487091246e-05  8.0185635996782263e-05  6.0061281366782439e-05  2.1040535916153844e-04  7.3667800026476162e-05  1.7077529313559793e-04  9.7731916585349547e-05  4.8216493441441600e-04  8.9363932005100989e-04  4.4283257462513599e-04  1.7169820814745081e-03  2.3782813858921679e-03  9.4937833646124143e-04  1.9085970521941201e-04  2.3010011223698380e-04  5.2964490734389962e-03  8.2713136463618536e-03  1.8587146923355620e-03  3.4356381422843822e-03  3.0798311642690375e-03  1.6979541351334797e-03  1.4081129987496283e-03  3.2851163542334385e-04  1.5132177215190003e-04  1.4089268262694589e-03  1.6383440342236141e-03  1.2166795130633026e-03  8.2587115737404928e-04  5.2721175079243254e-04  3.1280011800370995e-04  1.6578896003420271e-04  7.0693597385472438e-05  1.9529784447172196e-05  2.7741774446473945e-06  1.1409416233458611e-05  1.4701186045130780e-05  1.4384090692367441e-05  1.0305694836940028e-05  -7.7499533103862958e-22  -5.2849113833425996e-19  5.1358647489572785e-03  1.2492229708599171e-02  1.9644997412305267e-02  3.6612347495229715e-02  2.5727929039010149e-02  7.0705471384080690e-02  8.6807371062096877e-03  2.6482610108892967e-03  4.5019299363293123e-02  1.6218515614449428e-02  8.4985340783359509e-03  5.1418044793384802e-03  1.7466191405376575e-02  3.0461146209270908e-02  7.2632567282717747e-02  3.4217872782928269e-