<?xml version="1.0"?>
<VTKFile type="UnstructuredGrid"  version="0.1"  >
<UnstructuredGrid>
<Piece  NumberOfPoints="10201" NumberOfCells="20000">
<Points>
<DataArray  type="Float64"  NumberOfComponents="3"  format="ascii">0 0 0  0.01 0 0  0.02 0 0  0.03 0 0  0.04 0 0  0.05 0 0  0.06 0 0  0.07000000000000001 0 0  0.08 0 0  0.09 0 0  0.1 0 0  0.11 0 0  0.12 0 0  0.13 0 0  0.14 0 0  0.15 0 0  0.16 0 0  0.17 0 0  0.18 0 0  0.19 0 0  0.2 0 0  0.21 0 0  0.22 0 0  0.23 0 0  0.24 0 0  0.25 0 0  0.26 0 0  0.27 0 0  0.28 0 0  0.29 0 0  0.3 0 0  0.31 0 0  0.32 0 0  0.33 0 0  0.34 0 0  0.35 0 0  0.36 0 0  0.37 0 0  0.38 0 0  0.39 0 0  0.4 0 0  0.41 0 0  0.42 0 0  0.43 0 0  0.44 0 0  0.45 0 0  0.46 0 0  0.47 0 0  0.48 0 0  0.49 0 0  0.5 0 0  0.51 0 0  0.52 0 0  0.53 0 0  0.54 0 0  0.55 0 0  0.5600000000000001 0 0  0.57 0 0  0.58 0 0  0.59 0 0  0.6 0 0  0.61 0 0  0.62 0 0  0.63 0 0  0.64 0 0  0.65 0 0  0.66 0 0  0.67 0 0  0.68 0 0  0.6899999999999999 0 0  0.7 0 0  0.71 0 0  0.72 0 0  0.73 0 0  0.74 0 0  0.75 0 0  0.76 0 0  0.77 0 0  0.78 0 0  0.79 0 0  0.8 0 0  0.8100000000000001 0 0  0.82 0 0  0.83 0 0  0.84 0 0  0.85 0 0  0.86 0 0  0.87 0 0  0.88 0 0  0.89 0 0  0.9 0 0  0.91 0 0  0.92 0 0  0.93 0 0  0.9399999999999999 0 0  0.95 0 0  0.96 0 0  0.97 0 0  0.98 0 0  0.99 0 0  1 0 0  0 0.01 0  0.01 0.01 0  0.02 0.01 0  0.03 0.01 0  0.04 0.01 0  0.05 0.01 0  0.06 0.01 0  0.07000000000000001 0.01 0  0.08 0.01 0  0.09 0.01 0  0.1 0.01 0  0.11 0.01 0  0.12 0.01 0  0.13 0.01 0  0.14 0.01 0  0.15 0.01 0  0.16 0.01 0  0.17 0.01 0  0.18 0.01 0  0.19 0.01 0  0.2 0.01 0  0.21 0.01 0  0.22 0.01 0  0.23 0.01 0  0.24 0.01 0  0.25 0.01 0  0.26 0.01 0  0.27 0.01 0  0.28 0.01 0  0.29 0.01 0  0.3 0.01 0  0.31 0.01 0  0.32 0.01 0  0.33 0.01 0  0.34 0.01 0  0.35 0.01 0  0.36 0.01 0  0.37 0.01 0  0.38 0.01 0  0.39 0.01 0  0.4 0.01 0  0.41 0.01 0  0.42 0.01 0  0.43 0.01 0  0.44 0.01 0  0.45 0.01 0  0.46 0.01 0  0.47 0.01 0  0.48 0.01 0  0.49 0.01 0  0.5 0.01 0  0.51 0.01 0  0.52 0.01 0  0.53 0.01 0  0.54 0.01 0  0.55 0.01 0  0.5600000000000001 0.01 0  0.57 0.01 0  0.58 0.01 0  0.59 0.01 0  0.6 0.01 0  0.61 0.01 0  0.62 0.01 0  0.63 0.01 0  0.64 0.01 0  0.65 0.01 0  0.66 0.01 0  0.67 0.01 0  0.68 0.01 0  0.6899999999999999 0.01 0  0.7 0.01 0  0.71 0.01 0  0.72 0.01 0  0.73 0.01 0  0.74 0.01 0  0.75 0.01 0  0.76 0.01 0  0.77 0.01 0  0.78 0.01 0  0.79 0.01 0  0.8 0.01 0  0.8100000000000001 0.01 0  0.82 0.01 0  0.83 0.01 0  0.84 0.01 0  0.85 0.01 0  0.86 0.01 0  0.87 0.01 0  0.88 0.01 0  0.89 0.01 0  0.9 0.01 0  0.91 0.01 0  0.92 0.01 0  0.93 0.01 0  0.9399999999999999 0.01 0  0.95 0.01 0  0.96 0.01 0  0.97 0.01 0  0.98 0.01 0  0.99 0.01 0  1 0.01 0  0 0.02 0  0.01 0.02 0  0.02 0.02 0  0.03 0.02 0  0.04 0.02 0  0.05 0.02 0  0.06 0.02 0  0.07000000000000001 0.02 0  0.08 0.02 0  0.09 0.02 0  0.1 0.02 0  0.11 0.02 0  0.12 0.02 0  0.13 0.02 0  0.14 0.02 0  0.15 0.02 0  0.16 0.02 0  0.17 0.02 0  0.18 0.02 0  0.19 0.02 0  0.2 0.02 0  0.21 0.02 0  0.22 0.02 0  0.23 0.02 0  0.24 0.02 0  0.25 0.02 0  0.26 0.02 0  0.27 0.02 0  0.28 0.02 0  0.29 0.02 0  0.3 0.02 0  0.31 0.02 0  0.32 0.02 0  0.33 0.02 0  0.34 0.02 0  0.35 0.02 0  0.36 0.02 0  0.37 0.02 0  0.38 0.02 0  0.39 0.02 0  0.4 0.02 0  0.41 0.02 0  0.42 0.02 0  0.43 0.02 0  0.44 0.02 0  0.45 0.02 0  0.46 0.02 0  0.47 0.02 0  0.48 0.02 0  0.49 0.02 0  0.5 0.02 0  0.51 0.02 0  0.52 0.02 0  0.53 0.02 0  0.54 0.02 0  0.55 0.02 0  0.5600000000000001 0.02 0  0.57 0.02 0  0.58 0.02 0  0.59 0.02 0  0.6 0.02 0  0.61 0.02 0  0.62 0.02 0  0.63 0.02 0  0.64 0.02 0  0.65 0.02 0  0.66 0.02 0  0.67 0.02 0  0.68 0.02 0  0.6899999999999999 0.02 0  0.7 0.02 0  0.71 0.02 0  0.72 0.02 0  0.73 0.02 0  0.74 0.02 0  0.75 0.02 0  0.76 0.02 0  0.77 0.02 0  0.78 0.02 0  0.79 0.02 0  0.8 0.02 0  0.8100000000000001 0.02 0  0.82 0.02 0  0.83 0.02 0  0.84 0.02 0  0.85 0.02 0  0.86 0.02 0  0.87 0.02 0  0.88 0.02 0  0.89 0.02 0  0.9 0.02 0  0.91 0.02 0  0.92 0.02 0  0.93 0.02 0  0.9399999999999999 0.02 0  0.95 0.02 0  0.96 0.02 0  0.97 0.02 0  0.98 0.02 0  0.99 0.02 0  1 0.02 0  0 0.03 0  0.01 0.03 0  0.02 0.03 0  0.03 0.03 0  0.04 0.03 0  0.05 0.03 0  0.06 0.03 0  0.07000000000000001 0.03 0  0.08 0.03 0  0.09 0.03 0  0.1 0.03 0  0.11 0.03 0  0.12 0.03 0  0.13 0.03 0  0.14 0.03 0  0.15 0.03 0  0.16 0.03 0  0.17 0.03 0  0.18 0.03 0  0.19 0.03 0  0.2 0.03 0  0.21 0.03 0  0.22 0.03 0  0.23 0.03 0  0.24 0.03 0  0.25 0.03 0  0.26 0.03 0  0.27 0.03 0  0.28 0.03 0  0.29 0.03 0  0.3 0.03 0  0.31 0.03 0  0.32 0.03 0  0.33 0.03 0  0.34 0.03 0  0.35 0.03 0  0.36 0.03 0  0.37 0.03 0  0.38 0.03 0  0.39 0.03 0  0.4 0.03 0  0.41 0.03 0  0.42 0.03 0  0.43 0.03 0  0.44 0.03 0  0.45 0.03 0  0.46 0.03 0  0.47 0.03 0  0.48 0.03 0  0.49 0.03 0  0.5 0.03 0  0.51 0.03 0  0.52 0.03 0  0.53 0.03 0  0.54 0.03 0  0.55 0.03 0  0.5600000000000001 0.03 0  0.57 0.03 0  0.58 0.03 0  0.59 0.03 0  0.6 0.03 0  0.61 0.03 0  0.62 0.03 0  0.63 0.03 0  0.64 0.03 0  0.65 0.03 0  0.66 0.03 0  0.67 0.03 0  0.68 0.03 0  0.6899999999999999 0.03 0  0.7 0.03 0  0.71 0.03 0  0.72 0.03 0  0.73 0.03 0  0.74 0.03 0  0.75 0.03 0  0.76 0.03 0  0.77 0.03 0  0.78 0.03 0  0.79 0.03 0  0.8 0.03 0  0.8100000000000001 0.03 0  0.82 0.03 0  0.83 0.03 0  0.84 0.03 0  0.85 0.03 0  0.86 0.03 0  0.87 0.03 0  0.88 0.03 0  0.89 0.03 0  0.9 0.03 0  0.91 0.03 0  0.92 0.03 0  0.93 0.03 0  0.9399999999999999 0.03 0  0.95 0.03 0  0.96 0.03 0  0.97 0.03 0  0.98 0.03 0  0.99 0.03 0  1 0.03 0  0 0.04 0  0.01 0.04 0  0.02 0.04 0  0.03 0.04 0  0.04 0.04 0  0.05 0.04 0  0.06 0.04 0  0.07000000000000001 0.04 0  0.08 0.04 0  0.09 0.04 0  0.1 0.04 0  0.11 0.04 0  0.12 0.04 0  0.13 0.04 0  0.14 0.04 0  0.15 0.04 0  0.16 0.04 0  0.17 0.04 0  0.18 0.04 0  0.19 0.04 0  0.2 0.04 0  0.21 0.04 0  0.22 0.04 0  0.23 0.04 0  0.24 0.04 0  0.25 0.04 0  0.26 0.04 0  0.27 0.04 0  0.28 0.04 0  0.29 0.04 0  0.3 0.04 0  0.31 0.04 0  0.32 0.04 0  0.33 0.04 0  0.34 0.04 0  0.35 0.04 0  0.36 0.04 0  0.37 0.04 0  0.38 0.04 0  0.39 0.04 0  0.4 0.04 0  0.41 0.04 0  0.42 0.04 0  0.43 0.04 0  0.44 0.04 0  0.45 0.04 0  0.46 0.04 0  0.47 0.04 0  0.48 0.04 0  0.49 0.04 0  0.5 0.04 0  0.51 0.04 0  0.52 0.04 0  0.53 0.04 0  0.54 0.04 0  0.55 0.04 0  0.5600000000000001 0.04 0  0.57 0.04 0  0.58 0.04 0  0.59 0.04 0  0.6 0.04 0  0.61 0.04 0  0.62 0.04 0  0.63 0.04 0  0.64 0.04 0  0.65 0.04 0  0.66 0.04 0  0.67 0.04 0  0.68 0.04 0  0.6899999999999999 0.04 0  0.7 0.04 0  0.71 0.04 0  0.72 0.04 0  0.73 0.04 0  0.74 0.04 0  0.75 0.04 0  0.76 0.04 0  0.77 0.04 0  0.78 0.04 0  0.79 0.04 0  0.8 0.04 0  0.8100000000000001 0.04 0  0.82 0.04 0  0.83 0.04 0  0.84 0.04 0  0.85 0.04 0  0.86 0.04 0  0.87 0.04 0  0.88 0.04 0  0.89 0.04 0  0.9 0.04 0  0.91 0.04 0  0.92 0.04 0  0.93 0.04 0  0.9399999999999999 0.04 0  0.95 0.04 0  0.96 0.04 0  0.97 0.04 0  0.98 0.04 0  0.99 0.04 0  1 0.04 0  0 0.05 0  0.01 0.05 0  0.02 0.05 0  0.03 0.05 0  0.04 0.05 0  0.05 0.05 0  0.06 0.05 0  0.07000000000000001 0.05 0  0.08 0.05 0  0.09 0.05 0  0.1 0.05 0  0.11 0.05 0  0.12 0.05 0  0.13 0.05 0  0.14 0.05 0  0.15 0.05 0  0.16 0.05 0  0.17 0.05 0  0.18 0.05 0  0.19 0.05 0  0.2 0.05 0  0.21 0.05 0  0.22 0.05 0  0.23 0.05 0  0.24 0.05 0  0.25 0.05 0  0.26 0.05 0  0.27 0.05 0  0.28 0.05 0  0.29 0.05 0  0.3 0.05 0  0.31 0.05 0  0.32 0.05 0  0.33 0.05 0  0.34 0.05 0  0.35 0.05 0  0.36 0.05 0  0.37 0.05 0  0.38 0.05 0  0.39 0.05 0  0.4 0.05 0  0.41 0.05 0  0.42 0.05 0  0.43 0.05 0  0.44 0.05 0  0.45 0.05 0  0.46 0.05 0  0.47 0.05 0  0.48 0.05 0  0.49 0.05 0  0.5 0.05 0  0.51 0.05 0  0.52 0.05 0  0.53 0.05 0  0.54 0.05 0  0.55 0.05 0  0.5600000000000001 0.05 0  0.57 0.05 0  0.58 0.05 0  0.59 0.05 0  0.6 0.05 0  0.61 0.05 0  0.62 0.05 0  0.63 0.05 0  0.64 0.05 0  0.65 0.05 0  0.66 0.05 0  0.67 0.05 0  0.68 0.05 0  0.6899999999999999 0.05 0  0.7 0.05 0  0.71 0.05 0  0.72 0.05 0  0.73 0.05 0  0.74 0.05 0  0.75 0.05 0  0.76 0.05 0  0.77 0.05 0  0.78 0.05 0  0.79 0.05 0  0.8 0.05 0  0.8100000000000001 0.05 0  0.82 0.05 0  0.83 0.05 0  0.84 0.05 0  0.85 0.05 0  0.86 0.05 0  0.87 0.05 0  0.88 0.05 0  0.89 0.05 0  0.9 0.05 0  0.91 0.05 0  0.92 0.05 0  0.93 0.05 0  0.9399999999999999 0.05 0  0.95 0.05 0  0.96 0.05 0  0.97 0.05 0  0.98 0.05 0  0.99 0.05 0  1 0.05 0  0 0.06 0  0.01 0.06 0  0.02 0.06 0  0.03 0.06 0  0.04 0.06 0  0.05 0.06 0  0.06 0.06 0  0.07000000000000001 0.06 0  0.08 0.06 0  0.09 0.06 0  0.1 0.06 0  0.11 0.06 0  0.12 0.06 0  0.13 0.06 0  0.14 0.06 0  0.15 0.06 0  0.16 0.06 0  0.17 0.06 0  0.18 0.06 0  0.19 0.06 0  0.2 0.06 0  0.21 0.06 0  0.22 0.06 0  0.23 0.06 0  0.24 0.06 0  0.25 0.06 0  0.26 0.06 0  0.27 0.06 0  0.28 0.06 0  0.29 0.06 0  0.3 0.06 0  0.31 0.06 0  0.32 0.06 0  0.33 0.06 0  0.34 0.06 0  0.35 0.06 0  0.36 0.06 0  0.37 0.06 0  0.38 0.06 0  0.39 0.06 0  0.4 0.06 0  0.41 0.06 0  0.42 0.06 0  0.43 0.06 0  0.44 0.06 0  0.45 0.06 0  0.46 0.06 0  0.47 0.06 0  0.48 0.06 0  0.49 0.06 0  0.5 0.06 0  0.51 0.06 0  0.52 0.06 0  0.53 0.06 0  0.54 0.06 0  0.55 0.06 0  0.5600000000000001 0.06 0  0.57 0.06 0  0.58 0.06 0  0.59 0.06 0  0.6 0.06 0  0.61 0.06 0  0.62 0.06 0  0.63 0.06 0  0.64 0.06 0  0.65 0.06 0  0.66 0.06 0  0.67 0.06 0  0.68 0.06 0  0.6899999999999999 0.06 0  0.7 0.06 0  0.71 0.06 0  0.72 0.06 0  0.73 0.06 0  0.74 0.06 0  0.75 0.06 0  0.76 0.06 0  0.77 0.06 0  0.78 0.06 0  0.79 0.06 0  0.8 0.06 0  0.8100000000000001 0.06 0  0.82 0.06 0  0.83 0.06 0  0.84 0.06 0  0.85 0.06 0  0.86 0.06 0  0.87 0.06 0  0.88 0.06 0  0.89 0.06 0  0.9 0.06 0  0.91 0.06 0  0.92 0.06 0  0.93 0.06 0  0.9399999999999999 0.06 0  0.95 0.06 0  0.96 0.06 0  0.97 0.06 0  0.98 0.06 0  0.99 0.06 0  1 0.06 0  0 0.07000000000000001 0  0.01 0.07000000000000001 0  0.02 0.07000000000000001 0  0.03 0.07000000000000001 0  0.04 0.07000000000000001 0  0.05 0.07000000000000001 0  0.06 0.07000000000000001 0  0.07000000000000001 0.07000000000000001 0  0.08 0.07000000000000001 0  0.09 0.07000000000000001 0  0.1 0.07000000000000001 0  0.11 0.07000000000000001 0  0.12 0.07000000000000001 0  0.13 0.07000000000000001 0  0.14 0.07000000000000001 0  0.15 0.07000000000000001 0  0.16 0.07000000000000001 0  0.17 0.0700
[...]
<PointData  Scalars="Indicator Function"> 
<DataArray  type="Float64"  Name="Indicator Function"  format="ascii">-7.8942156981287943e-19  7.9001673989013092e-18  4.6981504640305054e-17  1.4242911048699631e-18  1.1146282985040513e-16  -2.8220172118267862e-19  -1.6381327392904432e-19  9.5465471555521961e-17  2.7299371762812146e-16  -1.1555579666323415e-33  9.1318582141462281e-17  7.4263419737673598e-17  -5.5023996835775996e-20  -1.5501200757221185e-18  2.0498438915948163e-16  -2.0801441131279727e-18  -3.6801019680761896e-18  3.2080753844588966e-16  -1.2330281501481363e-18  -1.3634771229949797e-18  9.9460305728355498e-16  -1.8651067933263236e-18  -1.1241722026371046e-18  2.5203591896707539e-16  -3.3956171448656134e-19  -1.1291601789095929e-18  -1.2823252896590440e-18  -4.8132436626727698e-19  -5.5181063593040589e-19  -1.4854805182505719e-18  -2.3974224566379934e-18  -1.1987112283189971e-18  -1.3708108181843817e-18  -2.2002717135301307e-18  4.5655856457138597e-17  -6.3372107090330850e-19  -3.1151057600148430e-18  -5.8793183190215589e-18  -5.0923532030005640e-18  -6.3363836543729494e-18  8.6735974193276563e-16  -3.4884469104886033e-19  -2.2384487812748028e-18  -2.0420549596510255e-18  -1.3707543832558637e-18  -6.8537719162790352e-19  1.7507058459544678e-16  -9.1210667001760749e-19  -1.9480097102603972e-19  -5.8583665243414293e-19  -2.9291832621707156e-19  -4.5815787374441179e-19  -1.3948201284006524e-19  -6.6121071817260130e-19  -4.8025173810975382e-19  1.1796320909371820e-33  1.8488927466117464e-31  -4.1900909449794541e-21  -2.7290369251479891e-21  -3.9964607405062248e-21  -1.1053539033598111e-21  -2.9119664607952056e-21  -1.8387570636088585e-21  -2.3626485646329173e-21  -7.3595193905031653e-21  -1.0170970830508850e-20  -4.6206189074511140e-20  3.2725762726892484e-34  4.3454828965675350e-17  -1.1448667933673025e-19  -3.7051214929437294e-20  -3.7578581513547234e-21  -7.4911108870585021e-21  -1.0108536498211814e-19  -4.0401311215556127e-19  -2.6520207159865783e-19  -4.9060351338423461e-20  -1.3458858385877309e-19  -1.5401228568663841e-19  -9.0948690029183421e-20  -4.4045336365578106e-20  9.3182445689575373e-18  -4.2625463607978757e-20  -9.1049382905723112e-20  -8.5241121572924087e-20  -5.8321137116841044e-20  -3.2582891807846454e-20  -1.6677878112978519e-20  -8.2613958721112274e-21  -3.2981779838269967e-21  -2.7349203472916455e-22  -9.0967440788736745e-22  -1.5766260881137731e-21  3.7800711434959452e-20  -1.6102067468690736e-21  -1.3317556613843078e-21  -9.0956395312966442e-22  -6.8432029084469545e-22  -2.6696623116393157e-23  -2.3509887016445750e-38  1.8807909613156600e-37  3.8518598887744717e-34  1.4220954750590082e-02  4.7002939489546244e-02  1.4891204723686014e-02  1.1946985149730594e-02  7.7160233589957583e-03  5.0836942654464944e-03  2.9509975977007421e-03  3.1818073531931834e-02  3.9288333892574821e-02  1.8068719986039203e-03  5.3405473307101596e-02  1.9824484131683029e-03  4.5978182416491993e-02  4.9353895733606724e-03  7.2265365690302188e-02  6.3077882137844613e-02  3.4755882339531190e-02  4.4424520940355830e-02  4.9124440504386489e-02  2.3823360095020861e-02  5.0571208989287478e-02  3.3598777037722447e-02  3.4518975327256355e-03  1.2234000086647710e-02  4.0682282887830747e-02  4.6200637573409857e-02  1.7341537892524756e-02  2.5752242436961931e-03  1.3193688982260140e-02  2.0163193542707555e-02  4.3188123529458104e-02  3.3072720704506883e-02  8.1579720076290635e-03  3.5557585472858033e-02  2.7544726185168410e-02  1.1416103915107886e-02  5.0408704602536186e-02  9.9179854538989018e-02  9.0855689332839620e-02  6.8718295592422207e-02  3.3984656540225922e-02  6.2842272824712884e-03  4.0516690970046218e-02  1.6528046336394601e-02  2.4693315718590323e-02  3.2426285655913913e-02  2.4295659716261884e-04  1.6309574738272447e-02  3.5092223220971352e-03  1.0553494918409538e-02  6.4561387789550473e-03  5.0253691284112409e-03  1.6957393012586657e-03  1.1063443725272687e-02  3.1197243325441341e-03  2.2301726628794353e-03  6.7970134922214535e-04  1.3450911747721873e-04  7.1013670791472992e-05  3.9824571418270174e-05  7.4183056864418703e-06  1.0196159637472040e-04  2.9612336589314872e-06  4.2561692781152975e-05  1.3257731513878398e-04  5.0906343812586775e-04  5.7784498452978213e-04  1.3833160345592095e-04  1.4549959272008631e-03  1.3349107019987032e-03  1.3539110856121867e-04  2.6989571359638210e-04  5.7291117488101782e-04  3.8855544402195915e-03  5.3352759853165241e-03  2.1098178106601336e-03  8.8379272002555762e-04  1.9826360244459937e-03  1.8672107777809935e-03  1.4825815522904286e-03  5.5765657288470855e-04  5.2766206053471681e-04  9.5666926925763805e-04  1.1618652330772936e-03  1.1149468137767462e-03  8.5368669525280475e-04  5.6041373150921133e-04  3.2800464852709765e-04  1.7018509408403995e-04  6.9329064768383446e-05  1.1829662047012518e-05  1.6387237297560102e-05  2.8232575234689604e-05  3.1736130579969013e-05  2.9806603573434175e-05  2.4664427256513938e-05  1.8524346517668266e-05  1.0964677707237882e-05  9.8355117282302370e-07  -3.7615819226313200e-37  -5.5209268932235251e-19  8.1880085573264871e-03  8.2676758817155204e-03  1.6271709311998502e-02  1.7878248571382798e-02  4.2561730555915590e-02  8.8706916618363639e-04  3.6193374789357316e-02  1.6203187952567935e-02  2.7748379395542606e-02  6.1154157448444442e-02  5.1559149788891541e-02  1.1848043377022652e-02  7.5620920291101609e-02  8.9805285894617046e-02  9.7262429191717667e-02  3.1491499913563842e-02  9.3234281635126579e-02  4.5267799062889648e-03  2.5925578511124446e-02  5.3781964013186303e-04  6.9219625602338672e-02  4.9726832051308852e-02  1.5023512897899991e-02  1.6555487113627562e-03  1.2751492216122670e-02  5.9660048382864173e-03  6.2783103092996055e-04  1.8896551195288075e-02  4.9433223156542553e-03  7.5134071492022683e-02  5.0634089689545386e-02  2.7762902919169410e-02  4.0054128993667830e-02  5.0759947154675994e-02  3.6901344776489806e-02  3.1787374385366814e-03  5.3244077276047019e-02  8.9795693164843413e-02  9.6628386996528412e-02  1.3931015865582180e-01  5.4103865173916472e-02  1.6905070999900285e-02  1.6908343038477425e-02  3.5719417125952328e-02  1.1840159513105238e-02  1.8179829040350828e-02  2.6214306304996483e-03  3.5772185985245265e-02  1.5950669673455375e-02  1.8950049915000041e-02  3.7489589901445099e-03  4.9234817562555785e-03  7.8697160631501714e-03  1.7275621513212283e-02  5.4531613481504206e-03  2.2210396850422835e-03  2.2401513245007064e-03  4.6683698746042353e-04  1.2211291413762957e-04  4.8773326243415328e-05  2.0197338073831350e-05  6.9122610512773521e-05  4.5134591837242224e-05  7.1743991553663728e-05  1.1011820005271764e-04  2.6369965461281941e-04  1.0775942232856188e-03  7.9663719161183607e-05  9.3926815839657694e-04  2.4260431625645301e-03  3.5719684288227038e-04  3.6183856387140352e-04  5.0544608835298552e-04  2.9020304752956556e-03  7.0326426883573065e-03  4.7446908897185707e-03  3.0690862942255330e-04  2.1689298838264365e-03  2.2664525901529204e-03  2.1038898698353082e-03  1.2376513023804700e-03  4.3740649146111258e-04  1.1031259466998491e-03  1.4332725212581594e-03  1.4364670123052639e-03  1.2048582366583301e-03  8.4677378203185680e-04  5.2681418485790558e-04  2.9286029959027000e-04  1.3578384831091917e-04  3.9267886783888795e-05  1.1079617864743628e-05  3.3619375475267656e-05  4.2237104381395958e-05  4.3244901807775687e-05  3.8659650480221340e-05  3.0766964622920105e-05  2.3422380879231265e-05  9.3098518559232049e-06  2.3256026744164168e-21  7.7037197775489434e-34  3.4467526641652473e-02  2.3431738478447667e-02  7.9700297967277400e-02  2.7754813513299503e-02  8.9655853069132083e-03  1.3343082037562376e-02  2.9101677547407806e-02  1.8274547610504455e-02  4.9028927748931223e-02  1.1656440941052225e-01  6.2273554155928314e-02  7.9539064347949759e-02  6.7452579719156663e-02  4.6773822879187715e-02  3.3533023521829096e-02  1.5192718545880046e-01  6.3990389245605087e-02  4.5084359303615061e-02  5.2965512633143773e-02  1.0693376145669692e-01  1.0087731367425060e-01  1.3027497703587793e-01  1.1450752148042344e-01  3.0049537547574799e-02  9.4157548366737981e-03  7.4382234347395784e-02  1.2505103493805325e-01  6.3680533523265262e-02  5.9465471504464669e-03  9.8488533195949125e-03  5.3130823388362475e-02  9.2311391159627429e-02  8.4533527680596562e-02  1.8375334019842020e-02  6.0616658914962381e-02  3.9604856779865964e-02  2.9691322524961948e-02  8.0689440947591007e-02  1.4468800545365249e-01  8.6773590103888784e-02  8.9591141169263977e-02  4.3288715375263721e-02  2.5586752251630797e-02  5.9562669507389733e-02  5.5271083066047756e-03  5.6965759310417981e-02  8.9800427375200068e-02  3.1375105496665424e-02  3.9837005831490156e-02  2.2404642779566688e-02  2.9318547051083315e-02  1.9303681363733411e-02  2.6749423197554119e-03  3.1345908475102061e-03  2.0672386831779389e-02  2.8623193812103531e-03  3.3091980427264601e-03  1.6150265547602951e-03  2.8117623356677780e-04  1.9591226330393689e-04  9.5192682090370208e-05  1.7448928653131609e-06  2.2019517310891993e-04  3.9319027433397297e-05  1.2736409845589319e-04  2.2270638708554266e-04  6.7867499364036453e-04  9.3922161334248494e-04  2.3744849587426474e-04  2.3762369289848984e-03  1.9647313545578218e-03  1.0019885656058409e-03  4.8596124570667563e-04  5.2312878404360585e-04  6.0897481785437291e-03  7.6707423041541684e-03  1.3441619674412983e-03  2.2435789574748867e-03  2.4098086889821481e-03  1.9615283139301572e-03  1.8763439210128031e-03  5.2866025028390409e-04  7.3723990272872868e-04  1.5789620837432076e-03  1.5710339789633640e-03  1.3770091656448360e-03  1.0365337344691681e-03  6.9140513012785464e-04  4.1867136053221310e-04  2.2443293608947722e-04  9.3573858727627750e-05  1.8161690063119850e-05  1.8848991592723377e-05  3.5339656642881543e-05  4.1615465586157363e-05  4.0649078021322601e-05  3.5443041511198517e-05  2.8649073911812983e-05  1.9499218309804957e-05  -1.4030692812502423e-21  -3.6706165304084821e-19  2.9290409940509788e-02  2.9647091866457607e-02  4.1919964958344144e-02  1.1419116532185218e-02  2.6395541064652476e-02  4.1855798184803131e-02  4.3122721964676598e-02  4.4816916578471012e-02  3.1022263876581916e-02  5.3262940789819430e-03  3.6053988585221179e-02  8.2376756493280134e-02  8.3902925415567722e-02  7.5225056843698179e-02  1.7977324746770043e-01  5.4120662868192435e-02  2.4255648272608815e-02  1.1545024340950756e-01  1.2162127510006440e-02  6.4718638947248844e-02  5.5622301290414171e-02  4.2614489587320906e-02  3.6536773453937181e-02  5.7734274199769597e-03  3.4164167143745450e-03  2.6556980625658970e-02  4.4697843889153280e-02  4.2977983470173745e-02  3.9560337195675220e-02  2.4129602237788494e-02  8.9136429116123433e-02  8.2570997191907095e-02  5.4235238824945305e-02  1.0866411376580896e-01  3.4073191932018868e-02  2.8961324347166726e-02  6.8812845423072456e-03  5.7073018951137235e-02  9.0986954657352723e-02  1.2003420021317919e-01  1.5110220773063590e-01  2.6944151027286003e-02  2.7402492810050760e-02  5.6885564451281167e-03  5.1335763505940851e-02  2.3954507968240214e-02  7.8017147392566908e-04  3.2253375063850821e-02  2.7814873095697197e-02  2.0751247710529094e-02  1.9731409684591087e-02  1.5653576215351422e-03  1.1812796054701761e-02  8.0164852009979148e-03  2.4848910544792678e-02  6.1145384698126203e-03  2.4238065493021577e-03  3.4597382586936147e-03  8.7844723126138415e-04  2.6388886232418010e-04  1.8594001351179555e-04  1.2862855502534682e-04  1.3609851315206348e-04  1.6374384021361865e-04  1.1151091848009180e-04  3.6219839141644639e-05  2.4604145157781140e-04  1.2809328667316756e-03  5.4343966417829556e-05  7.3596343236508803e-04  3.2176617006829914e-03  2.0042359169282202e-04  1.0356022759543352e-03  1.1339732628438731e-03  3.1428312500228401e-03  8.7671161483991820e-03  5.3112999751011884e-03  1.8532623863639463e-03  2.9484682564730408e-03  2.0881801028923186e-03  1.8809491165960696e-03  1.2232537946867779e-03  1.7858923483166734e-04  1.3146120005528099e-03  1.7701431410500508e-03  1.5299419368726269e-03  1.2074727551343424e-03  8.4075531297715222e-04  5.3862630161641333e-04  3.1701112048053946e-04  1.5966525531091214e-04  5.8456961056719304e-05  5.3240069094803148e-06  1.9351813962375716e-05  3.0736334646940948e-05  3.4578619770703203e-05  3.1917840713615525e-05  2.5646515883679106e-05  1.9674293411446837e-05  4.5471499680954138e-21  -2.4521773426942273e-18  8.0991079594171511e-02  6.3603959302072841e-02  1.2850042012961636e-02  9.0772117318346446e-02  7.6372714327547900e-02  1.5735006378214043e-02  1.3543199417804908e-02  2.4922953963485511e-02  5.2918474907181594e-02  3.6409094695397284e-02  1.2300280380428637e-01  1.2944642414879426e-01  2.5995721162076893e-02  7.7260851370061667e-02  2.3240742387866185e-02  3.8908046498948249e-03  1.9252401960015469e-01  2.9147413671647669e-02  5.4738246867717381e-02  2.3270455050057318e-02  9.2465205214873655e-02  1.2300844123380579e-01  1.7018421020633670e-01  1.6175495126061748e-01  6.7440288122954092e-02  9.0361058281879861e-03  5.1792541946926687e-02  1.4029482467217069e-01  9.0185758291978474e-02  1.0464033861283948e-02  2.4254635032128880e-02  9.8264763014246415e-02  1.3838868223644057e-01  7.7210516240374685e-02  4.9363078773394060e-03  8.2601747398579131e-02  4.1092714684287511e-02  4.8499357688942805e-02  9.5961343438690908e-02  1.4126815192843295e-01  7.0662818314567680e-02  1.1832844061983473e-01  3.1610229504801017e-02  5.4251537868566228e-02  5.3486616860685704e-02  1.6390607310477175e-03  7.0659836470322090e-02  1.0985783171673304e-01  4.4808454304314023e-02  5.4985305158408854e-02  4.0856263820509151e-02  4.2215352990788407e-02  2.5670570990569980e-02  2.8176424295944923e-03  1.5673394038223818e-03  2.9249202092186875e-02  7.3870183840994653e-03  1.9609737348929759e-03  2.5927212451810834e-03  4.1315537886763557e-04  3.0318352417062032e-04  1.7236058943180188e-04  8.8572009949657355e-05  3.2283443811500150e-04  4.2164470136935531e-05  2.3419431557301676e-04  1.6902787027281099e-04  6.5031498147806563e-04  1.0840889033789174e-03  5.6327330099953876e-04  2.5139457904954400e-03  2.4627262979792972e-03  1.4877130752913965e-03  3.0990533239492568e-04  3.0249951572526709e-05  6.7438678419192268e-03  9.0187481216869522e-03  1.0691022654961736e-03  3.4833235316952846e-03  2.6995599619422917e-03  1.7169853994152553e-03  1.7806998096669467e-03  4.2164118775143798e-04  5.6100349991741879e-04  1.8050961030412541e-03  1.7443891370730201e-03  1.3737578701595208e-03  1.0007397461706381e-03  6.6926408961301312e-04  4.1702953069578660e-04  2.3325032430339596e-04  1.0421042879644541e-04  2.9706387343475684e-05  5.6188587503163805e-06  2.1222746752968101e-05  2.7870490191036707e-05  2.7743599657935651e-05  2.2893670262331578e-05  1.5126910840343877e-05  -8.3971223532008107e-22  -9.1573543674649570e-19  6.2915798709639453e-02  2.4921624986533997e-02  2.0095612740337582e-02  8.1019171237889112e-02  3.6706002331879754e-02  2.2146110477685544e-02  1.9556470105387514e-02  6.2081827018741077e-02  2.7752297988851076e-02  1.8930366260902796e-02  1.7111633999414958e-02  2.0094645872137103e-02  2.0088952850576814e-02  1.2116013854176125e-01  1.4950614014480907e-02  1.7941838677039257e-01  2.9095501754821881e-03  6.0770183335509952e-02  1.0818023663741584e-01  3.3327263437591247e-03  5.7983868168244586e-02  1.0245590931003001e-01  7.6860316448634633e-03  9.2980042207331786e-03  6.8405840282833072e-02  2.1857989658247201e-02  9.2510383208485973e-03  7.0146672966486481e-02  1.0370082282582670e-01  6.1638282677960794e-02  2.2719647575081412e-02  7.6325830223678365e-02  6.8883696821802565e-02  7.4529878043485140e-02  1.5166254778553645e-01  3.1816684816139817e-03  3.4090017834266122e-02  3.7157081844686511e-03  5.8740447948918730e-02  1.0492730265147317e-01  1.4252465913484821e-01  1.2833118773208047e-01  2.2709311634119898e-02  2.1886559568657517e-02  1.5307072717457858e-02  6.2942566012862786e-02  3.7289228658466268e-02  2.3040062058223475e-02  7.2370913825705804e-02  3.2990217559915346e-03  7.7930570698918717e-03  6.5349333208839198e-03  1.3896184391241285e-02  2.1443752280596987e-02  5.7077131842185403e-03  2.6042297889802699e-02  1.0854741190963578e-02  8.0274553209164160e-03  3.9799198224108549e-03  1.5185948595840026e-03  3.4748376199247719e-04  2.5472797028650718e-04  1.6188474826615165e-04  1.8353945461545678e-04  2.3958767526100185e-04  1.5555654370347319e-04  5.9812220087328546e-05  2.4466602490034447e-04  1.2734765233840580e-03  3.4733599271782454e-05  5.2015455934656439e-04  3.5327511186196126e-03  3.4191188780154541e-04  1.4913344518078045e-03  1.2749620271764741e-03  3.0375523936062468e-03  9.7063612909919425e-03  6.0281978245910958e-03  2.6517531238229590e-03  3.7633867497665120e-03  2.0423743314133382e-03  1.6302550559002106e-03  1.1850569145277232e-03  8.3512815803917661e-05  1.3126542519563151e-03  2.0267921786544861e-03  1.6191837213729513e-03  1.1673130495368394e-03  8.0215260720478264e-04  5.2530311287730610e-04  3.2094749325858608e-04  1.6633531919968200e-04  6.3141595469673134e-05  9.9297725393500700e-06  1.3497658173385553e-05  2.3801205385880766e-05  2.6724725901121171e-05  2.2816578705545933e-05  1.4036150082111522e-05  -7.7916284991272224e-22  -1.5859138746090646e-19  2.4004740161076246e-02  2.8878188373782872e-02  3.5535541234804481e-03  6.4687775044374451e-02  4.5833613798150936e-02  9.1749962242122840e-02  1.6280593717111738e-03  4.1237719612774074e-02  3.3183169573179636e-03  6.1994207281889570e-02  2.4178651472342945e-02  8.7665319287001719e-02  1.0377049173715702e-01  6.5851275100496263e-03  1.7545626135175393e-02  3.5494846696853474e-02  6.9416027537634303e-02  1.6120891005986790e-01  2.2455593271683661e-02  5.2171869966140073e-02  5.4331722400069084e-03  5.1985969085867688e-02  7.7891127842388955e-02  1.4767188263337658e-01  1.3349303299758644e-01  5.1457104047642900e-02  1.4204115666529880e-02  3.0937248412814474e-02  9.3863473181014997e-02  7.0717345468861506e-02  2.9739936811360532e-02  5.5690286912222164e-02  1.0608788135758622e-01  1.6609333657235337e-01  4.6945470160505286e-02  5.1419174461454421e-02  7.7390776932581840e-02  3.3430692927754066e-02  6.1219734296134871e-02  1.0059855869464801e-01  1.3113042506683717e-01  8.6391858149839268e-02  1.2829315653873660e-01  9.8950092560893526e-03  6.5536135216927513e-02  4.4162357655762235e-02  2.2462575921222872e-03  7.4409085793511451e-02  9.3655106346096487e-02  1.8705141214081372e-02  4.3608328839693920e-02  4.0102945678208921e-02  4.0084442386891621e-02  2.0748234680600289e-02  8.9780022573316930e-03  2.9852660425191721e-03  3.3496364895573068e-02  7.1799125613453410e-03  2.0300263583217025e-03  3.4825551034755190e-03  6.4919339771280144e-04  3.5104585230265442e-04  1.8435177953875960e-04  1.0105783567870262e-04  3.1431834725499538e-04  7.7165123871256918e-05  2.2659053071106804e-04  1.3349930122765516e-04  7.2712706857194808e-04  1.0660094745918401e-03  5.4037483897666075e-04  2.4545564750387380e-03  2.7349831324468801e-03  1.5243572591094273e-03  1.4540673888015971e-05  1.9796762855374034e-04  7.0458359050904491e-03  9.8770170783734363e-03  1.2600319831013451e-03  4.4397163939648302e-03  3.2026833717052772e-03  1.5896978111082981e-03  1.5383372419806769e-03  3.9204578506850390e-04  4.7220568923106508e-04  1.9115189288305861e-03  1.9944541150348646e-03  1.4266437501179248e-03  9.6459302617167618e-04  6.4044225458757028e-04  4.1183239496833755e-04  2.4125273370929475e-04  1.1282114139605304e-04  3.5817598331549094e-05  9.0643963911312879e-07  1.7114878857894160e-05  2.4001891252436046e-05  2.3290132973599978e-05  1.5752322908716521e-05  -1.5541100272557863e-21  -4.8355218853379818e-19  2.8569284538924318e-03  1.4030261257028062e-02  2.2538897874963864e-02  4.1015853140256006e-02  2.8423014903044084e-02  8.0483732009817260e-02  8.0670533103233931e-03  2.8269451154882812e-03  5.0559065426194920e-02  1.7437494910452826e-02  9.0861286417983841e-03  8.8023971319178430e-03  2.1110358276097457e-02  3.9106949857970648e-02  7.9096880537154468e-02  6.5945021410387002e-0