<?xml version="1.0"?>
<VTKFile type="UnstructuredGrid"  version="0.1"  >
<UnstructuredGrid>
<Piece  NumberOfPoints="10201" NumberOfCells="20000">
<Points>
<DataArray  type="Float64"  NumberOfComponents="3"  format="ascii">0 0 0  0.01 0 0  0.02 0 0  0.03 0 0  0.04 0 0  0.05 0 0  0.06 0 0  0.07000000000000001 0 0  0.08 0 0  0.09 0 0  0.1 0 0  0.11 0 0  0.12 0 0  0.13 0 0  0.14 0 0  0.15 0 0  0.16 0 0  0.17 0 0  0.18 0 0  0.19 0 0  0.2 0 0  0.21 0 0  0.22 0 0  0.23 0 0  0.24 0 0  0.25 0 0  0.26 0 0  0.27 0 0  0.28 0 0  0.29 0 0  0.3 0 0  0.31 0 0  0.32 0 0  0.33 0 0  0.34 0 0  0.35 0 0  0.36 0 0  0.37 0 0  0.38 0 0  0.39 0 0  0.4 0 0  0.41 0 0  0.42 0 0  0.43 0 0  0.44 0 0  0.45 0 0  0.46 0 0  0.47 0 0  0.48 0 0  0.49 0 0  0.5 0 0  0.51 0 0  0.52 0 0  0.53 0 0  0.54 0 0  0.55 0 0  0.5600000000000001 0 0  0.57 0 0  0.58 0 0  0.59 0 0  0.6 0 0  0.61 0 0  0.62 0 0  0.63 0 0  0.64 0 0  0.65 0 0  0.66 0 0  0.67 0 0  0.68 0 0  0.6899999999999999 0 0  0.7 0 0  0.71 0 0  0.72 0 0  0.73 0 0  0.74 0 0  0.75 0 0  0.76 0 0  0.77 0 0  0.78 0 0  0.79 0 0  0.8 0 0  0.8100000000000001 0 0  0.82 0 0  0.83 0 0  0.84 0 0  0.85 0 0  0.86 0 0  0.87 0 0  0.88 0 0  0.89 0 0  0.9 0 0  0.91 0 0  0.92 0 0  0.93 0 0  0.9399999999999999 0 0  0.95 0 0  0.96 0 0  0.97 0 0  0.98 0 0  0.99 0 0  1 0 0  0 0.01 0  0.01 0.01 0  0.02 0.01 0  0.03 0.01 0  0.04 0.01 0  0.05 0.01 0  0.06 0.01 0  0.07000000000000001 0.01 0  0.08 0.01 0  0.09 0.01 0  0.1 0.01 0  0.11 0.01 0  0.12 0.01 0  0.13 0.01 0  0.14 0.01 0  0.15 0.01 0  0.16 0.01 0  0.17 0.01 0  0.18 0.01 0  0.19 0.01 0  0.2 0.01 0  0.21 0.01 0  0.22 0.01 0  0.23 0.01 0  0.24 0.01 0  0.25 0.01 0  0.26 0.01 0  0.27 0.01 0  0.28 0.01 0  0.29 0.01 0  0.3 0.01 0  0.31 0.01 0  0.32 0.01 0  0.33 0.01 0  0.34 0.01 0  0.35 0.01 0  0.36 0.01 0  0.37 0.01 0  0.38 0.01 0  0.39 0.01 0  0.4 0.01 0  0.41 0.01 0  0.42 0.01 0  0.43 0.01 0  0.44 0.01 0  0.45 0.01 0  0.46 0.01 0  0.47 0.01 0  0.48 0.01 0  0.49 0.01 0  0.5 0.01 0  0.51 0.01 0  0.52 0.01 0  0.53 0.01 0  0.54 0.01 0  0.55 0.01 0  0.5600000000000001 0.01 0  0.57 0.01 0  0.58 0.01 0  0.59 0.01 0  0.6 0.01 0  0.61 0.01 0  0.62 0.01 0  0.63 0.01 0  0.64 0.01 0  0.65 0.01 0  0.66 0.01 0  0.67 0.01 0  0.68 0.01 0  0.6899999999999999 0.01 0  0.7 0.01 0  0.71 0.01 0  0.72 0.01 0  0.73 0.01 0  0.74 0.01 0  0.75 0.01 0  0.76 0.01 0  0.77 0.01 0  0.78 0.01 0  0.79 0.01 0  0.8 0.01 0  0.8100000000000001 0.01 0  0.82 0.01 0  0.83 0.01 0  0.84 0.01 0  0.85 0.01 0  0.86 0.01 0  0.87 0.01 0  0.88 0.01 0  0.89 0.01 0  0.9 0.01 0  0.91 0.01 0  0.92 0.01 0  0.93 0.01 0  0.9399999999999999 0.01 0  0.95 0.01 0  0.96 0.01 0  0.97 0.01 0  0.98 0.01 0  0.99 0.01 0  1 0.01 0  0 0.02 0  0.01 0.02 0  0.02 0.02 0  0.03 0.02 0  0.04 0.02 0  0.05 0.02 0  0.06 0.02 0  0.07000000000000001 0.02 0  0.08 0.02 0  0.09 0.02 0  0.1 0.02 0  0.11 0.02 0  0.12 0.02 0  0.13 0.02 0  0.14 0.02 0  0.15 0.02 0  0.16 0.02 0  0.17 0.02 0  0.18 0.02 0  0.19 0.02 0  0.2 0.02 0  0.21 0.02 0  0.22 0.02 0  0.23 0.02 0  0.24 0.02 0  0.25 0.02 0  0.26 0.02 0  0.27 0.02 0  0.28 0.02 0  0.29 0.02 0  0.3 0.02 0  0.31 0.02 0  0.32 0.02 0  0.33 0.02 0  0.34 0.02 0  0.35 0.02 0  0.36 0.02 0  0.37 0.02 0  0.38 0.02 0  0.39 0.02 0  0.4 0.02 0  0.41 0.02 0  0.42 0.02 0  0.43 0.02 0  0.44 0.02 0  0.45 0.02 0  0.46 0.02 0  0.47 0.02 0  0.48 0.02 0  0.49 0.02 0  0.5 0.02 0  0.51 0.02 0  0.52 0.02 0  0.53 0.02 0  0.54 0.02 0  0.55 0.02 0  0.5600000000000001 0.02 0  0.57 0.02 0  0.58 0.02 0  0.59 0.02 0  0.6 0.02 0  0.61 0.02 0  0.62 0.02 0  0.63 0.02 0  0.64 0.02 0  0.65 0.02 0  0.66 0.02 0  0.67 0.02 0  0.68 0.02 0  0.6899999999999999 0.02 0  0.7 0.02 0  0.71 0.02 0  0.72 0.02 0  0.73 0.02 0  0.74 0.02 0  0.75 0.02 0  0.76 0.02 0  0.77 0.02 0  0.78 0.02 0  0.79 0.02 0  0.8 0.02 0  0.8100000000000001 0.02 0  0.82 0.02 0  0.83 0.02 0  0.84 0.02 0  0.85 0.02 0  0.86 0.02 0  0.87 0.02 0  0.88 0.02 0  0.89 0.02 0  0.9 0.02 0  0.91 0.02 0  0.92 0.02 0  0.93 0.02 0  0.9399999999999999 0.02 0  0.95 0.02 0  0.96 0.02 0  0.97 0.02 0  0.98 0.02 0  0.99 0.02 0  1 0.02 0  0 0.03 0  0.01 0.03 0  0.02 0.03 0  0.03 0.03 0  0.04 0.03 0  0.05 0.03 0  0.06 0.03 0  0.07000000000000001 0.03 0  0.08 0.03 0  0.09 0.03 0  0.1 0.03 0  0.11 0.03 0  0.12 0.03 0  0.13 0.03 0  0.14 0.03 0  0.15 0.03 0  0.16 0.03 0  0.17 0.03 0  0.18 0.03 0  0.19 0.03 0  0.2 0.03 0  0.21 0.03 0  0.22 0.03 0  0.23 0.03 0  0.24 0.03 0  0.25 0.03 0  0.26 0.03 0  0.27 0.03 0  0.28 0.03 0  0.29 0.03 0  0.3 0.03 0  0.31 0.03 0  0.32 0.03 0  0.33 0.03 0  0.34 0.03 0  0.35 0.03 0  0.36 0.03 0  0.37 0.03 0  0.38 0.03 0  0.39 0.03 0  0.4 0.03 0  0.41 0.03 0  0.42 0.03 0  0.43 0.03 0  0.44 0.03 0  0.45 0.03 0  0.46 0.03 0  0.47 0.03 0  0.48 0.03 0  0.49 0.03 0  0.5 0.03 0  0.51 0.03 0  0.52 0.03 0  0.53 0.03 0  0.54 0.03 0  0.55 0.03 0  0.5600000000000001 0.03 0  0.57 0.03 0  0.58 0.03 0  0.59 0.03 0  0.6 0.03 0  0.61 0.03 0  0.62 0.03 0  0.63 0.03 0  0.64 0.03 0  0.65 0.03 0  0.66 0.03 0  0.67 0.03 0  0.68 0.03 0  0.6899999999999999 0.03 0  0.7 0.03 0  0.71 0.03 0  0.72 0.03 0  0.73 0.03 0  0.74 0.03 0  0.75 0.03 0  0.76 0.03 0  0.77 0.03 0  0.78 0.03 0  0.79 0.03 0  0.8 0.03 0  0.8100000000000001 0.03 0  0.82 0.03 0  0.83 0.03 0  0.84 0.03 0  0.85 0.03 0  0.86 0.03 0  0.87 0.03 0  0.88 0.03 0  0.89 0.03 0  0.9 0.03 0  0.91 0.03 0  0.92 0.03 0  0.93 0.03 0  0.9399999999999999 0.03 0  0.95 0.03 0  0.96 0.03 0  0.97 0.03 0  0.98 0.03 0  0.99 0.03 0  1 0.03 0  0 0.04 0  0.01 0.04 0  0.02 0.04 0  0.03 0.04 0  0.04 0.04 0  0.05 0.04 0  0.06 0.04 0  0.07000000000000001 0.04 0  0.08 0.04 0  0.09 0.04 0  0.1 0.04 0  0.11 0.04 0  0.12 0.04 0  0.13 0.04 0  0.14 0.04 0  0.15 0.04 0  0.16 0.04 0  0.17 0.04 0  0.18 0.04 0  0.19 0.04 0  0.2 0.04 0  0.21 0.04 0  0.22 0.04 0  0.23 0.04 0  0.24 0.04 0  0.25 0.04 0  0.26 0.04 0  0.27 0.04 0  0.28 0.04 0  0.29 0.04 0  0.3 0.04 0  0.31 0.04 0  0.32 0.04 0  0.33 0.04 0  0.34 0.04 0  0.35 0.04 0  0.36 0.04 0  0.37 0.04 0  0.38 0.04 0  0.39 0.04 0  0.4 0.04 0  0.41 0.04 0  0.42 0.04 0  0.43 0.04 0  0.44 0.04 0  0.45 0.04 0  0.46 0.04 0  0.47 0.04 0  0.48 0.04 0  0.49 0.04 0  0.5 0.04 0  0.51 0.04 0  0.52 0.04 0  0.53 0.04 0  0.54 0.04 0  0.55 0.04 0  0.5600000000000001 0.04 0  0.57 0.04 0  0.58 0.04 0  0.59 0.04 0  0.6 0.04 0  0.61 0.04 0  0.62 0.04 0  0.63 0.04 0  0.64 0.04 0  0.65 0.04 0  0.66 0.04 0  0.67 0.04 0  0.68 0.04 0  0.6899999999999999 0.04 0  0.7 0.04 0  0.71 0.04 0  0.72 0.04 0  0.73 0.04 0  0.74 0.04 0  0.75 0.04 0  0.76 0.04 0  0.77 0.04 0  0.78 0.04 0  0.79 0.04 0  0.8 0.04 0  0.8100000000000001 0.04 0  0.82 0.04 0  0.83 0.04 0  0.84 0.04 0  0.85 0.04 0  0.86 0.04 0  0.87 0.04 0  0.88 0.04 0  0.89 0.04 0  0.9 0.04 0  0.91 0.04 0  0.92 0.04 0  0.93 0.04 0  0.9399999999999999 0.04 0  0.95 0.04 0  0.96 0.04 0  0.97 0.04 0  0.98 0.04 0  0.99 0.04 0  1 0.04 0  0 0.05 0  0.01 0.05 0  0.02 0.05 0  0.03 0.05 0  0.04 0.05 0  0.05 0.05 0  0.06 0.05 0  0.07000000000000001 0.05 0  0.08 0.05 0  0.09 0.05 0  0.1 0.05 0  0.11 0.05 0  0.12 0.05 0  0.13 0.05 0  0.14 0.05 0  0.15 0.05 0  0.16 0.05 0  0.17 0.05 0  0.18 0.05 0  0.19 0.05 0  0.2 0.05 0  0.21 0.05 0  0.22 0.05 0  0.23 0.05 0  0.24 0.05 0  0.25 0.05 0  0.26 0.05 0  0.27 0.05 0  0.28 0.05 0  0.29 0.05 0  0.3 0.05 0  0.31 0.05 0  0.32 0.05 0  0.33 0.05 0  0.34 0.05 0  0.35 0.05 0  0.36 0.05 0  0.37 0.05 0  0.38 0.05 0  0.39 0.05 0  0.4 0.05 0  0.41 0.05 0  0.42 0.05 0  0.43 0.05 0  0.44 0.05 0  0.45 0.05 0  0.46 0.05 0  0.47 0.05 0  0.48 0.05 0  0.49 0.05 0  0.5 0.05 0  0.51 0.05 0  0.52 0.05 0  0.53 0.05 0  0.54 0.05 0  0.55 0.05 0  0.5600000000000001 0.05 0  0.57 0.05 0  0.58 0.05 0  0.59 0.05 0  0.6 0.05 0  0.61 0.05 0  0.62 0.05 0  0.63 0.05 0  0.64 0.05 0  0.65 0.05 0  0.66 0.05 0  0.67 0.05 0  0.68 0.05 0  0.6899999999999999 0.05 0  0.7 0.05 0  0.71 0.05 0  0.72 0.05 0  0.73 0.05 0  0.74 0.05 0  0.75 0.05 0  0.76 0.05 0  0.77 0.05 0  0.78 0.05 0  0.79 0.05 0  0.8 0.05 0  0.8100000000000001 0.05 0  0.82 0.05 0  0.83 0.05 0  0.84 0.05 0  0.85 0.05 0  0.86 0.05 0  0.87 0.05 0  0.88 0.05 0  0.89 0.05 0  0.9 0.05 0  0.91 0.05 0  0.92 0.05 0  0.93 0.05 0  0.9399999999999999 0.05 0  0.95 0.05 0  0.96 0.05 0  0.97 0.05 0  0.98 0.05 0  0.99 0.05 0  1 0.05 0  0 0.06 0  0.01 0.06 0  0.02 0.06 0  0.03 0.06 0  0.04 0.06 0  0.05 0.06 0  0.06 0.06 0  0.07000000000000001 0.06 0  0.08 0.06 0  0.09 0.06 0  0.1 0.06 0  0.11 0.06 0  0.12 0.06 0  0.13 0.06 0  0.14 0.06 0  0.15 0.06 0  0.16 0.06 0  0.17 0.06 0  0.18 0.06 0  0.19 0.06 0  0.2 0.06 0  0.21 0.06 0  0.22 0.06 0  0.23 0.06 0  0.24 0.06 0  0.25 0.06 0  0.26 0.06 0  0.27 0.06 0  0.28 0.06 0  0.29 0.06 0  0.3 0.06 0  0.31 0.06 0  0.32 0.06 0  0.33 0.06 0  0.34 0.06 0  0.35 0.06 0  0.36 0.06 0  0.37 0.06 0  0.38 0.06 0  0.39 0.06 0  0.4 0.06 0  0.41 0.06 0  0.42 0.06 0  0.43 0.06 0  0.44 0.06 0  0.45 0.06 0  0.46 0.06 0  0.47 0.06 0  0.48 0.06 0  0.49 0.06 0  0.5 0.06 0  0.51 0.06 0  0.52 0.06 0  0.53 0.06 0  0.54 0.06 0  0.55 0.06 0  0.5600000000000001 0.06 0  0.57 0.06 0  0.58 0.06 0  0.59 0.06 0  0.6 0.06 0  0.61 0.06 0  0.62 0.06 0  0.63 0.06 0  0.64 0.06 0  0.65 0.06 0  0.66 0.06 0  0.67 0.06 0  0.68 0.06 0  0.6899999999999999 0.06 0  0.7 0.06 0  0.71 0.06 0  0.72 0.06 0  0.73 0.06 0  0.74 0.06 0  0.75 0.06 0  0.76 0.06 0  0.77 0.06 0  0.78 0.06 0  0.79 0.06 0  0.8 0.06 0  0.8100000000000001 0.06 0  0.82 0.06 0  0.83 0.06 0  0.84 0.06 0  0.85 0.06 0  0.86 0.06 0  0.87 0.06 0  0.88 0.06 0  0.89 0.06 0  0.9 0.06 0  0.91 0.06 0  0.92 0.06 0  0.93 0.06 0  0.9399999999999999 0.06 0  0.95 0.06 0  0.96 0.06 0  0.97 0.06 0  0.98 0.06 0  0.99 0.06 0  1 0.06 0  0 0.07000000000000001 0  0.01 0.07000000000000001 0  0.02 0.07000000000000001 0  0.03 0.07000000000000001 0  0.04 0.07000000000000001 0  0.05 0.07000000000000001 0  0.06 0.07000000000000001 0  0.07000000000000001 0.07000000000000001 0  0.08 0.07000000000000001 0  0.09 0.07000000000000001 0  0.1 0.07000000000000001 0  0.11 0.07000000000000001 0  0.12 0.07000000000000001 0  0.13 0.07000000000000001 0  0.14 0.07000000000000001 0  0.15 0.07000000000000001 0  0.16 0.07000000000000001 0  0.17 0.0700
[...]
<PointData  Scalars="Indicator Function"> 
<DataArray  type="Float64"  Name="Indicator Function"  format="ascii">-9.8283663329896224e-19  1.3989372562555618e-17  6.6617542001074157e-17  1.9826358515923820e-18  1.4361847285805458e-16  -3.6886474672451498e-19  -6.1964790232513959e-19  1.2547494355335339e-16  4.2793914223543101e-16  -2.3645614005344583e-19  1.7615362926831840e-16  1.3492058747320922e-16  -4.2745181732582112e-19  -2.9150079357773648e-18  3.3201203431667554e-16  -1.8600741548818773e-18  -6.1257111100694837e-18  5.1741793473640214e-16  -1.9205109102415191e-18  -2.4021929829470056e-18  1.4202031847545506e-15  -2.8028275669539830e-18  -2.3194609062377620e-18  7.1648971696963795e-16  -2.7868835350508811e-19  -2.0334281552787467e-18  -1.4726236130286987e-18  -8.0424965133875981e-19  8.9533198003580811e-17  -2.1459349618945510e-18  -3.0041879854507520e-18  -1.7705129293759118e-18  -1.9984560881405049e-18  -3.5416844505873931e-18  5.9039874687554966e-17  -9.6821577235345823e-19  -4.7438326806355653e-18  -6.9182901158916102e-18  -6.6546893474248425e-18  -9.8270495019422140e-18  1.0612422228288799e-15  -1.1016552809581452e-18  -2.7314072287275344e-18  -3.4948744581672585e-18  -2.0002322185643243e-18  -1.0001161092821256e-18  2.1169634467694128e-16  -1.4947066098708695e-18  -1.7378165105433736e-19  -9.4714095709262139e-19  -4.7357047854631069e-19  -4.8715014567403970e-19  -1.7100501142385122e-19  -1.1864536210117815e-18  -9.2778282486164895e-19  -7.2222372914521344e-34  1.5777218104420236e-30  -5.9532597789020535e-20  -1.8650244438567642e-20  -6.7677751819178754e-21  -9.9380576542828748e-21  -4.6477999658927780e-20  -4.5138983071575840e-36  -1.5046327690525280e-36  -6.3025212100447719e-22  -5.0490081241923321e-20  -8.1202350261033022e-20  -3.4907480242018650e-34  2.2105512554404862e-17  -2.2006970426402186e-19  3.0092655381050560e-36  6.0185310762101120e-36  -2.9660422312231785e-20  -3.1572899059980459e-19  -8.3471866563839047e-19  -4.1853476742980549e-19  -1.1447444817993311e-19  -2.9330322112065811e-19  -2.0728297867516969e-19  -1.3395157135079730e-19  -5.7174270146537935e-20  1.6085750333575110e-19  -1.0027936305799608e-19  -1.9012198108976402e-19  -1.7214040660637071e-19  -1.0333681953076632e-19  -4.7516197431446790e-20  -2.4118435583241174e-20  -2.4458769707074100e-20  -1.1154286984117273e-20  -3.2142592057607822e-22  -1.4931039927143210e-21  -9.9858590119394854e-23  2.1889480115444775e-18  -8.4499453529450971e-23  -1.0386708041098305e-21  -1.8916895932159545e-21  -1.4376207181915031e-21  -2.1197221787160241e-21  -3.2082060738908866e-22  1.8807909613156600e-37  7.7037197775489434e-34  1.7705210781965144e-02  6.8280057305555669e-02  2.1994904102591067e-02  1.5182164685530091e-02  1.1657201964503735e-02  6.6448765435945514e-03  1.1162584248049646e-02  5.5628715260615705e-02  5.9444789536849285e-02  4.2596151369365979e-03  9.0921421790138679e-02  1.5400574761819240e-02  6.6962885170121028e-02  1.9030672028335339e-02  1.1138757088759146e-01  9.2456830080370478e-02  6.4122586050567823e-02  6.9193697757797379e-02  8.6548123382976336e-02  1.8947887748361952e-02  9.3842667541539901e-02  5.0491252744470846e-02  1.6538066719895658e-02  1.0040806119984076e-02  7.3261970259184281e-02  5.3056857239144301e-02  2.8911344695412813e-02  3.2401372622214589e-05  1.2838343633436099e-02  3.2238555762280408e-02  6.3789450951935986e-02  3.4792357519578383e-02  1.8604805615674305e-02  5.4498912279879901e-02  4.4118955108523497e-02  1.3849313915053374e-02  7.8532635413746554e-02  1.6217344488098850e-01  1.5241146868694694e-01  1.1036928578741956e-01  4.9472030080067862e-02  1.9845657251255359e-02  6.9760067337393331e-02  3.4231871294368235e-02  3.6032980296723006e-02  4.1136203926804144e-02  2.2395239154656731e-03  2.5806478567237820e-02  3.1305719157285693e-03  1.7062174645718658e-02  5.2292240246175964e-03  6.1611048458155510e-03  4.7966859843234528e-03  1.8974905349762410e-02  8.5841211451915204e-03  7.6384941189519150e-04  2.1448878817522435e-03  6.7194587123121550e-04  2.4383479829930138e-04  3.5805626198891867e-04  3.5964450864868583e-04  6.5745095345514954e-04  9.9311856646766176e-05  2.0901668672123489e-05  4.2999386799680392e-04  1.3205679507999764e-03  8.0252752210879905e-04  1.2305304906251539e-03  3.2535907723777271e-03  2.3376279662870717e-03  4.2836086986637362e-04  1.0686293349841489e-03  1.9121431459950186e-03  9.1871408986136539e-03  1.0909156475225598e-02  4.2647403565398692e-03  2.0621883286663597e-03  4.2525869450490668e-03  3.9853467491059629e-03  2.7092262042544067e-03  1.4348344180075453e-03  1.3871287343080879e-03  2.5332276947432298e-03  3.2563288068573055e-03  2.8805817593747850e-03  1.9992971016766976e-03  1.1398728629537964e-03  7.1548772145526912e-04  4.2422626503332822e-04  1.6128693050880227e-04  1.3711822503440737e-05  3.5169129891992068e-05  4.0622691831216913e-05  2.3242218976259443e-05  1.5222068297129818e-06  1.7949926370542098e-05  2.5102687003161019e-05  3.2378853895975670e-05  3.2860573411875627e-05  -1.0577257418385036e-22  -7.2120046846987828e-19  1.0798585756186450e-02  1.4272124380376890e-02  2.5925216219233129e-02  2.6986026659497505e-02  5.7521481828858315e-02  5.2485665472827327e-03  5.5332467955861157e-02  8.5903069423954159e-03  4.1588465034233288e-02  9.1994408738498179e-02  6.2167769960897998e-02  2.5970348671026686e-02  1.2051950349696079e-01  1.2215705752350380e-01  1.5674295016904735e-01  4.8958527883721285e-02  1.2752962121990558e-01  9.2721180792498612e-03  4.2511632148844930e-02  2.0015311646726573e-02  1.2069024490133197e-01  4.3935032661373878e-02  1.4081529472549113e-02  1.5981581719208972e-02  1.1245941601700621e-02  5.4614495779180972e-03  1.9864377992013134e-02  1.9263643462527298e-02  7.8977716243288296e-03  1.0202639765356326e-01  5.8292778360279879e-02  5.9246822271183663e-02  5.1289435309831093e-02  8.0778564113634724e-02  4.8938078967021063e-02  6.6047421827574735e-03  7.5862645933059830e-02  1.3182459972905625e-01  1.5820780930050227e-01  2.0858165891735750e-01  8.0417054656980125e-02  2.9171940362543235e-02  3.7366384018712978e-02  6.0035514522522593e-02  7.2201682173027486e-03  1.7186507179403673e-02  7.4516610306634150e-04  5.0460868402153809e-02  1.8220127980612535e-02  2.7249204462875345e-02  2.0322329286862947e-03  2.7857687905006672e-03  1.0364881016891926e-02  2.6873200811170905e-02  1.1658194670761868e-02  3.8142305364658059e-03  1.3645192348625170e-03  1.8657897180625145e-03  1.4335770346260786e-03  6.2383034870669863e-04  7.8046113052837585e-04  1.3310033066396610e-03  3.4458697461221896e-05  1.7660016549406123e-04  2.0293384500982131e-04  1.1111228990235286e-03  1.5543976963132567e-03  4.8579272840639073e-04  3.0513037340814393e-03  3.9871201464206736e-03  5.9894401292291926e-04  9.5260942316420375e-04  5.6913454011845127e-04  7.2081818902688440e-03  1.3869618761246937e-02  8.4452674304587617e-03  1.8858808860605712e-04  4.1560895145238514e-03  4.7246521901874033e-03  3.9182927281460845e-03  2.2110079646897578e-03  1.3824620221724044e-03  2.3441950974886316e-03  3.6241747472855546e-03  3.6118048558797127e-03  2.7264152096010325e-03  1.6700484460281182e-03  9.6430180176067042e-04  6.4271078184907106e-04  2.7732455697511698e-04  3.7081623413826204e-05  5.2931562306996625e-05  7.1943195286940643e-05  6.2297187797609539e-05  2.9259157680140706e-05  3.8430012236411067e-06  1.1014331065003394e-05  2.1017197371435150e-05  3.7776277185374234e-05  2.1956954550506866e-21  2.1185229388259594e-33  5.1069583922628718e-02  3.7956422468887148e-02  1.1690078704084426e-01  3.7766549358054513e-02  1.4726227764783809e-02  2.0838374142023126e-02  4.6160392729502953e-02  3.1616842652604310e-02  8.4545288157404405e-02  1.7228876241666496e-01  9.7699996689711424e-02  1.2955069332789915e-01  8.7593748817871755e-02  6.8287177571198926e-02  5.2982139795120314e-02  2.1019095242972921e-01  9.1898547549156787e-02  8.3701406132840092e-02  7.1115842822379996e-02  1.7596758616484429e-01  1.3426071512209617e-01  2.0556788743246179e-01  1.5669566922154637e-01  2.1030448318764095e-02  6.4264686868039265e-03  1.2008856223353442e-01  1.6171215115832990e-01  9.7781537782872976e-02  1.2602609160911453e-02  4.4562388507253083e-03  7.3113495134593448e-02  1.1736746719127159e-01  9.4777806709808399e-02  2.3489786423096945e-02  8.4324467133607708e-02  6.0028426387653558e-02  2.9235651561896794e-02  1.1090777866251310e-01  2.1608598574457774e-01  1.3784858881512652e-01  1.2851294999264620e-01  6.2646555979556109e-02  4.3514620998505789e-02  9.3934419422849066e-02  1.9138318678762412e-02  7.6504773553540351e-02  1.1241496246914955e-01  4.2976506323015952e-02  5.6040648064555908e-02  2.7147050849763668e-02  4.1195266515093594e-02  2.1808638615947742e-02  2.1927464818371710e-03  6.6656165605497447e-03  2.9291780144358553e-02  1.7870253024531973e-03  1.9033988931300863e-04  5.0422229860354060e-03  1.7372641718012658e-03  5.5327831434088138e-04  5.2098165346700057e-04  4.2512516293275832e-04  1.0887087992082101e-03  2.1006989749532641e-04  1.8057690283865418e-04  5.3584541795012456e-04  1.8446931225430537e-03  6.0196482709105675e-04  1.2878268702394601e-03  4.7194647519336807e-03  2.3235032654255481e-03  4.3334278101381056e-04  2.2254014122908847e-03  2.6231315773743873e-03  1.2943069094330148e-02  1.2939482491805715e-02  2.4309389103376725e-03  3.3846066055690919e-03  4.3671497602321184e-03  4.2126729889346267e-03  2.9691868730558203e-03  1.4369069409053469e-03  1.7160364062161545e-03  3.2927985271555380e-03  3.9067752007669087e-03  3.1356939073370056e-03  2.1146696285380302e-03  1.1823047052524928e-03  8.1560333270048622e-04  4.7308313753978231e-04  1.1614531396222308e-04  3.7329431077372963e-05  7.6584452630529260e-05  8.3194609920900857e-05  6.1519838152244879e-05  2.7954612349311245e-05  1.0822097893378268e-05  5.0126677602737825e-06  4.3235069315579398e-06  -1.0532429383367696e-35  -4.2843077885343312e-19  4.4004719202848305e-02  4.2428162691467333e-02  5.8800996450580116e-02  2.2142774610512485e-02  4.3285989983710471e-02  5.4687978669179092e-02  5.6796277424286050e-02  6.5203773636604456e-02  3.0449055652828995e-02  5.1457340846496899e-03  5.8388504559483384e-02  1.0872186844137668e-01  1.2920098584396930e-01  1.2368700169952741e-01  2.5254780369785373e-01  9.6063126298366039e-02  1.8502204168678465e-02  1.5010822269481902e-01  1.3919127019803553e-03  1.0450961865949911e-01  1.0983978780060630e-01  8.4962429792655864e-02  2.8810378024634344e-02  5.0752975817560969e-02  2.3054011663999088e-02  3.4143710636261954e-02  7.7088258775337717e-02  3.0690341917755486e-02  3.7643678233992270e-02  1.7463855021603931e-02  1.1526081194988447e-01  1.0212120541081771e-01  9.2374501269824563e-02  1.4132783073255945e-01  5.6981445578017952e-02  2.9568308194666406e-02  6.8226833665959892e-03  7.3881275300136245e-02  1.2292920701964789e-01  1.8863602110068026e-01  2.2027491502669791e-01  3.8980716770748942e-02  3.8893737403301994e-02  1.7063219722355364e-02  7.8654249470833035e-02  1.9022241202052436e-02  8.2708560099595315e-03  3.4760633045293275e-02  4.0043716373505366e-02  2.5286845446656405e-02  2.9447422578014103e-02  3.7096239013064991e-03  1.0535846962931481e-02  1.1226174103340012e-02  3.6544943268561628e-02  1.0497905588571046e-02  1.2180836158742592e-03  1.9638674063396418e-03  3.9503343549263823e-03  2.5574967118513875e-03  1.4240603331643418e-03  1.1370831304414783e-03  1.9347292193763119e-03  1.1999850976560285e-05  2.2383945614379923e-04  7.1304213418778669e-05  1.1285914153833191e-03  1.8504448585923939e-03  2.5418024287322116e-04  3.4373004069207114e-03  4.7728957492790556e-03  3.5962820762259676e-04  8.2697411740576649e-04  1.8283790461396923e-03  8.2685951247196635e-03  1.6221975965223241e-02  7.7125279146754181e-03  2.4226527973371741e-03  4.4870709321997307e-03  4.0923242285758428e-03  3.6664752345709349e-03  1.9168040242324691e-03  1.1400487470239612e-03  2.5219508786649297e-03  3.9437301376336583e-03  3.6496841298102071e-03  2.5395818307702902e-03  1.5195602060435556e-03  8.9833565944095952e-04  6.8528114980349148e-04  2.7318169826726454e-04  5.7863450634984421e-06  6.5794490146992303e-05  7.9116898612104615e-05  7.5645108933709450e-05  4.3115082863339986e-05  1.9671798589834298e-05  1.0233402832644349e-05  8.8011233966077538e-06  -3.6478708942382035e-21  -3.5005662233821240e-18  1.2576222508880483e-01  9.4564536022170451e-02  1.5769949277251102e-02  1.3615641884414198e-01  1.1060580705505435e-01  2.2991167648537952e-02  1.5937590860536796e-02  4.2342855310948654e-02  8.2893379389201813e-02  6.7861639949325189e-02  1.8438092700375980e-01  1.9883337801300074e-01  4.8727610178699490e-02  1.0716404355373738e-01  4.0424006378253663e-02  9.5369664688841529e-03  2.7873622515564356e-01  4.3120858691077499e-02  8.6283764385801764e-02  2.5033126230456650e-02  1.4375704569455741e-01  1.7182163852128246e-01  2.7044830757623273e-01  2.1772556856834521e-01  5.9909945040995019e-02  2.1328120183762778e-02  8.1304918101181470e-02  1.8648450493642113e-01  1.4581899553938502e-01  1.6378275396456267e-03  6.2663723113081382e-03  1.3555222702989952e-01  1.7129660889652562e-01  7.7547002510548912e-02  9.3602673390391390e-03  1.1683361756786105e-01  5.7601751515938646e-02  5.0846723004055690e-02  1.2985583647293045e-01  2.0596106603726821e-01  1.1428279791960239e-01  1.6777076372722330e-01  4.8198161235934574e-02  7.9029935250994818e-02  8.2881443619881506e-02  7.9001770136440004e-03  8.9228017511808103e-02  1.3815250402478557e-01  6.5598912710575302e-02  7.7486931872458045e-02  5.1665546190284579e-02  5.8918935417140411e-02  3.1109426877507739e-02  9.1988117317962287e-04  3.9523139065315051e-03  3.9676357837431286e-02  4.5620308170063037e-03  1.4588455035764042e-03  6.8964456417122235e-03  1.4813562286032204e-03  3.3408196268833976e-04  1.9519442558717099e-04  3.3336799532574966e-04  1.6805465638203736e-03  3.9058127657377076e-04  4.4885928325131419e-04  4.6552295445404082e-04  1.8892500450232014e-03  6.3147364565386947e-04  6.4828963230186779e-04  5.4717437323826340e-03  2.4989144896851246e-03  1.5009700305278018e-03  2.8422291649408036e-03  2.0207302886095309e-03  1.4507939395116808e-02  1.4346705035918597e-02  8.7342236726975107e-04  4.7026802419854984e-03  4.1734486905849223e-03  3.7787682423934656e-03  2.9322193610070223e-03  1.1627890296244205e-03  1.6509817865699539e-03  3.5039178735255592e-03  4.0742462374213839e-03  3.0554590783316944e-03  1.9541418003968343e-03  1.0731000202456238e-03  7.9588559446669026e-04  4.9306850652957365e-04  9.2691374134158154e-05  5.8529919759377433e-05  7.9029566274854134e-05  8.1383008338088456e-05  6.0156478103695324e-05  2.4532461080497840e-05  1.0075654049266236e-05  7.8870969636136359e-06  2.2569491535787920e-36  -1.1838084034363616e-18  9.9771588987982038e-02  3.8901255578191005e-02  3.4294611393633052e-02  1.2046636873281101e-01  4.9484041391362796e-02  3.8445393485686687e-02  2.2463019124936302e-02  8.4939846973707919e-02  3.6627389662043604e-02  1.0792816046798239e-02  2.6201605786055251e-02  2.4214505776777147e-02  1.6216637484683570e-02  1.8325002871595716e-01  2.7917984687642391e-02  2.5525081030133168e-01  6.8835324010696171e-03  6.1456960278154192e-02  1.5104749454696748e-01  2.6099547480581849e-02  8.4979976753366077e-02  1.8661287527670417e-01  2.1807132335361426e-03  3.2227412602363621e-02  1.3218238749201786e-01  5.3070373698918254e-02  2.9989373518224663e-03  1.1356356589794260e-01  1.2038433487268935e-01  7.0637078560949154e-02  2.3222058941571384e-02  8.6273118668794294e-02  8.4689839623276780e-02  1.0789317088261657e-01  1.9711288477295288e-01  7.8010929118883972e-03  3.3884910371101772e-02  2.2271943960381776e-02  7.1872302896142201e-02  1.4067999013366064e-01  2.2138319295535472e-01  1.8549109584082443e-01  3.1941845814920801e-02  2.6730389297596989e-02  2.5985406910077814e-02  9.4331568358428236e-02  3.5923882775113922e-02  3.5500800239951662e-02  8.6940562889178702e-02  4.9263287256354092e-03  7.3999766590306625e-03  1.2327864577254995e-02  2.0147378750351778e-02  2.3493279381853738e-02  7.2768481692965722e-03  3.7596482214854537e-02  1.5609207481423379e-02  8.4130620153460445e-03  2.6432886791379691e-03  5.6397736067143878e-03  3.0314376040077146e-03  1.6163197714047350e-03  1.1359497817818936e-03  2.0412131136168113e-03  2.7370647855403030e-04  8.9970620231266731e-05  1.3068473599735898e-04  1.1172571703522089e-03  1.9777736006699699e-03  5.2666381645444422e-04  3.2527773729587772e-03  5.5208324179120980e-03  7.3216914048128781e-04  1.3281686240522328e-04  2.6819261020502622e-03  8.7015675211300093e-03  1.7971988863515066e-02  7.8483479861666053e-03  4.3473429204793938e-03  4.9940597436048803e-03  3.5533639396992060e-03  3.3796125858455866e-03  1.9219637474534661e-03  1.0008984428818265e-03  2.7363747390945371e-03  4.2102899517310411e-03  3.7190249381713089e-03  2.4078010584294499e-03  1.3925682748835695e-03  8.4837846091129210e-04  6.9827052643046754e-04  2.7020539235531597e-04  2.9128380716950661e-05  8.8830760821056290e-05  8.9639844350205693e-05  8.2418574457900529e-05  4.5941270315682638e-05  1.7692324465143944e-05  6.8024393535984925e-06  3.0092655381050560e-36  2.5037089277034066e-33  4.3432490476651292e-02  4.5524987460109571e-02  1.2709972626042005e-02  9.6565644033764886e-02  6.7714508447649729e-02  1.3606186170679629e-01  1.2834886280564952e-03  5.5283125358664774e-02  1.0029024516852765e-02  9.3301607350119400e-02  4.7414680752103727e-02  1.2953593759139154e-01  1.6405205166079914e-01  2.1687418210269501e-03  1.7545677466282578e-02  6.1350022206620863e-02  9.4585674982541779e-02  2.3781687671983961e-01  1.6344510203973307e-02  7.3337743318294235e-02  1.4914198886802770e-02  7.4138954565800899e-02  9.6174556892890103e-02  2.4441627894613840e-01  1.8443444957701058e-01  3.5991241101790958e-02  1.7863302964576028e-02  4.7099844201529850e-02  1.1752533252494805e-01  1.2207918560818802e-01  1.9501221242123522e-02  5.1441865194098574e-02  1.4441342247889014e-01  2.1130959626171086e-01  3.8400118790981860e-02  6.8921490134005461e-02  1.0828096159437285e-01  4.1129467391777454e-02  6.7507226717712046e-02  1.3298769110037700e-01  1.8733436499684933e-01  1.3809709467901982e-01  1.8128774268142295e-01  1.5972261511230306e-02  9.0983211911549164e-02  6.5469041206755937e-02  1.3606724136547311e-02  9.0163224355511010e-02  1.1663723468552624e-01  3.3669414213141229e-02  6.3041301032644659e-02  5.1156979538608996e-02  5.6993240884566899e-02  2.4872093212584000e-02  8.4713650317857787e-03  5.8734869990507647e-03  4.4896841137097597e-02  5.3939113650973624e-03  6.2512213894736829e-03  8.2392940286836556e-03  7.6372768746791827e-04  5.8561159832560385e-05  8.0126497444128205e-05  2.9160004599737283e-04  1.8170023488255664e-03  4.0157598843474431e-04  4.2006091131424557e-04  4.8068816315443181e-04  1.8807409610799143e-03  8.9893653097602262e-04  2.2179466791351818e-04  5.7236267309799830e-03  2.9634554066623473e-03  2.1624502228217231e-03  2.6279611432826980e-03  1.3997140204991944e-03  1.5531234830535217e-02  1.5798854219027787e-02  7.1648563159047352e-05  6.4062277060612247e-03  4.2829837759450042e-03  3.2090242443096515e-03  2.7836889298794125e-03  1.0501361798463092e-03  1.6303893085273151e-03  3.8283252749675670e-03  4.3128787820731077e-03  3.0769198231286781e-03  1.8243538750121861e-03  9.8233033485035817e-04  7.7686942994972677e-04  5.0662193655450036e-04  7.8486040556444711e-05  8.9709434959875820e-05  1.0038683074704655e-04  9.7289613280400594e-05  7.4493243736347897e-05  3.6533243564883191e-05  1.6930725341460311e-05  1.5273293049193199e-21  3.8518598887744717e-34  5.8705443240211789e-03  1.6377307762434869e-02  4.0747384515945340e-02  6.8022825035620529e-02  3.9241244454143155e-02  1.2017291857994529e-01  1.6073218447756828e-02  8.7755568458537520e-03  6.8632674309338795e-02  2.1718059876701532e-02  7.2099038331429645e-03  1.3442271795297020e-02  2.7951881750978201e-02  7.5168762778525286e-02  1.1586671364607150e-01  9.2829052467464316e-03  1.