<?xml version="1.0"?>
<VTKFile type="UnstructuredGrid"  version="0.1"  >
<UnstructuredGrid>
<Piece  NumberOfPoints="10201" NumberOfCells="20000">
<Points>
<DataArray  type="Float64"  NumberOfComponents="3"  format="ascii">0 0 0  0.01 0 0  0.02 0 0  0.03 0 0  0.04 0 0  0.05 0 0  0.06 0 0  0.07000000000000001 0 0  0.08 0 0  0.09 0 0  0.1 0 0  0.11 0 0  0.12 0 0  0.13 0 0  0.14 0 0  0.15 0 0  0.16 0 0  0.17 0 0  0.18 0 0  0.19 0 0  0.2 0 0  0.21 0 0  0.22 0 0  0.23 0 0  0.24 0 0  0.25 0 0  0.26 0 0  0.27 0 0  0.28 0 0  0.29 0 0  0.3 0 0  0.31 0 0  0.32 0 0  0.33 0 0  0.34 0 0  0.35 0 0  0.36 0 0  0.37 0 0  0.38 0 0  0.39 0 0  0.4 0 0  0.41 0 0  0.42 0 0  0.43 0 0  0.44 0 0  0.45 0 0  0.46 0 0  0.47 0 0  0.48 0 0  0.49 0 0  0.5 0 0  0.51 0 0  0.52 0 0  0.53 0 0  0.54 0 0  0.55 0 0  0.5600000000000001 0 0  0.57 0 0  0.58 0 0  0.59 0 0  0.6 0 0  0.61 0 0  0.62 0 0  0.63 0 0  0.64 0 0  0.65 0 0  0.66 0 0  0.67 0 0  0.68 0 0  0.6899999999999999 0 0  0.7 0 0  0.71 0 0  0.72 0 0  0.73 0 0  0.74 0 0  0.75 0 0  0.76 0 0  0.77 0 0  0.78 0 0  0.79 0 0  0.8 0 0  0.8100000000000001 0 0  0.82 0 0  0.83 0 0  0.84 0 0  0.85 0 0  0.86 0 0  0.87 0 0  0.88 0 0  0.89 0 0  0.9 0 0  0.91 0 0  0.92 0 0  0.93 0 0  0.9399999999999999 0 0  0.95 0 0  0.96 0 0  0.97 0 0  0.98 0 0  0.99 0 0  1 0 0  0 0.01 0  0.01 0.01 0  0.02 0.01 0  0.03 0.01 0  0.04 0.01 0  0.05 0.01 0  0.06 0.01 0  0.07000000000000001 0.01 0  0.08 0.01 0  0.09 0.01 0  0.1 0.01 0  0.11 0.01 0  0.12 0.01 0  0.13 0.01 0  0.14 0.01 0  0.15 0.01 0  0.16 0.01 0  0.17 0.01 0  0.18 0.01 0  0.19 0.01 0  0.2 0.01 0  0.21 0.01 0  0.22 0.01 0  0.23 0.01 0  0.24 0.01 0  0.25 0.01 0  0.26 0.01 0  0.27 0.01 0  0.28 0.01 0  0.29 0.01 0  0.3 0.01 0  0.31 0.01 0  0.32 0.01 0  0.33 0.01 0  0.34 0.01 0  0.35 0.01 0  0.36 0.01 0  0.37 0.01 0  0.38 0.01 0  0.39 0.01 0  0.4 0.01 0  0.41 0.01 0  0.42 0.01 0  0.43 0.01 0  0.44 0.01 0  0.45 0.01 0  0.46 0.01 0  0.47 0.01 0  0.48 0.01 0  0.49 0.01 0  0.5 0.01 0  0.51 0.01 0  0.52 0.01 0  0.53 0.01 0  0.54 0.01 0  0.55 0.01 0  0.5600000000000001 0.01 0  0.57 0.01 0  0.58 0.01 0  0.59 0.01 0  0.6 0.01 0  0.61 0.01 0  0.62 0.01 0  0.63 0.01 0  0.64 0.01 0  0.65 0.01 0  0.66 0.01 0  0.67 0.01 0  0.68 0.01 0  0.6899999999999999 0.01 0  0.7 0.01 0  0.71 0.01 0  0.72 0.01 0  0.73 0.01 0  0.74 0.01 0  0.75 0.01 0  0.76 0.01 0  0.77 0.01 0  0.78 0.01 0  0.79 0.01 0  0.8 0.01 0  0.8100000000000001 0.01 0  0.82 0.01 0  0.83 0.01 0  0.84 0.01 0  0.85 0.01 0  0.86 0.01 0  0.87 0.01 0  0.88 0.01 0  0.89 0.01 0  0.9 0.01 0  0.91 0.01 0  0.92 0.01 0  0.93 0.01 0  0.9399999999999999 0.01 0  0.95 0.01 0  0.96 0.01 0  0.97 0.01 0  0.98 0.01 0  0.99 0.01 0  1 0.01 0  0 0.02 0  0.01 0.02 0  0.02 0.02 0  0.03 0.02 0  0.04 0.02 0  0.05 0.02 0  0.06 0.02 0  0.07000000000000001 0.02 0  0.08 0.02 0  0.09 0.02 0  0.1 0.02 0  0.11 0.02 0  0.12 0.02 0  0.13 0.02 0  0.14 0.02 0  0.15 0.02 0  0.16 0.02 0  0.17 0.02 0  0.18 0.02 0  0.19 0.02 0  0.2 0.02 0  0.21 0.02 0  0.22 0.02 0  0.23 0.02 0  0.24 0.02 0  0.25 0.02 0  0.26 0.02 0  0.27 0.02 0  0.28 0.02 0  0.29 0.02 0  0.3 0.02 0  0.31 0.02 0  0.32 0.02 0  0.33 0.02 0  0.34 0.02 0  0.35 0.02 0  0.36 0.02 0  0.37 0.02 0  0.38 0.02 0  0.39 0.02 0  0.4 0.02 0  0.41 0.02 0  0.42 0.02 0  0.43 0.02 0  0.44 0.02 0  0.45 0.02 0  0.46 0.02 0  0.47 0.02 0  0.48 0.02 0  0.49 0.02 0  0.5 0.02 0  0.51 0.02 0  0.52 0.02 0  0.53 0.02 0  0.54 0.02 0  0.55 0.02 0  0.5600000000000001 0.02 0  0.57 0.02 0  0.58 0.02 0  0.59 0.02 0  0.6 0.02 0  0.61 0.02 0  0.62 0.02 0  0.63 0.02 0  0.64 0.02 0  0.65 0.02 0  0.66 0.02 0  0.67 0.02 0  0.68 0.02 0  0.6899999999999999 0.02 0  0.7 0.02 0  0.71 0.02 0  0.72 0.02 0  0.73 0.02 0  0.74 0.02 0  0.75 0.02 0  0.76 0.02 0  0.77 0.02 0  0.78 0.02 0  0.79 0.02 0  0.8 0.02 0  0.8100000000000001 0.02 0  0.82 0.02 0  0.83 0.02 0  0.84 0.02 0  0.85 0.02 0  0.86 0.02 0  0.87 0.02 0  0.88 0.02 0  0.89 0.02 0  0.9 0.02 0  0.91 0.02 0  0.92 0.02 0  0.93 0.02 0  0.9399999999999999 0.02 0  0.95 0.02 0  0.96 0.02 0  0.97 0.02 0  0.98 0.02 0  0.99 0.02 0  1 0.02 0  0 0.03 0  0.01 0.03 0  0.02 0.03 0  0.03 0.03 0  0.04 0.03 0  0.05 0.03 0  0.06 0.03 0  0.07000000000000001 0.03 0  0.08 0.03 0  0.09 0.03 0  0.1 0.03 0  0.11 0.03 0  0.12 0.03 0  0.13 0.03 0  0.14 0.03 0  0.15 0.03 0  0.16 0.03 0  0.17 0.03 0  0.18 0.03 0  0.19 0.03 0  0.2 0.03 0  0.21 0.03 0  0.22 0.03 0  0.23 0.03 0  0.24 0.03 0  0.25 0.03 0  0.26 0.03 0  0.27 0.03 0  0.28 0.03 0  0.29 0.03 0  0.3 0.03 0  0.31 0.03 0  0.32 0.03 0  0.33 0.03 0  0.34 0.03 0  0.35 0.03 0  0.36 0.03 0  0.37 0.03 0  0.38 0.03 0  0.39 0.03 0  0.4 0.03 0  0.41 0.03 0  0.42 0.03 0  0.43 0.03 0  0.44 0.03 0  0.45 0.03 0  0.46 0.03 0  0.47 0.03 0  0.48 0.03 0  0.49 0.03 0  0.5 0.03 0  0.51 0.03 0  0.52 0.03 0  0.53 0.03 0  0.54 0.03 0  0.55 0.03 0  0.5600000000000001 0.03 0  0.57 0.03 0  0.58 0.03 0  0.59 0.03 0  0.6 0.03 0  0.61 0.03 0  0.62 0.03 0  0.63 0.03 0  0.64 0.03 0  0.65 0.03 0  0.66 0.03 0  0.67 0.03 0  0.68 0.03 0  0.6899999999999999 0.03 0  0.7 0.03 0  0.71 0.03 0  0.72 0.03 0  0.73 0.03 0  0.74 0.03 0  0.75 0.03 0  0.76 0.03 0  0.77 0.03 0  0.78 0.03 0  0.79 0.03 0  0.8 0.03 0  0.8100000000000001 0.03 0  0.82 0.03 0  0.83 0.03 0  0.84 0.03 0  0.85 0.03 0  0.86 0.03 0  0.87 0.03 0  0.88 0.03 0  0.89 0.03 0  0.9 0.03 0  0.91 0.03 0  0.92 0.03 0  0.93 0.03 0  0.9399999999999999 0.03 0  0.95 0.03 0  0.96 0.03 0  0.97 0.03 0  0.98 0.03 0  0.99 0.03 0  1 0.03 0  0 0.04 0  0.01 0.04 0  0.02 0.04 0  0.03 0.04 0  0.04 0.04 0  0.05 0.04 0  0.06 0.04 0  0.07000000000000001 0.04 0  0.08 0.04 0  0.09 0.04 0  0.1 0.04 0  0.11 0.04 0  0.12 0.04 0  0.13 0.04 0  0.14 0.04 0  0.15 0.04 0  0.16 0.04 0  0.17 0.04 0  0.18 0.04 0  0.19 0.04 0  0.2 0.04 0  0.21 0.04 0  0.22 0.04 0  0.23 0.04 0  0.24 0.04 0  0.25 0.04 0  0.26 0.04 0  0.27 0.04 0  0.28 0.04 0  0.29 0.04 0  0.3 0.04 0  0.31 0.04 0  0.32 0.04 0  0.33 0.04 0  0.34 0.04 0  0.35 0.04 0  0.36 0.04 0  0.37 0.04 0  0.38 0.04 0  0.39 0.04 0  0.4 0.04 0  0.41 0.04 0  0.42 0.04 0  0.43 0.04 0  0.44 0.04 0  0.45 0.04 0  0.46 0.04 0  0.47 0.04 0  0.48 0.04 0  0.49 0.04 0  0.5 0.04 0  0.51 0.04 0  0.52 0.04 0  0.53 0.04 0  0.54 0.04 0  0.55 0.04 0  0.5600000000000001 0.04 0  0.57 0.04 0  0.58 0.04 0  0.59 0.04 0  0.6 0.04 0  0.61 0.04 0  0.62 0.04 0  0.63 0.04 0  0.64 0.04 0  0.65 0.04 0  0.66 0.04 0  0.67 0.04 0  0.68 0.04 0  0.6899999999999999 0.04 0  0.7 0.04 0  0.71 0.04 0  0.72 0.04 0  0.73 0.04 0  0.74 0.04 0  0.75 0.04 0  0.76 0.04 0  0.77 0.04 0  0.78 0.04 0  0.79 0.04 0  0.8 0.04 0  0.8100000000000001 0.04 0  0.82 0.04 0  0.83 0.04 0  0.84 0.04 0  0.85 0.04 0  0.86 0.04 0  0.87 0.04 0  0.88 0.04 0  0.89 0.04 0  0.9 0.04 0  0.91 0.04 0  0.92 0.04 0  0.93 0.04 0  0.9399999999999999 0.04 0  0.95 0.04 0  0.96 0.04 0  0.97 0.04 0  0.98 0.04 0  0.99 0.04 0  1 0.04 0  0 0.05 0  0.01 0.05 0  0.02 0.05 0  0.03 0.05 0  0.04 0.05 0  0.05 0.05 0  0.06 0.05 0  0.07000000000000001 0.05 0  0.08 0.05 0  0.09 0.05 0  0.1 0.05 0  0.11 0.05 0  0.12 0.05 0  0.13 0.05 0  0.14 0.05 0  0.15 0.05 0  0.16 0.05 0  0.17 0.05 0  0.18 0.05 0  0.19 0.05 0  0.2 0.05 0  0.21 0.05 0  0.22 0.05 0  0.23 0.05 0  0.24 0.05 0  0.25 0.05 0  0.26 0.05 0  0.27 0.05 0  0.28 0.05 0  0.29 0.05 0  0.3 0.05 0  0.31 0.05 0  0.32 0.05 0  0.33 0.05 0  0.34 0.05 0  0.35 0.05 0  0.36 0.05 0  0.37 0.05 0  0.38 0.05 0  0.39 0.05 0  0.4 0.05 0  0.41 0.05 0  0.42 0.05 0  0.43 0.05 0  0.44 0.05 0  0.45 0.05 0  0.46 0.05 0  0.47 0.05 0  0.48 0.05 0  0.49 0.05 0  0.5 0.05 0  0.51 0.05 0  0.52 0.05 0  0.53 0.05 0  0.54 0.05 0  0.55 0.05 0  0.5600000000000001 0.05 0  0.57 0.05 0  0.58 0.05 0  0.59 0.05 0  0.6 0.05 0  0.61 0.05 0  0.62 0.05 0  0.63 0.05 0  0.64 0.05 0  0.65 0.05 0  0.66 0.05 0  0.67 0.05 0  0.68 0.05 0  0.6899999999999999 0.05 0  0.7 0.05 0  0.71 0.05 0  0.72 0.05 0  0.73 0.05 0  0.74 0.05 0  0.75 0.05 0  0.76 0.05 0  0.77 0.05 0  0.78 0.05 0  0.79 0.05 0  0.8 0.05 0  0.8100000000000001 0.05 0  0.82 0.05 0  0.83 0.05 0  0.84 0.05 0  0.85 0.05 0  0.86 0.05 0  0.87 0.05 0  0.88 0.05 0  0.89 0.05 0  0.9 0.05 0  0.91 0.05 0  0.92 0.05 0  0.93 0.05 0  0.9399999999999999 0.05 0  0.95 0.05 0  0.96 0.05 0  0.97 0.05 0  0.98 0.05 0  0.99 0.05 0  1 0.05 0  0 0.06 0  0.01 0.06 0  0.02 0.06 0  0.03 0.06 0  0.04 0.06 0  0.05 0.06 0  0.06 0.06 0  0.07000000000000001 0.06 0  0.08 0.06 0  0.09 0.06 0  0.1 0.06 0  0.11 0.06 0  0.12 0.06 0  0.13 0.06 0  0.14 0.06 0  0.15 0.06 0  0.16 0.06 0  0.17 0.06 0  0.18 0.06 0  0.19 0.06 0  0.2 0.06 0  0.21 0.06 0  0.22 0.06 0  0.23 0.06 0  0.24 0.06 0  0.25 0.06 0  0.26 0.06 0  0.27 0.06 0  0.28 0.06 0  0.29 0.06 0  0.3 0.06 0  0.31 0.06 0  0.32 0.06 0  0.33 0.06 0  0.34 0.06 0  0.35 0.06 0  0.36 0.06 0  0.37 0.06 0  0.38 0.06 0  0.39 0.06 0  0.4 0.06 0  0.41 0.06 0  0.42 0.06 0  0.43 0.06 0  0.44 0.06 0  0.45 0.06 0  0.46 0.06 0  0.47 0.06 0  0.48 0.06 0  0.49 0.06 0  0.5 0.06 0  0.51 0.06 0  0.52 0.06 0  0.53 0.06 0  0.54 0.06 0  0.55 0.06 0  0.5600000000000001 0.06 0  0.57 0.06 0  0.58 0.06 0  0.59 0.06 0  0.6 0.06 0  0.61 0.06 0  0.62 0.06 0  0.63 0.06 0  0.64 0.06 0  0.65 0.06 0  0.66 0.06 0  0.67 0.06 0  0.68 0.06 0  0.6899999999999999 0.06 0  0.7 0.06 0  0.71 0.06 0  0.72 0.06 0  0.73 0.06 0  0.74 0.06 0  0.75 0.06 0  0.76 0.06 0  0.77 0.06 0  0.78 0.06 0  0.79 0.06 0  0.8 0.06 0  0.8100000000000001 0.06 0  0.82 0.06 0  0.83 0.06 0  0.84 0.06 0  0.85 0.06 0  0.86 0.06 0  0.87 0.06 0  0.88 0.06 0  0.89 0.06 0  0.9 0.06 0  0.91 0.06 0  0.92 0.06 0  0.93 0.06 0  0.9399999999999999 0.06 0  0.95 0.06 0  0.96 0.06 0  0.97 0.06 0  0.98 0.06 0  0.99 0.06 0  1 0.06 0  0 0.07000000000000001 0  0.01 0.07000000000000001 0  0.02 0.07000000000000001 0  0.03 0.07000000000000001 0  0.04 0.07000000000000001 0  0.05 0.07000000000000001 0  0.06 0.07000000000000001 0  0.07000000000000001 0.07000000000000001 0  0.08 0.07000000000000001 0  0.09 0.07000000000000001 0  0.1 0.07000000000000001 0  0.11 0.07000000000000001 0  0.12 0.07000000000000001 0  0.13 0.07000000000000001 0  0.14 0.07000000000000001 0  0.15 0.07000000000000001 0  0.16 0.07000000000000001 0  0.17 0.0700
[...]
<PointData  Scalars="Indicator Function"> 
<DataArray  type="Float64"  Name="Indicator Function"  format="ascii">-5.3954188862522353e-19  1.4014005460008551e-18  3.6214594795203142e-17  1.2906254873360960e-18  9.0242833803184899e-17  -1.4996091013141573e-19  -3.1383648220550771e-19  4.2658833132806136e-17  1.7645649342352807e-16  -2.9302851875108183e-19  6.2672687210419922e-17  4.8344216489676372e-17  -1.8735627347914873e-19  -5.9291584200750492e-19  4.3341725057617173e-16  2.4074124304840448e-34  -1.1165649059945251e-18  4.2789630706893656e-16  -9.2241041527085169e-19  -1.2125815248176544e-18  9.7112483693339238e-16  -2.2017061408979314e-18  -1.0389918786285760e-18  5.0910602052800682e-17  -3.7019659879836519e-19  -9.8342263485885159e-19  -8.5379791784755314e-19  -1.2196588012113255e-18  1.2756008451491899e-15  -2.0664270809806344e-18  -3.6755464585232681e-18  -1.8377732292616348e-18  -1.8367819200845524e-18  -3.0423708052719670e-18  9.0566770273977605e-17  -1.1397470350520590e-18  -5.0399571956958744e-18  -8.3449500227431307e-18  -7.7921682036653917e-18  -8.9118587702472823e-18  7.2203863446175118e-16  -3.6750197825208298e-19  -2.6102945421876698e-18  -2.6730773459333119e-18  -1.9190415354465404e-18  -9.5952076772323305e-19  2.0494135575601677e-16  -1.1133939543001135e-18  -2.2388450876219593e-19  -6.8111177158667699e-19  -3.4055588579333864e-19  -5.8395291919423049e-19  -1.6748748542645550e-19  -8.4239544953308400e-19  -5.7661824595915171e-19  -3.5330394075452524e-20  6.9600876328656756e-18  -6.3379507899539526e-20  -4.2826554595108483e-20  -1.3823016300543311e-19  3.6111186457260672e-35  -6.5158313888211081e-20  -1.2079856974275742e-19  -5.0506061998193457e-20  -1.1594662518884452e-19  -1.3863880032768846e-19  -3.3056096039240968e-20  -8.6526946336856429e-21  5.1893420377108353e-17  -9.1663501640304149e-20  -2.3432603617287625e-20  -6.0185310762101120e-36  -3.5215700001719102e-21  -9.5085900040319075e-20  -2.4063591582815872e-19  -1.6055661655748132e-19  -3.5761784694631695e-20  -1.1679234273366689e-19  -1.3107958782438716e-19  -4.8231539057425004e-20  -2.8915252081437204e-20  5.5948108677214945e-17  -1.1014889744465007e-20  -1.3882026433137030e-19  -1.3930020861840714e-19  -8.1203879943168493e-20  -7.5231638452626401e-36  -2.8057376307726489e-20  -5.6211871291770097e-20  -1.4498015526873123e-20  -4.0785327407992178e-21  0.0000000000000000e+00  -2.3805539702979619e-20  3.3293950720990325e-17  -1.8400106632932618e-20  -8.8614465277262084e-21  -3.5860765053973751e-21  -4.5132098126922530e-21  -4.8332688057114081e-21  0.0000000000000000e+00  3.0092655381050560e-36  0.0000000000000000e+00  1.8183628766352062e-02  3.5410833621632110e-02  7.8085445712257270e-03  9.0991538800544725e-03  8.9077067323714706e-04  3.9859132182858085e-03  3.6606188481210751e-03  3.4645821062000988e-02  2.8355748089463159e-02  5.2787325114251700e-03  4.0830542073463372e-02  6.7502211474097457e-03  2.1362044521015894e-02  1.3632065054257214e-02  5.6212091076735415e-02  2.7221666357683513e-02  6.5034119994458843e-03  3.3233337619971777e-02  4.3687853626600506e-02  2.3636917975984158e-02  5.6254887395175306e-02  3.9662411822909027e-02  1.8716813749730703e-02  1.3337738115217147e-02  3.5431534495184262e-02  3.0761311877343569e-02  1.4595328108038600e-02  1.4673755636598401e-02  1.9812500132755293e-02  2.7319190861193089e-02  6.6212758643953332e-02  3.1202407938298659e-02  1.7487317514265282e-02  4.6062821342650113e-02  3.0212271243251692e-02  2.0531857289428315e-02  8.0525868749282595e-02  1.2669540591628989e-01  1.2916057105294526e-01  9.9047663834369651e-02  5.2548129385789989e-02  6.6203270892560024e-03  4.3712722565466509e-02  2.6297519273577853e-02  3.4570378975782176e-02  3.7671872345941645e-02  1.3238369584781811e-02  2.0057122390810218e-02  4.0331447609418085e-03  1.2269818882861669e-02  8.9703759629874858e-03  6.0343726156464545e-03  4.8162282214891184e-03  1.2767133219718632e-02  4.0038642606873417e-03  6.3645579837227646e-04  2.2834874252743312e-03  1.5429892425287417e-03  2.6232650442140851e-03  1.1785007203034830e-03  1.1152654719520029e-04  3.0337399521542818e-03  6.5924359864434298e-04  9.0983632798006088e-04  1.6337905479913565e-03  1.6805993239838032e-03  3.1174617862410575e-04  1.0046931495283843e-04  1.1191752639916504e-03  1.0916752153271689e-03  9.6996879420615300e-05  1.2687793072426668e-04  6.4656423167479943e-04  2.2638036212980924e-03  3.2030094727735678e-03  1.2908261376137779e-03  6.4422704089938884e-04  1.7818302844105831e-03  1.4704047893218609e-03  1.0417817479943031e-03  2.1985488753260598e-05  3.9685322678959688e-04  1.1499021770396732e-03  1.9258124743370957e-03  1.5465032333374146e-03  9.7696215706603276e-04  3.4770996695554317e-04  8.8501456633811708e-04  5.7011576724459777e-04  7.1290807202479666e-05  3.7826910525487053e-05  1.1080260080300331e-04  3.7344117854126393e-04  2.2219651440962086e-04  2.2036859629780047e-04  1.2887281443852948e-04  1.6460403445407507e-07  8.1302760122742773e-05  4.6417050308161946e-05  1.2883319496826365e-21  -1.1148768248634295e-18  4.0008974196920595e-03  7.9783247433475452e-03  1.0032179385886461e-03  1.0838127199538018e-02  3.4288281473753006e-02  5.7475011160241828e-03  2.9281429048013483e-02  1.6938849802406976e-04  1.4614253739033786e-02  4.5215287257489890e-02  3.2874093501372291e-02  2.0690799594314861e-02  6.6141133661837229e-02  6.6479067296590214e-02  4.5508071465412428e-02  4.9086146741436120e-03  8.0118600277411467e-02  2.0820996453422603e-02  1.5922379948453996e-02  1.8922648296745077e-02  4.2955734652986272e-02  4.0200692063003869e-02  4.5510630590454293e-02  2.5116879251712163e-02  4.4147080812535609e-04  3.2176939590682394e-02  4.2847516080350832e-02  6.4310976674858703e-02  2.6397752657541493e-02  6.4318728194909858e-02  6.5749988905382195e-02  3.3234990552248087e-02  4.9000581118366790e-02  4.9444481783800114e-02  5.1062352777996464e-02  8.0412856926416476e-03  7.3492499123329433e-02  1.3319871743841713e-01  1.5154922124167605e-01  1.7059623669222654e-01  9.2198297701624007e-02  8.6097599919615578e-03  1.7238610819391445e-02  5.5574195385262391e-02  1.8918205241484309e-02  4.2879367743774276e-03  9.5477595062663564e-03  2.3064970999523513e-02  1.1043249173242451e-02  2.1026498693860633e-02  6.4412755735443169e-03  7.8180921760721053e-03  4.6391656737180065e-03  1.9492379632480284e-02  7.4328140372312253e-03  6.1510243523007135e-04  1.7939660151648905e-03  1.2824383221668211e-03  1.1859481311025267e-03  5.1249098081370134e-03  2.0138773787235780e-03  3.0265345121512264e-03  3.1137099274959213e-03  1.6624325270079160e-03  1.1541079153991117e-03  2.7262167139553571e-03  3.9654171587363195e-04  5.5842532601369150e-04  1.2516486856914344e-03  1.7242593610679545e-03  3.8537841602901741e-04  4.1740738143314718e-05  8.6394247223650470e-06  2.0378633391173067e-03  3.8707097551696945e-03  2.9115998615351839e-03  2.1146698476718807e-04  1.8041794583326923e-03  1.9797361590785257e-03  1.3577824720197829e-03  8.0322784053748282e-04  8.5903276332045494e-04  6.8960257346885995e-04  2.3434407015717564e-03  2.0273786001910022e-03  1.5953205123583165e-03  2.9905720677605578e-04  9.8363121548320637e-04  1.0109768800459034e-03  5.9769297105451959e-05  2.2883694397601875e-04  9.9619086742442313e-05  6.4282264355566322e-04  1.5234880163307571e-04  4.5999549135100610e-04  1.7346486693463532e-04  8.2267949426358865e-05  8.6169941413337687e-05  1.3567810677347585e-04  3.3892415567429382e-20  7.7037197775489434e-34  2.6454193738550021e-02  9.3014798706157874e-03  5.0241298700941850e-02  2.4441627170773746e-02  1.2891785350725375e-03  1.5989248787650371e-03  1.9252584285662554e-03  8.7010196646302718e-03  5.8813921879212541e-02  8.8784970114689860e-02  5.4858491009906987e-02  5.8633019910686208e-02  3.5511196859595077e-02  1.5317474961967599e-02  3.8248297958315830e-02  1.2539963938141499e-01  2.7433269054234046e-03  1.5702684829594766e-02  5.1547508274591008e-02  9.1637333067143570e-02  7.7170730634373838e-02  1.3168194302020814e-01  1.2695693125477131e-01  8.2067174315424443e-02  3.8310716319751220e-02  6.5283432713173037e-02  7.1323995748651364e-02  3.1090004578879758e-02  4.0530015638932493e-02  4.5326623503931955e-02  5.5910566135374602e-02  1.4318553249788327e-01  9.2721783264007276e-02  6.7526872698120827e-03  6.7303690305629174e-02  3.8086687188540101e-02  4.7954318017668147e-02  1.2410858724022962e-01  1.7603112280245090e-01  1.5445319489126472e-01  1.2591626109356727e-01  6.7518808951535711e-02  3.1449894797886499e-02  5.7515379091714572e-02  2.5191999494045807e-02  7.9950224556138205e-02  1.0042196522054632e-01  5.4288304328638168e-02  5.1574146453548721e-02  2.6173635845389100e-02  3.2353075329377229e-02  2.5635995682497394e-02  3.5496726356487509e-03  1.0103842720727379e-02  2.0835539818829820e-02  2.0023244981635471e-03  2.8559228293015739e-03  6.8383616805965481e-03  4.1179474597117793e-03  4.6542176010610260e-03  1.6387872388141642e-03  1.7314313454775672e-03  5.9176545252071838e-03  3.7169898044834648e-04  2.2337111959741299e-03  1.6687280450730561e-03  2.4228625975945524e-03  1.3281148986918321e-03  5.7445252860236829e-04  2.1792092748653649e-03  1.3401895281302920e-03  5.1194606656108346e-04  4.0064161111691833e-04  8.6067136273943389e-04  3.4871178221025740e-03  4.3867586600551253e-03  6.2984991444436911e-04  1.4293038892203194e-03  2.2724994170960325e-03  1.3901069940601689e-03  1.1651187141802619e-03  2.0012577078306536e-04  7.4600793711079914e-04  2.2962835473321216e-03  2.6211824376486626e-03  1.4246445601597347e-03  1.1179195621080433e-03  8.2297743096560944e-05  1.5497637648785856e-03  5.4452169840655661e-04  5.3927147962656537e-04  7.7130156083367383e-06  8.3224571771012740e-05  8.4232214790633979e-04  1.6141467885355171e-04  4.1605330569498717e-04  1.9579643238468666e-04  2.5241823281479608e-05  7.9374298269412156e-05  -5.7928361608522328e-35  -3.7125107993752337e-19  9.7031089799928024e-03  1.1804143404754995e-02  2.2429982094983925e-02  1.8122459571483244e-03  5.6810667655018982e-03  3.3930053778529479e-02  3.5318567087018762e-02  4.0279083569395913e-02  1.4809836336076691e-02  9.6336547697534330e-03  2.7146130206122620e-02  4.9511309571320009e-02  6.9033152308816639e-02  6.7771084848678817e-02  1.2751615901546523e-01  5.4177175848039482e-03  4.3371977829049380e-03  1.0174753611463627e-01  5.3544602105363902e-02  5.0984057794290917e-02  6.0266366707972786e-02  1.2763536475783590e-02  1.6953561786069278e-02  2.5666912837171589e-02  2.2635697711751085e-02  9.0400417146851032e-03  7.3896172259220044e-02  9.3067240104791268e-02  1.0140405405976724e-01  4.3268868669702795e-02  8.3998046928412076e-02  9.2117988687112018e-02  6.8260525159498084e-02  1.1582764363943797e-01  3.7886168372881439e-02  5.2118317275444283e-02  1.6253943042985899e-02  8.7738081692045181e-02  1.5172863627359065e-01  1.7384696684212358e-01  1.8710968194026190e-01  7.6103940353247732e-02  2.4234114721633761e-02  1.2778000831552531e-02  7.0633182127450581e-02  3.6945919459165484e-02  2.0857171237418877e-02  5.1842025564534759e-02  2.2187775211845017e-03  7.1649376058035260e-03  1.9184099687186106e-02  2.3890040453988736e-03  1.6992642128874785e-02  3.5595421426020206e-03  2.9043270349054153e-02  6.7461164091901739e-03  6.5651480137744285e-03  1.6972809159416314e-03  4.5537608856363598e-03  4.1729168306626659e-03  8.3064136744187035e-03  4.2929961998595762e-03  3.3069607751972552e-03  4.8365406346098936e-03  3.6993864460332058e-03  1.3187725366589464e-03  2.9724790962271258e-03  2.0293488389679207e-04  1.3468047260515685e-03  2.0916126454908228e-03  2.3836839048386933e-03  1.0513369820103887e-04  4.1240883558746393e-04  5.3497700808366412e-04  2.3285153431620046e-03  4.6410323757334190e-03  3.1349107251203664e-03  1.3852077917449613e-03  2.2672728624113310e-03  1.9272043027158861e-03  9.9045123582395286e-04  8.4300797427321657e-04  1.3783517712977059e-03  8.3510494996234753e-04  3.2344554899094990e-03  2.0194344134616183e-03  1.2197125858645851e-03  2.9654384797693435e-06  1.0376385358110490e-03  1.3602704363053068e-03  2.3018211495241450e-04  5.7021665799128561e-04  2.4525783724771433e-04  8.2429420442451252e-04  2.8306602881253466e-04  5.9026795990871383e-04  2.5930763209536516e-04  1.9229453276293023e-04  7.9710521497597273e-06  -9.3147723581218294e-21  -1.6748356876419506e-18  4.9524691601874768e-02  4.4179871083284021e-02  5.8799214168802228e-03  5.5725223905099784e-02  5.2493034500289630e-02  6.4010755001243395e-03  2.0608300676286846e-02  8.1999621338602162e-03  3.2279863764662915e-02  5.6565270589347939e-02  1.0289195053688188e-01  1.0000719503773978e-01  2.7900542245914497e-02  4.0522889188048895e-02  2.7375557410540159e-02  8.1094351276553948e-03  1.4777958916604089e-01  3.8685879989032022e-02  4.2838607872558492e-02  3.1448849334513196e-02  8.9961869802650432e-02  8.5482669311483087e-02  1.5638216803228608e-01  1.7170034774526449e-01  1.2943771250234395e-01  6.1888667406369856e-02  6.4614678729976852e-02  6.9481314714945064e-02  2.1342171261797976e-02  7.9715600251646840e-02  7.9659708140758748e-02  8.3885023919697932e-02  2.0020899130879907e-01  1.0137196744182821e-01  2.7312780965535570e-02  7.9401098217761118e-02  4.2891509648277731e-02  6.7805969656846488e-02  1.4283232878437133e-01  1.8532622332172230e-01  1.5514912683804263e-01  1.4565691284396171e-01  6.1750253632776558e-02  6.3545666264965009e-02  5.4614011570344366e-02  2.5000557315987857e-02  1.0775828169844372e-01  1.2060960415263798e-01  6.1586569961747946e-02  6.4072442583554171e-02  4.2853197362494357e-02  4.5717928695854997e-02  3.5297510528664262e-02  4.2710611324093123e-03  1.1070980741248996e-02  2.9047710511903985e-02  7.1738273098853915e-03  6.5062861181313710e-03  9.1230941203865931e-03  4.0364601056741166e-03  3.7792264765153837e-03  3.5431411333935957e-03  4.4397725750024352e-03  7.6452424633901232e-03  2.2298968527842769e-04  3.8711584312721920e-03  1.3520353541735608e-03  2.9161417399017758e-03  2.0179864335338679e-03  4.3192441071936019e-04  3.0530022882382891e-03  1.6527566616178835e-03  9.8470184408126120e-04  4.9125593851415095e-04  4.2711122141478439e-04  3.8981255304181774e-03  4.9306571088661910e-03  2.3332150017344705e-04  2.3047572599625100e-03  2.5256050300356834e-03  1.1551963058166975e-03  9.9846021448096278e-04  1.9944350049080041e-04  1.2457497024471423e-03  2.8582137062294123e-03  3.1447243149841371e-03  1.1683475099358552e-03  9.3899386923625746e-04  3.3459798594615155e-04  1.9040227247706634e-03  6.1334598642853418e-04  9.0840233613906330e-04  7.4494900022299766e-05  4.2922873820277936e-05  1.1730118742091448e-03  7.5057112717203148e-05  6.2389480980207170e-04  2.8237627751131914e-04  1.4033830249975560e-04  6.0185310762101120e-36  -1.0490430123100635e-19  3.0171157515084406e-02  5.1296415389332564e-03  1.0497223259540903e-02  4.4409680690793915e-02  2.7573384628317873e-02  1.2799485726929405e-03  2.3618307318631265e-02  4.3943088333967734e-02  3.5022313609865699e-02  1.2041926426270239e-02  2.4674065832282377e-02  1.1208427792322111e-02  1.1035207248573962e-02  9.3518682972949546e-02  3.4969295180587785e-02  1.3190315641614736e-01  2.1119161054481028e-02  3.6274658463485522e-02  8.1744310086118724e-02  5.0157341713349714e-02  5.7054391236964798e-02  8.8051672795884550e-02  1.7116055758103804e-02  2.0186924430892077e-02  2.7794951231369179e-02  1.2396891472082573e-02  1.7275002118362956e-02  9.5239389819952627e-02  1.2696025181618445e-01  1.1256803101085644e-01  2.7737190244093126e-02  1.0187037543012496e-01  8.9367785104714922e-02  1.0538388324170364e-01  1.6224278890776103e-01  2.5478286497069496e-02  5.5493547517051593e-02  1.2239402244187441e-02  1.0070567098948928e-01  1.7162512808109295e-01  1.9243894819471238e-01  1.8489517184005638e-01  7.1505664354685847e-02  2.4528024584728574e-02  2.6784430315387516e-02  7.8949014676069587e-02  4.7440924479036334e-02  4.7463194009663534e-02  9.2211752467427369e-02  2.4343940397982104e-02  9.8304438654342186e-03  4.6753454255220690e-03  1.0226965685513154e-02  2.9418635449194909e-02  7.9984563379515805e-04  3.3598308442730006e-02  9.7783032075179216e-03  1.2914582455459834e-02  2.9406386325903029e-04  7.8824260852891903e-03  6.2119998707417844e-03  9.5310559661407369e-03  4.4992877518884155e-03  1.9268085964574638e-03  6.6297860908051363e-03  4.8358155052726157e-03  2.1551280504976131e-03  2.7148432819590384e-03  4.5007542908278181e-04  2.0920868910080004e-03  2.5475479105717710e-03  3.1179247816659449e-03  1.1261296281245965e-04  8.2971515979698128e-04  9.5072740956041082e-04  2.2183604319872181e-03  5.1514374982913865e-03  3.3693537324314300e-03  2.2929701653522073e-03  2.8138125717105038e-03  1.9654959239065418e-03  6.8705425037641446e-04  8.2954210272620803e-04  1.5200257361845536e-03  6.9087228023832347e-04  4.0370337533718673e-03  2.1987103546702411e-03  8.6163780440996166e-04  4.6081931573150727e-05  8.7907002152332189e-04  1.7824257556086382e-03  3.3734579790273690e-04  9.1696909788892126e-04  3.4369330728018643e-04  7.6378281597200954e-04  5.5437461217344773e-04  5.1578295354233765e-04  3.8520234018375201e-04  2.4347563154346409e-04  -1.3515612603735245e-20  -5.8461446989363344e-19  1.8897878877341071e-03  1.9838165290999521e-02  1.1329729331136148e-02  3.4782997384037152e-02  3.6609987786188923e-02  5.8954559233299064e-02  2.1319313539712201e-03  3.9440467428747718e-02  2.2359160695415315e-02  4.3885219004955393e-02  4.4491430823716815e-02  8.6203355836675738e-02  8.5841156000550908e-02  1.4028276064096529e-02  8.1730776263593333e-03  3.5516085408479135e-02  2.9860686226430656e-02  1.2803667869468943e-01  3.1120792660509197e-02  4.4009327288620025e-02  1.2865678629723831e-02  6.8198339712917860e-02  5.6186710909939187e-02  1.3366050821933270e-01  1.5220657571135163e-01  1.1544433565241062e-01  5.6499489218958518e-02  5.2897905537013158e-02  4.5707450272697452e-02  1.8379637181493522e-03  1.0368435134858771e-01  1.0376390112880886e-01  9.5488169624944899e-02  2.2829831246442744e-01  7.8361531607817406e-02  7.7613616354480705e-02  7.8432130609473225e-02  4.1508135377984930e-02  8.2867314097438097e-02  1.5896608886298197e-01  1.9408298614912248e-01  1.6857932831238334e-01  1.5714395126027070e-01  4.7273321517616589e-02  8.0821586574057580e-02  5.5341242374930044e-02  2.4067285454931441e-02  1.2069905293073377e-01  1.0881052955826694e-01  2.9770742560762065e-02  4.5753188569247337e-02  3.5906094512610724e-02  4.2097010544782529e-02  3.1460273918851318e-02  1.1756624371972078e-02  1.3834460845943638e-02  3.5691985376026601e-02  8.5634049556086184e-03  1.1606254419309960e-02  9.1086494488072465e-03  1.3207835892188595e-03  1.5051591235426367e-03  5.5117534293406371e-03  6.0859699272581237e-03  7.8248257934247691e-03  8.1030725660526657e-04  5.5022778101795795e-03  1.5580161040168942e-03  2.9391615732743816e-03  2.1328834352888687e-03  4.8382192500395505e-05  3.7976096831121280e-03  2.1325212134404026e-03  1.1740122230283641e-03  2.8186249690523887e-04  7.3629145726068063e-05  4.0899573218185241e-03  5.3661603843103119e-03  1.5032111905722320e-04  3.3766219160524442e-03  2.8903987898975230e-03  1.0863313986227694e-03  7.5441653144578109e-04  1.4432400312919402e-04  1.4848490122426883e-03  3.0965812224161733e-03  3.8845439559219200e-03  1.1517669542194574e-03  5.9268016680454961e-04  4.1259137299103570e-04  2.0684483109116680e-03  9.5571516963201795e-04  1.0281644465358313e-03  2.2682099201220136e-04  1.7612495970517432e-04  1.2172138743480906e-03  1.5928197354314342e-04  6.3520637159275128e-04  2.8886720567921227e-04  -4.0088377850524073e-20  -3.1924947683013501e-19  1.1940210969878106e-02  1.0470621808797528e-02  1.2537791276300642e-02  1.7211289163876681e-02  2.1008965196949909e-02  5.0470211039186717e-02  5.8379902723850732e-03  1.0756957974936239e-02  3.4829655332922559e-02  3.0834783653198625e-02  4.1150749035581587e-03  1.2107414983775771e-02  1.4708493737234648e-02  2.1084923958036659e-02  7.6365439978701932e-02  2.3436019535666215e-02  1