<?xml version="1.0"?>
<VTKFile type="UnstructuredGrid"  version="0.1"  >
<UnstructuredGrid>
<Piece  NumberOfPoints="10201" NumberOfCells="20000">
<Points>
<DataArray  type="Float64"  NumberOfComponents="3"  format="ascii">0 0 0  0.01 0 0  0.02 0 0  0.03 0 0  0.04 0 0  0.05 0 0  0.06 0 0  0.07000000000000001 0 0  0.08 0 0  0.09 0 0  0.1 0 0  0.11 0 0  0.12 0 0  0.13 0 0  0.14 0 0  0.15 0 0  0.16 0 0  0.17 0 0  0.18 0 0  0.19 0 0  0.2 0 0  0.21 0 0  0.22 0 0  0.23 0 0  0.24 0 0  0.25 0 0  0.26 0 0  0.27 0 0  0.28 0 0  0.29 0 0  0.3 0 0  0.31 0 0  0.32 0 0  0.33 0 0  0.34 0 0  0.35 0 0  0.36 0 0  0.37 0 0  0.38 0 0  0.39 0 0  0.4 0 0  0.41 0 0  0.42 0 0  0.43 0 0  0.44 0 0  0.45 0 0  0.46 0 0  0.47 0 0  0.48 0 0  0.49 0 0  0.5 0 0  0.51 0 0  0.52 0 0  0.53 0 0  0.54 0 0  0.55 0 0  0.5600000000000001 0 0  0.57 0 0  0.58 0 0  0.59 0 0  0.6 0 0  0.61 0 0  0.62 0 0  0.63 0 0  0.64 0 0  0.65 0 0  0.66 0 0  0.67 0 0  0.68 0 0  0.6899999999999999 0 0  0.7 0 0  0.71 0 0  0.72 0 0  0.73 0 0  0.74 0 0  0.75 0 0  0.76 0 0  0.77 0 0  0.78 0 0  0.79 0 0  0.8 0 0  0.8100000000000001 0 0  0.82 0 0  0.83 0 0  0.84 0 0  0.85 0 0  0.86 0 0  0.87 0 0  0.88 0 0  0.89 0 0  0.9 0 0  0.91 0 0  0.92 0 0  0.93 0 0  0.9399999999999999 0 0  0.95 0 0  0.96 0 0  0.97 0 0  0.98 0 0  0.99 0 0  1 0 0  0 0.01 0  0.01 0.01 0  0.02 0.01 0  0.03 0.01 0  0.04 0.01 0  0.05 0.01 0  0.06 0.01 0  0.07000000000000001 0.01 0  0.08 0.01 0  0.09 0.01 0  0.1 0.01 0  0.11 0.01 0  0.12 0.01 0  0.13 0.01 0  0.14 0.01 0  0.15 0.01 0  0.16 0.01 0  0.17 0.01 0  0.18 0.01 0  0.19 0.01 0  0.2 0.01 0  0.21 0.01 0  0.22 0.01 0  0.23 0.01 0  0.24 0.01 0  0.25 0.01 0  0.26 0.01 0  0.27 0.01 0  0.28 0.01 0  0.29 0.01 0  0.3 0.01 0  0.31 0.01 0  0.32 0.01 0  0.33 0.01 0  0.34 0.01 0  0.35 0.01 0  0.36 0.01 0  0.37 0.01 0  0.38 0.01 0  0.39 0.01 0  0.4 0.01 0  0.41 0.01 0  0.42 0.01 0  0.43 0.01 0  0.44 0.01 0  0.45 0.01 0  0.46 0.01 0  0.47 0.01 0  0.48 0.01 0  0.49 0.01 0  0.5 0.01 0  0.51 0.01 0  0.52 0.01 0  0.53 0.01 0  0.54 0.01 0  0.55 0.01 0  0.5600000000000001 0.01 0  0.57 0.01 0  0.58 0.01 0  0.59 0.01 0  0.6 0.01 0  0.61 0.01 0  0.62 0.01 0  0.63 0.01 0  0.64 0.01 0  0.65 0.01 0  0.66 0.01 0  0.67 0.01 0  0.68 0.01 0  0.6899999999999999 0.01 0  0.7 0.01 0  0.71 0.01 0  0.72 0.01 0  0.73 0.01 0  0.74 0.01 0  0.75 0.01 0  0.76 0.01 0  0.77 0.01 0  0.78 0.01 0  0.79 0.01 0  0.8 0.01 0  0.8100000000000001 0.01 0  0.82 0.01 0  0.83 0.01 0  0.84 0.01 0  0.85 0.01 0  0.86 0.01 0  0.87 0.01 0  0.88 0.01 0  0.89 0.01 0  0.9 0.01 0  0.91 0.01 0  0.92 0.01 0  0.93 0.01 0  0.9399999999999999 0.01 0  0.95 0.01 0  0.96 0.01 0  0.97 0.01 0  0.98 0.01 0  0.99 0.01 0  1 0.01 0  0 0.02 0  0.01 0.02 0  0.02 0.02 0  0.03 0.02 0  0.04 0.02 0  0.05 0.02 0  0.06 0.02 0  0.07000000000000001 0.02 0  0.08 0.02 0  0.09 0.02 0  0.1 0.02 0  0.11 0.02 0  0.12 0.02 0  0.13 0.02 0  0.14 0.02 0  0.15 0.02 0  0.16 0.02 0  0.17 0.02 0  0.18 0.02 0  0.19 0.02 0  0.2 0.02 0  0.21 0.02 0  0.22 0.02 0  0.23 0.02 0  0.24 0.02 0  0.25 0.02 0  0.26 0.02 0  0.27 0.02 0  0.28 0.02 0  0.29 0.02 0  0.3 0.02 0  0.31 0.02 0  0.32 0.02 0  0.33 0.02 0  0.34 0.02 0  0.35 0.02 0  0.36 0.02 0  0.37 0.02 0  0.38 0.02 0  0.39 0.02 0  0.4 0.02 0  0.41 0.02 0  0.42 0.02 0  0.43 0.02 0  0.44 0.02 0  0.45 0.02 0  0.46 0.02 0  0.47 0.02 0  0.48 0.02 0  0.49 0.02 0  0.5 0.02 0  0.51 0.02 0  0.52 0.02 0  0.53 0.02 0  0.54 0.02 0  0.55 0.02 0  0.5600000000000001 0.02 0  0.57 0.02 0  0.58 0.02 0  0.59 0.02 0  0.6 0.02 0  0.61 0.02 0  0.62 0.02 0  0.63 0.02 0  0.64 0.02 0  0.65 0.02 0  0.66 0.02 0  0.67 0.02 0  0.68 0.02 0  0.6899999999999999 0.02 0  0.7 0.02 0  0.71 0.02 0  0.72 0.02 0  0.73 0.02 0  0.74 0.02 0  0.75 0.02 0  0.76 0.02 0  0.77 0.02 0  0.78 0.02 0  0.79 0.02 0  0.8 0.02 0  0.8100000000000001 0.02 0  0.82 0.02 0  0.83 0.02 0  0.84 0.02 0  0.85 0.02 0  0.86 0.02 0  0.87 0.02 0  0.88 0.02 0  0.89 0.02 0  0.9 0.02 0  0.91 0.02 0  0.92 0.02 0  0.93 0.02 0  0.9399999999999999 0.02 0  0.95 0.02 0  0.96 0.02 0  0.97 0.02 0  0.98 0.02 0  0.99 0.02 0  1 0.02 0  0 0.03 0  0.01 0.03 0  0.02 0.03 0  0.03 0.03 0  0.04 0.03 0  0.05 0.03 0  0.06 0.03 0  0.07000000000000001 0.03 0  0.08 0.03 0  0.09 0.03 0  0.1 0.03 0  0.11 0.03 0  0.12 0.03 0  0.13 0.03 0  0.14 0.03 0  0.15 0.03 0  0.16 0.03 0  0.17 0.03 0  0.18 0.03 0  0.19 0.03 0  0.2 0.03 0  0.21 0.03 0  0.22 0.03 0  0.23 0.03 0  0.24 0.03 0  0.25 0.03 0  0.26 0.03 0  0.27 0.03 0  0.28 0.03 0  0.29 0.03 0  0.3 0.03 0  0.31 0.03 0  0.32 0.03 0  0.33 0.03 0  0.34 0.03 0  0.35 0.03 0  0.36 0.03 0  0.37 0.03 0  0.38 0.03 0  0.39 0.03 0  0.4 0.03 0  0.41 0.03 0  0.42 0.03 0  0.43 0.03 0  0.44 0.03 0  0.45 0.03 0  0.46 0.03 0  0.47 0.03 0  0.48 0.03 0  0.49 0.03 0  0.5 0.03 0  0.51 0.03 0  0.52 0.03 0  0.53 0.03 0  0.54 0.03 0  0.55 0.03 0  0.5600000000000001 0.03 0  0.57 0.03 0  0.58 0.03 0  0.59 0.03 0  0.6 0.03 0  0.61 0.03 0  0.62 0.03 0  0.63 0.03 0  0.64 0.03 0  0.65 0.03 0  0.66 0.03 0  0.67 0.03 0  0.68 0.03 0  0.6899999999999999 0.03 0  0.7 0.03 0  0.71 0.03 0  0.72 0.03 0  0.73 0.03 0  0.74 0.03 0  0.75 0.03 0  0.76 0.03 0  0.77 0.03 0  0.78 0.03 0  0.79 0.03 0  0.8 0.03 0  0.8100000000000001 0.03 0  0.82 0.03 0  0.83 0.03 0  0.84 0.03 0  0.85 0.03 0  0.86 0.03 0  0.87 0.03 0  0.88 0.03 0  0.89 0.03 0  0.9 0.03 0  0.91 0.03 0  0.92 0.03 0  0.93 0.03 0  0.9399999999999999 0.03 0  0.95 0.03 0  0.96 0.03 0  0.97 0.03 0  0.98 0.03 0  0.99 0.03 0  1 0.03 0  0 0.04 0  0.01 0.04 0  0.02 0.04 0  0.03 0.04 0  0.04 0.04 0  0.05 0.04 0  0.06 0.04 0  0.07000000000000001 0.04 0  0.08 0.04 0  0.09 0.04 0  0.1 0.04 0  0.11 0.04 0  0.12 0.04 0  0.13 0.04 0  0.14 0.04 0  0.15 0.04 0  0.16 0.04 0  0.17 0.04 0  0.18 0.04 0  0.19 0.04 0  0.2 0.04 0  0.21 0.04 0  0.22 0.04 0  0.23 0.04 0  0.24 0.04 0  0.25 0.04 0  0.26 0.04 0  0.27 0.04 0  0.28 0.04 0  0.29 0.04 0  0.3 0.04 0  0.31 0.04 0  0.32 0.04 0  0.33 0.04 0  0.34 0.04 0  0.35 0.04 0  0.36 0.04 0  0.37 0.04 0  0.38 0.04 0  0.39 0.04 0  0.4 0.04 0  0.41 0.04 0  0.42 0.04 0  0.43 0.04 0  0.44 0.04 0  0.45 0.04 0  0.46 0.04 0  0.47 0.04 0  0.48 0.04 0  0.49 0.04 0  0.5 0.04 0  0.51 0.04 0  0.52 0.04 0  0.53 0.04 0  0.54 0.04 0  0.55 0.04 0  0.5600000000000001 0.04 0  0.57 0.04 0  0.58 0.04 0  0.59 0.04 0  0.6 0.04 0  0.61 0.04 0  0.62 0.04 0  0.63 0.04 0  0.64 0.04 0  0.65 0.04 0  0.66 0.04 0  0.67 0.04 0  0.68 0.04 0  0.6899999999999999 0.04 0  0.7 0.04 0  0.71 0.04 0  0.72 0.04 0  0.73 0.04 0  0.74 0.04 0  0.75 0.04 0  0.76 0.04 0  0.77 0.04 0  0.78 0.04 0  0.79 0.04 0  0.8 0.04 0  0.8100000000000001 0.04 0  0.82 0.04 0  0.83 0.04 0  0.84 0.04 0  0.85 0.04 0  0.86 0.04 0  0.87 0.04 0  0.88 0.04 0  0.89 0.04 0  0.9 0.04 0  0.91 0.04 0  0.92 0.04 0  0.93 0.04 0  0.9399999999999999 0.04 0  0.95 0.04 0  0.96 0.04 0  0.97 0.04 0  0.98 0.04 0  0.99 0.04 0  1 0.04 0  0 0.05 0  0.01 0.05 0  0.02 0.05 0  0.03 0.05 0  0.04 0.05 0  0.05 0.05 0  0.06 0.05 0  0.07000000000000001 0.05 0  0.08 0.05 0  0.09 0.05 0  0.1 0.05 0  0.11 0.05 0  0.12 0.05 0  0.13 0.05 0  0.14 0.05 0  0.15 0.05 0  0.16 0.05 0  0.17 0.05 0  0.18 0.05 0  0.19 0.05 0  0.2 0.05 0  0.21 0.05 0  0.22 0.05 0  0.23 0.05 0  0.24 0.05 0  0.25 0.05 0  0.26 0.05 0  0.27 0.05 0  0.28 0.05 0  0.29 0.05 0  0.3 0.05 0  0.31 0.05 0  0.32 0.05 0  0.33 0.05 0  0.34 0.05 0  0.35 0.05 0  0.36 0.05 0  0.37 0.05 0  0.38 0.05 0  0.39 0.05 0  0.4 0.05 0  0.41 0.05 0  0.42 0.05 0  0.43 0.05 0  0.44 0.05 0  0.45 0.05 0  0.46 0.05 0  0.47 0.05 0  0.48 0.05 0  0.49 0.05 0  0.5 0.05 0  0.51 0.05 0  0.52 0.05 0  0.53 0.05 0  0.54 0.05 0  0.55 0.05 0  0.5600000000000001 0.05 0  0.57 0.05 0  0.58 0.05 0  0.59 0.05 0  0.6 0.05 0  0.61 0.05 0  0.62 0.05 0  0.63 0.05 0  0.64 0.05 0  0.65 0.05 0  0.66 0.05 0  0.67 0.05 0  0.68 0.05 0  0.6899999999999999 0.05 0  0.7 0.05 0  0.71 0.05 0  0.72 0.05 0  0.73 0.05 0  0.74 0.05 0  0.75 0.05 0  0.76 0.05 0  0.77 0.05 0  0.78 0.05 0  0.79 0.05 0  0.8 0.05 0  0.8100000000000001 0.05 0  0.82 0.05 0  0.83 0.05 0  0.84 0.05 0  0.85 0.05 0  0.86 0.05 0  0.87 0.05 0  0.88 0.05 0  0.89 0.05 0  0.9 0.05 0  0.91 0.05 0  0.92 0.05 0  0.93 0.05 0  0.9399999999999999 0.05 0  0.95 0.05 0  0.96 0.05 0  0.97 0.05 0  0.98 0.05 0  0.99 0.05 0  1 0.05 0  0 0.06 0  0.01 0.06 0  0.02 0.06 0  0.03 0.06 0  0.04 0.06 0  0.05 0.06 0  0.06 0.06 0  0.07000000000000001 0.06 0  0.08 0.06 0  0.09 0.06 0  0.1 0.06 0  0.11 0.06 0  0.12 0.06 0  0.13 0.06 0  0.14 0.06 0  0.15 0.06 0  0.16 0.06 0  0.17 0.06 0  0.18 0.06 0  0.19 0.06 0  0.2 0.06 0  0.21 0.06 0  0.22 0.06 0  0.23 0.06 0  0.24 0.06 0  0.25 0.06 0  0.26 0.06 0  0.27 0.06 0  0.28 0.06 0  0.29 0.06 0  0.3 0.06 0  0.31 0.06 0  0.32 0.06 0  0.33 0.06 0  0.34 0.06 0  0.35 0.06 0  0.36 0.06 0  0.37 0.06 0  0.38 0.06 0  0.39 0.06 0  0.4 0.06 0  0.41 0.06 0  0.42 0.06 0  0.43 0.06 0  0.44 0.06 0  0.45 0.06 0  0.46 0.06 0  0.47 0.06 0  0.48 0.06 0  0.49 0.06 0  0.5 0.06 0  0.51 0.06 0  0.52 0.06 0  0.53 0.06 0  0.54 0.06 0  0.55 0.06 0  0.5600000000000001 0.06 0  0.57 0.06 0  0.58 0.06 0  0.59 0.06 0  0.6 0.06 0  0.61 0.06 0  0.62 0.06 0  0.63 0.06 0  0.64 0.06 0  0.65 0.06 0  0.66 0.06 0  0.67 0.06 0  0.68 0.06 0  0.6899999999999999 0.06 0  0.7 0.06 0  0.71 0.06 0  0.72 0.06 0  0.73 0.06 0  0.74 0.06 0  0.75 0.06 0  0.76 0.06 0  0.77 0.06 0  0.78 0.06 0  0.79 0.06 0  0.8 0.06 0  0.8100000000000001 0.06 0  0.82 0.06 0  0.83 0.06 0  0.84 0.06 0  0.85 0.06 0  0.86 0.06 0  0.87 0.06 0  0.88 0.06 0  0.89 0.06 0  0.9 0.06 0  0.91 0.06 0  0.92 0.06 0  0.93 0.06 0  0.9399999999999999 0.06 0  0.95 0.06 0  0.96 0.06 0  0.97 0.06 0  0.98 0.06 0  0.99 0.06 0  1 0.06 0  0 0.07000000000000001 0  0.01 0.07000000000000001 0  0.02 0.07000000000000001 0  0.03 0.07000000000000001 0  0.04 0.07000000000000001 0  0.05 0.07000000000000001 0  0.06 0.07000000000000001 0  0.07000000000000001 0.07000000000000001 0  0.08 0.07000000000000001 0  0.09 0.07000000000000001 0  0.1 0.07000000000000001 0  0.11 0.07000000000000001 0  0.12 0.07000000000000001 0  0.13 0.07000000000000001 0  0.14 0.07000000000000001 0  0.15 0.07000000000000001 0  0.16 0.07000000000000001 0  0.17 0.0700
[...]
<PointData  Scalars="u"> 
<DataArray  type="Float64"  Name="u"  format="ascii">0.0000000000000000e+00  0.0000000000000000e+00  0.0000000000000000e+00  0.0000000000000000e+00  0.0000000000000000e+00  0.0000000000000000e+00  0.0000000000000000e+00  0.0000000000000000e+00  0.0000000000000000e+00  0.0000000000000000e+00  0.0000000000000000e+00  0.0000000000000000e+00  0.0000000000000000e+00  0.0000000000000000e+00  0.0000000000000000e+00  0.0000000000000000e+00  0.0000000000000000e+00  0.0000000000000000e+00  0.0000000000000000e+00  0.0000000000000000e+00  0.0000000000000000e+00  0.0000000000000000e+00  0.0000000000000000e+00  0.0000000000000000e+00  0.0000000000000000e+00  0.0000000000000000e+00  0.0000000000000000e+00  0.0000000000000000e+00  0.0000000000000000e+00  0.0000000000000000e+00  0.0000000000000000e+00  0.0000000000000000e+00  0.0000000000000000e+00  0.0000000000000000e+00  0.0000000000000000e+00  0.0000000000000000e+00  0.0000000000000000e+00  0.0000000000000000e+00  0.0000000000000000e+00  0.0000000000000000e+00  0.0000000000000000e+00  0.0000000000000000e+00  0.0000000000000000e+00  0.0000000000000000e+00  0.0000000000000000e+00  0.0000000000000000e+00  0.0000000000000000e+00  0.0000000000000000e+00  0.0000000000000000e+00  0.0000000000000000e+00  0.0000000000000000e+00  0.0000000000000000e+00  0.0000000000000000e+00  0.0000000000000000e+00  0.0000000000000000e+00  0.0000000000000000e+00  0.0000000000000000e+00  0.0000000000000000e+00  0.0000000000000000e+00  0.0000000000000000e+00  0.0000000000000000e+00  0.0000000000000000e+00  0.0000000000000000e+00  0.0000000000000000e+00  0.0000000000000000e+00  0.0000000000000000e+00  0.0000000000000000e+00  0.0000000000000000e+00  0.0000000000000000e+00  0.0000000000000000e+00  0.0000000000000000e+00  0.0000000000000000e+00  0.0000000000000000e+00  0.0000000000000000e+00  0.0000000000000000e+00  0.0000000000000000e+00  0.0000000000000000e+00  0.0000000000000000e+00  0.0000000000000000e+00  0.0000000000000000e+00  0.0000000000000000e+00  0.0000000000000000e+00  0.0000000000000000e+00  0.0000000000000000e+00  0.0000000000000000e+00  0.0000000000000000e+00  0.0000000000000000e+00  0.0000000000000000e+00  0.0000000000000000e+00  0.0000000000000000e+00  0.0000000000000000e+00  0.0000000000000000e+00  0.0000000000000000e+00  0.0000000000000000e+00  0.0000000000000000e+00  0.0000000000000000e+00  0.0000000000000000e+00  0.0000000000000000e+00  0.0000000000000000e+00  0.0000000000000000e+00  0.0000000000000000e+00  0.0000000000000000e+00  -1.4630695962795584e-02  -2.5690197986263721e-02  -5.0073164521857944e-03  -1.0655491278448110e-02  4.9540380922680812e-03  -1.2862544440873206e-03  -1.2427127902027987e-02  1.3578358804837494e-02  -2.1628565375478893e-02  -8.6533539746595214e-04  2.2379629179385720e-02  -1.0297069626985041e-02  -3.0283426061935733e-02  2.8486217552197646e-02  -1.2402257205468354e-02  4.5978061385331314e-03  2.3228549110398830e-02  -1.8846209269569696e-02  3.2122467273569592e-02  -3.1990935360253422e-02  2.5729311399888814e-02  -2.7478226466020276e-02  1.5819889375731457e-02  -1.0036771598787944e-02  2.5010231443792125e-02  -3.2025038920822382e-02  2.5538245693158400e-02  -5.3924537029260396e-03  -9.2887740550591114e-03  9.9915855686294030e-03  2.9689346792439411e-02  -4.9354224821185330e-02  1.3334056455583046e-02  6.6707800120154957e-03  1.4434910489943260e-02  1.4829348058367317e-02  9.8661895686827719e-04  -1.0686017832453489e-02  -2.5310175418721135e-02  -3.8015406067815574e-02  -2.7203945949598789e-02  -9.0535095772242679e-03  -2.7447903384578611e-03  1.5150961881303153e-02  2.1629502020476477e-02  -3.5170397690915525e-02  2.0882261481683397e-02  -7.6877399344654684e-03  6.6800591363147454e-03  -5.1314974503151554e-03  7.9360018580142185e-03  -1.9286591739295423e-03  -6.4977649103468565e-03  2.1880814927340670e-04  5.7762555240691692e-03  1.9545395034178416e-03  -2.9746577970373904e-03  2.1159418934554313e-03  -2.4089983026969199e-03  1.2559895181511807e-03  7.2650032072174337e-04  -1.6836604549913935e-03  1.5583087176513329e-03  6.9497664422534704e-04  8.1485859501009803e-05  -9.5050825804995112e-06  -1.1143640642494955e-03  5.5755554950724835e-04  6.0091696913417520e-04  -1.7147470985862597e-04  -5.0521262525500456e-04  1.5685721537711398e-04  -3.0722777099698672e-04  -6.3538614302426121e-04  -2.6629423572425694e-04  1.0050700254768854e-03  6.9614111655698721e-04  1.8327580208426874e-04  -3.4078690235583430e-04  -1.3485890550873238e-04  -5.0103022671599566e-04  -8.8742911646831225e-05  7.7973499606767650e-04  2.1105578710600310e-04  -3.6517968906571831e-04  -3.2859112307943367e-04  -2.0782494574797926e-04  4.2465982099211915e-04  -1.3585681871201968e-04  -4.3165866393951808e-04  1.5734245437247740e-04  6.6855119784664312e-06  -1.1019826947716064e-04  4.3312691541395282e-05  8.3329400487732293e-05  7.8047653440944061e-05  1.0857924221920061e-04  8.6875260589604986e-05  6.8140860967172100e-06  0.0000000000000000e+00  0.0000000000000000e+00  -1.7321473151155897e-03  -7.6018686755687619e-03  1.0259483567171860e-02  -9.9227559343506369e-03  -2.9845958815191916e-02  5.6023916604806953e-03  1.3805795648258914e-02  -1.6111433828937066e-02  -3.1899589393218145e-02  4.5026895505482292e-02  -3.7814261626028502e-02  -3.9204225835571009e-03  3.8648498788040345e-02  -5.1996727651861155e-02  -1.4436221432911399e-02  5.0501741141745965e-02  -3.4584251727049702e-02  3.9834098250279310e-02  -3.2257989628265873e-03  -1.9189262582056225e-03  2.6985374186315799e-02  -5.8822147445111744e-02  5.2790785675035694e-02  -2.6916537422673342e-02  4.2885311469494768e-03  1.3631562970174531e-02  -2.9635541899540093e-02  5.3894387604286831e-02  -4.0386162105974253e-02  -3.1433446736177165e-02  7.7426173447065844e-02  -1.1011941750349499e-02  -3.7547241214739367e-02  7.7096449960357884e-04  1.0646643935260814e-02  3.8042272285522663e-02  2.6773368543176600e-02  5.6836941863242056e-03  -2.2635477191525279e-02  -1.1150043315081114e-02  -4.3064539691895436e-02  -6.0373695515751856e-02  2.6889372843169768e-03  -3.7490716684359087e-04  4.5365611011130319e-02  -2.0245366770966847e-02  1.5212596387991833e-03  -1.4015223642903640e-02  2.3309624770974594e-02  -1.7040219260834804e-02  1.3580445056703548e-02  1.9373947969942530e-03  -2.9910151236675498e-03  -1.2876151685337412e-02  8.3355705293855966e-03  8.1752850408760257e-03  -2.3604959206218381e-03  -1.0799697553547059e-03  1.2034698914266755e-03  -3.7332694557600486e-03  5.0600538421916967e-03  -2.5879363726707483e-03  -6.3906290426472942e-04  3.3837257823486500e-03  -1.2105393173271565e-04  9.0744697433233607e-04  -1.5981662854746852e-03  -6.8021014722096252e-04  1.5667388640034235e-03  6.3635698447627495e-04  -9.7123690948633162e-04  -2.6078012341269310e-04  1.8042738971770921e-04  -9.9786908030268700e-04  -1.1288800348833654e-03  5.9908789924974519e-04  1.9040478124480414e-03  9.1423955185273610e-04  -2.8159326016400168e-04  -5.9548923490706921e-04  -1.3711440859566151e-04  -1.1275874227942954e-03  8.8757904200531209e-04  1.2731410913042729e-03  -3.9984943589052607e-04  -3.5948290529566374e-04  -1.0503342697393829e-03  6.2621262268333817e-04  1.7319041920339150e-04  -5.9463194678028924e-04  -3.9565999027801749e-04  4.9388285950506799e-04  -7.6869002984029954e-04  4.3810892990387042e-04  -2.5805669302759267e-04  1.2681727760143708e-04  8.8362382512543686e-05  1.5467227462783454e-04  1.9132502478016672e-04  0.0000000000000000e+00  0.0000000000000000e+00  2.1374888238792487e-02  1.1893186504896642e-02  -4.2396830509027754e-02  2.9726042890989846e-02  -8.0443417906724121e-04  2.4591813551796769e-03  -5.9638015903985637e-03  -8.8252028444944682e-03  3.5298589942335097e-02  -8.5877563241117894e-02  4.8955445664150277e-02  3.9677584783362516e-02  -5.4636334864457785e-02  -3.1076791155824776e-02  5.0757827366703014e-02  -7.2088130321313768e-02  4.2988340599683039e-02  2.1387406249147953e-02  -3.2532245208505145e-02  8.3026046205166487e-02  -8.8130332548245899e-02  9.6476897379725077e-02  -1.1904483315560330e-01  8.1538232666771598e-02  -3.7949337773082029e-02  5.8668954268693146e-02  -7.6053728304344967e-02  4.0623162092719350e-02  2.2124488989221626e-02  -4.3511978722252202e-02  -1.5931702095280394e-02  1.1581592366259448e-01  -1.1594585852973113e-01  1.8059695450768208e-02  -7.1181013070478359e-03  1.6858151195878867e-02  5.0872296025854594e-02  4.0252304724838650e-02  1.9872542098562568e-02  -2.7490675295958146e-02  -4.3500650225322020e-02  -4.2792652455028120e-02  -5.0238662481977871e-02  -1.6709946261970678e-02  2.5488160168512766e-02  7.8549658355051843e-02  -1.0050693534598763e-01  6.2718335541521397e-02  -3.7829728793847418e-02  3.3521346944173726e-02  -2.5559465380012681e-02  2.8119224297047378e-02  -4.6657887693262916e-03  -1.4776655505258869e-02  -8.0186721960253341e-03  1.6165424518776998e-02  7.4225294690178226e-03  -8.6668674019928435e-03  5.1410405756457216e-03  -5.2666913218732932e-03  1.0922775917257669e-03  4.0441747886505557e-03  -5.2876324728962937e-03  3.4489722443830188e-03  2.8473200197500028e-03  -1.1867602061898868e-04  6.3224248042553929e-04  -3.1967778181531689e-03  1.2627241090006013e-03  2.0316888365617914e-03  -5.7691004920008540e-05  -1.5076284759240194e-03  4.4349270113328568e-04  -4.9858579875300272e-04  -1.7512896285698880e-03  -1.1047081717846772e-03  2.5922138514078460e-03  2.1657628825790913e-03  7.5018147920632647e-04  -9.3586612107778087e-04  -5.1853962624250202e-04  -1.0127582693680087e-03  -6.0690636515728000e-04  2.1805412183415803e-03  9.8102345670896874e-04  -1.0781509644737770e-03  -6.8738304269930716e-04  -9.3801079211074372e-04  1.3279960521802951e-03  -3.7723821304127734e-04  -1.2755110608227318e-03  2.3090882015426519e-04  2.2180245554434422e-04  -8.3217855499851930e-04  2.5180150303900190e-04  -8.2093183353749313e-05  3.8149927471205014e-06  5.7695759238294917e-05  5.5888549653973897e-05  0.0000000000000000e+00  0.0000000000000000e+00  -1.3259205406932454e-02  -1.3773069869480230e-02  2.1027291241408449e-02  4.9703754518200579e-03  -2.7077872595397440e-03  -3.2906245418113593e-02  3.6214344588704026e-02  2.8089126155415603e-02  -3.1297822756141444e-02  -1.0628914456801692e-02  2.4435236836624907e-02  -5.0059266780070062e-02  4.3722501217050694e-02  3.9650648279675703e-02  -1.1770633206660282e-01  1.8333188024306109e-02  3.8312029636810498e-02  -5.1594176560025462e-02  7.8490200073761590e-02  -3.3982907830842297e-02  4.4374035538193510e-02  -2.8303246799370645e-03  -3.7256661834073224e-02  2.5155172208047333e-02  -1.9204616674484937e-02  -5.9627557763841108e-03  5.7085528657083835e-02  -8.5246546108292548e-02  9.7317405938274690e-02  -5.6855764331150853e-02  -6.1838208043436510e-02  1.0921846228371487e-01  3.4674963120541177e-02  -1.1683777974371448e-01  4.2070262431344405e-03  9.2260557506955287e-03  5.6996153904170566e-02  5.9292365024284137e-02  3.9303488738128015e-02  4.8083665769909113e-03  3.8879861525934444e-04  -7.1961848513363000e-02  -9.7996268297843192e-02  -9.8736308612732363e-03  -1.8611720138628704e-02  7.3444301218966376e-02  1.2632939581748853e-02  -4.6413792657437544e-02  8.1938235300284355e-03  1.8482310010631071e-02  -1.3365669384750043e-02  9.6710413584076248e-03  1.4765581722061721e-02  -5.4327858548154700e-03  -2.6751469248920905e-02  8.2505517849901996e-03  1.8027525760509915e-02  -4.2490890840450574e-04  -5.5742124070201488e-03  4.4852426305369304e-03  -8.2432472310120936e-03  8.3982048565870333e-03  -2.6591431817213551e-03  -3.1111644332886563e-03  6.6768063718895257e-03  7.3516068345549424e-04  1.3538811757058634e-03  -2.1081941514025484e-03  -2.1853530411731241e-03  2.9957577896944825e-03  1.7497590687617893e-03  -1.4140953108534643e-03  -8.6818191515076885e-04  6.0461524865842780e-04  -1.6147279666905443e-03  -2.2999109239462542e-03  4.2805941997270034e-04  4.0132885097144437e-03  2.1455866249456123e-03  -9.0752897178143031e-05  -1.1974670874331905e-03  -3.4547475222695338e-04  -2.0841338184420274e-03  1.2209360632389620e-03  2.7780102634856131e-03  -1.9651447606388480e-04  -9.8747019689473690e-04  -1.7920477740101955e-03  6.5491031590921120e-04  8.0216983906846394e-04  -1.0081153310080482e-03  -1.1152813115722520e-03  7.7613279286708786e-04  -1.0668869280921897e-03  3.4532913427687105e-04  -4.7644938068148779e-04  1.0193288848868688e-04  -2.2242864478091933e-05  4.2812716036921869e-05  0.0000000000000000e+00  0.0000000000000000e+00  4.0686784166531501e-02  3.5301752162634065e-02  -5.4386258685115681e-03  -5.0278830116128687e-02  5.6726067520788112e-02  5.1201544953748072e-03  -1.7992837853767908e-02  7.0299696010183007e-03  1.7131238226419793e-02  3.3061545031876777e-02  -1.0811330935164395e-01  9.4185513942424096e-02  1.5046911841314835e-02  -5.8154539771777140e-02  5.2694587983142561e-03  1.0204258203608671e-02  -9.8071232139707781e-02  8.0182343179740767e-02  -3.1670420569422345e-03  -6.6122130382511302e-03  8.7347669760483457e-02  -9.3708158211935857e-02  1.2304196681238140e-01  -1.7091046897873136e-01  1.2779201951214250e-01  -6.0471370989987859e-02  6.1333319932392036e-02  -7.3884566910229835e-02  2.5190216617199154e-02  6.8353174020256285e-02  -8.3485057051470551e-02  -5.0301163072480025e-02  1.8492457259987732e-01  -1.2332009053353121e-01  -1.8899688497575871e-02  -2.3186353117781083e-02  1.5215803776499046e-02  8.6710218216114396e-02  8.0032919819469361e-02  4.7522405759747331e-02  -1.9238005525329414e-02  -3.0107866413838284e-02  -6.5729727644131694e-02  -1.0471151677839086e-01  -2.6752631189277540e-02  2.4296022134853726e-02  1.2019285019752979e-01  -1.1972135142955148e-01  6.4961492980509794e-02  -5.0257828409780575e-02  5.2732796059831916e-02  -3.9554720535096330e-02  4.0622072436910954e-02  -1.7159814830540185e-03  -1.8662091493092885e-02  -2.0523254071756671e-02  2.2795806442550425e-02  1.4807451803048375e-02  -1.0759466116918755e-02  4.5796341798861086e-03  -4.8517593531963435e-03  -1.7639297917445677e-03  8.2378076596332315e-03  -7.7080554913111082e-03  3.2641990373795614e-03  5.8436887688249669e-03  -1.8654353686919861e-05  1.4278859503741898e-03  -4.6247721631211061e-03  9.4218382703323733e-04  3.5702505482917142e-03  5.6608345741505808e-04  -2.2688053129026556e-03  3.5381121206532102e-04  -2.7834127480627294e-04  -2.6584177289343640e-03  -2.0794352529598867e-03  3.3818087173115661e-03  4.0760321058696545e-03  1.7004331456904381e-03  -1.1326694082423013e-03  -9.6082119101758765e-04  -1.2009891373391047e-03  -1.4325095996089296e-03  3.2056008416381791e-03  2.1794442872404649e-03  -1.3532262092410411e-03  -1.0616072560349975e-03  -1.8118571152002201e-03  1.9152150864597073e-03  -2.5825477336621360e-04  -1.8383754328025262e-03  1.3831126548326727e-05  5.2001254688572923e-04  -1.5012664193972452e-03  5.3955158564730895e-04  -3.5327747085902314e-04  -2.7709073207706761e-05  -1.5149038651330671e-05  0.0000000000000000e+00  0.0000000000000000e+00  -3.0180026239588091e-02  -8.5439832116448160e-03  5.5910333917284331e-03  4.1429055274220417e-02  -2.2581209186173054e-02  7.2289687777255859e-03  -2.4194936309017229e-02  4.3770117280380834e-02  2.7199461332057671e-02  -2.6915763486381326e-02  3.4778048629481428e-03  -1.9781554135443063e-02  -8.3866530869400116e-03  6.9622376321879911e-02  8.1354018026819856e-03  -1.2919037822523741e-01  3.5881649506387822e-02  1.5644120722922185e-03  -2.8866963540659811e-02  7.7993211519638811e-02  -3.5555940681639857e-02  7.9749170737876143e-02  -3.3414812496521354e-02  1.2495314871255076e-03  -3.6546104713310663e-02  2.1100723299097339e-02  -1.7763344021769670e-02  8.3434870447114978e-02  -1.2322556969346621e-01  1.1038226986363413e-01  -3.6635537003125253e-02  -8.9911071666798695e-02  1.0529858437098563e-01  8.9347475246010527e-02  -1.7246488501257845e-01  2.8593669006147003e-03  2.4967408415695409e-03  6.0429329093348041e-02  9.1776325316258581e-02  7.9779875250276980e-02  3.7386835080814279e-02  2.2330504963925264e-03  -8.4546554609918792e-02  -1.1894453726221113e-01  -4.5796754877290562e-02  -3.5612505413281773e-02  8.8150214697033963e-02  5.3246840944115893e-02  -9.2526354580668116e-02  3.4730381623630020e-02  -1.0514361492320488e-03  4.8843264677081834e-03  -4.5666728306114363e-03  3.1312508716425977e-02  -7.9900007514994188e-03  -3.5353543562432060e-02  1.9962566984428540e-03  2.7507149191454378e-02  4.0745914503986860e-03  -9.8653769289353301e-03  6.7282460846664728e-03  -1.0505039881493466e-02  8.5189759850140753e-03  -2.3810444971388120e-04  -5.8933633270068508e-03  8.5625363662028969e-03  2.7026007824821909e-03  1.3569716954928536e-03  -1.7640929262923962e-03  -3.7529435395616370e-03  3.7386170442892446e-03  3.0970665216222908e-03  -1.3185881164558331e-03  -1.6015344647909969e-03  8.7095396358366885e-04  -1.7796757955448812e-03  -3.3405194984269179e-03  -7.1819979283808109e-05  5.6684705524115680e-03  3.6794447890349858e-03  4.8703649355155752e-04  -1.6224633679321990e-03  -6.9023926454157662e-04  -2.5168204727805590e-03  1.0020465720877872e-03  4.1865198413768914e-03  5.4022377010300800e-04  -1.5452423503019470e-03  -2.0741272078819220e-03  1.9896970748256164e-04  1.5604227085150636e-03  -1.2658631865188801e-03  -1.8070214085652953e-03  8.6224847237822359e-04  -8.6233345149654302e-04  -1.6048119311181408e-04  -2.9930294192127041e-04  9.5658903566603786e-06  -4.4117960213139094e-05  0.0000000000000000e+00  0.0000000000000000e+00  3.9353745683483208e-03  1.3758081338417756e-02  5.6233446155257300e-03  -3.4568477122463144e-02  -3.2654516217662036e-02  5.9393691734004814e-02  3.9060178475613530e-03  -3.7464060870746246e-02  2.3334035520093711e-02  3.2214019420156420e-02  2.1643124758481253e-02  -9.4245699421221352e-02  7.5627421098787145e-02  5.1908126742287678e-03  -2.3021015496067398e-02  9.9848395266695263e-03  -3.5952471340304201e-02  -8.5603452236692620e-02  6.8672174095578201e-02  -2.0581928270425242e-03  1.8300858183997900e-02  7.0111071470132014e-02  -5.5679170671899363e-02  9.9288795069589611e-02  -1.5186545210771693e-01  1.0284446002096780e-01  -4.8400165985757540e-02  4.8708885381132418e-02  -4.7339455947421692e-02  -3.1404390049158118e-03  1.0017513593906097e-01  -1.0741302509351237e-01  -7.3794780607587568e-02  2.1878680847020171e-01  -9.0431496738685779e-02  -8.3911681720397147e-02  -3.1002205210323996e-02  1.5141824718634171e-02  1.1286725644804650e-01  1.1626572746024805e-01  7.6572929889721225e-02  4.4544775907219853e-03  -1.9956678319930820e-02  -9.2342085627424395e-02  -1.4419954677273120e-01  -4.5061274606757448e-02  1.8183828423759700e-02  1.4345645320795952e-01  -9.9584272925413928e-02  2.4070268449243325e-02  -3.0226284698547486e-02  4.4740695029550220e-02  -3.3765348173194376e-02  3.6911332744826997e-02  9.6619973341291656e-03  -2.2661922397124543e-02  -3.1829962580586624e-02  2.3320163030643059e-02  2.3565717786751286e-02  -8.9370973392304039e-03  7.3265494840750846e-04  -2.3448189936011426e-03  -4.9585072873837878e-03  1.0766570005535187e-02  -7.6808866003032572e-03  1.4916293245944910e-03  8.7074062363841857e-03  9.5471442667344566e-04  1.6897722719535226e-03  -5.0189523572253944e-03  -1.4269673807066965e-04  4.8762662932827451e-03  1.5389664317040828e-03  -2.5678870643306971e-03  -1.3554920690432077e-04  9.3091965187195840e-05  -3.2172660302288414e-03  -3.0122057135798328e-03  3.5130996610086567e-03  6.1325443197081404e-03  2.9169781862546404e-03  -8.9532016870144096e-04  -1.3969675508328438e-03  -1.4109970698885906e-03  -2.0541684485344009e-03  3.6419320510807586e-03  3.5323238019676463e-03  -1.0862926630730426e-03  -1.6460092658454671e-03  -2.2424392353572412e-03  2.0585222035315008e-03  3.7309329209885402e-04  -2.1454893397540287e-03  -4.5691003020436016e-04  6.4905149688469191e-04  -1.6658705629861263e-03  4.5503606426407553e-04  -3.9655572020316093e-04  1.0441152125990482e-05  0.0000000000000000e+00  0.0000000000000000e+00  9.0075792398244207e-03  9.9040326211271377e-03  8.1396911634991596e-03  1.1500344773996484e-02  1.8663188164427209e-02  -4.4180800660318133e-02  1.3294083251