<?xml version="1.0"?>
<VTKFile type="UnstructuredGrid"  version="0.1"  >
<UnstructuredGrid>
<Piece  NumberOfPoints="10201" NumberOfCells="20000">
<Points>
<DataArray  type="Float64"  NumberOfComponents="3"  format="ascii">0 0 0  0.01 0 0  0.02 0 0  0.03 0 0  0.04 0 0  0.05 0 0  0.06 0 0  0.07000000000000001 0 0  0.08 0 0  0.09 0 0  0.1 0 0  0.11 0 0  0.12 0 0  0.13 0 0  0.14 0 0  0.15 0 0  0.16 0 0  0.17 0 0  0.18 0 0  0.19 0 0  0.2 0 0  0.21 0 0  0.22 0 0  0.23 0 0  0.24 0 0  0.25 0 0  0.26 0 0  0.27 0 0  0.28 0 0  0.29 0 0  0.3 0 0  0.31 0 0  0.32 0 0  0.33 0 0  0.34 0 0  0.35 0 0  0.36 0 0  0.37 0 0  0.38 0 0  0.39 0 0  0.4 0 0  0.41 0 0  0.42 0 0  0.43 0 0  0.44 0 0  0.45 0 0  0.46 0 0  0.47 0 0  0.48 0 0  0.49 0 0  0.5 0 0  0.51 0 0  0.52 0 0  0.53 0 0  0.54 0 0  0.55 0 0  0.5600000000000001 0 0  0.57 0 0  0.58 0 0  0.59 0 0  0.6 0 0  0.61 0 0  0.62 0 0  0.63 0 0  0.64 0 0  0.65 0 0  0.66 0 0  0.67 0 0  0.68 0 0  0.6899999999999999 0 0  0.7 0 0  0.71 0 0  0.72 0 0  0.73 0 0  0.74 0 0  0.75 0 0  0.76 0 0  0.77 0 0  0.78 0 0  0.79 0 0  0.8 0 0  0.8100000000000001 0 0  0.82 0 0  0.83 0 0  0.84 0 0  0.85 0 0  0.86 0 0  0.87 0 0  0.88 0 0  0.89 0 0  0.9 0 0  0.91 0 0  0.92 0 0  0.93 0 0  0.9399999999999999 0 0  0.95 0 0  0.96 0 0  0.97 0 0  0.98 0 0  0.99 0 0  1 0 0  0 0.01 0  0.01 0.01 0  0.02 0.01 0  0.03 0.01 0  0.04 0.01 0  0.05 0.01 0  0.06 0.01 0  0.07000000000000001 0.01 0  0.08 0.01 0  0.09 0.01 0  0.1 0.01 0  0.11 0.01 0  0.12 0.01 0  0.13 0.01 0  0.14 0.01 0  0.15 0.01 0  0.16 0.01 0  0.17 0.01 0  0.18 0.01 0  0.19 0.01 0  0.2 0.01 0  0.21 0.01 0  0.22 0.01 0  0.23 0.01 0  0.24 0.01 0  0.25 0.01 0  0.26 0.01 0  0.27 0.01 0  0.28 0.01 0  0.29 0.01 0  0.3 0.01 0  0.31 0.01 0  0.32 0.01 0  0.33 0.01 0  0.34 0.01 0  0.35 0.01 0  0.36 0.01 0  0.37 0.01 0  0.38 0.01 0  0.39 0.01 0  0.4 0.01 0  0.41 0.01 0  0.42 0.01 0  0.43 0.01 0  0.44 0.01 0  0.45 0.01 0  0.46 0.01 0  0.47 0.01 0  0.48 0.01 0  0.49 0.01 0  0.5 0.01 0  0.51 0.01 0  0.52 0.01 0  0.53 0.01 0  0.54 0.01 0  0.55 0.01 0  0.5600000000000001 0.01 0  0.57 0.01 0  0.58 0.01 0  0.59 0.01 0  0.6 0.01 0  0.61 0.01 0  0.62 0.01 0  0.63 0.01 0  0.64 0.01 0  0.65 0.01 0  0.66 0.01 0  0.67 0.01 0  0.68 0.01 0  0.6899999999999999 0.01 0  0.7 0.01 0  0.71 0.01 0  0.72 0.01 0  0.73 0.01 0  0.74 0.01 0  0.75 0.01 0  0.76 0.01 0  0.77 0.01 0  0.78 0.01 0  0.79 0.01 0  0.8 0.01 0  0.8100000000000001 0.01 0  0.82 0.01 0  0.83 0.01 0  0.84 0.01 0  0.85 0.01 0  0.86 0.01 0  0.87 0.01 0  0.88 0.01 0  0.89 0.01 0  0.9 0.01 0  0.91 0.01 0  0.92 0.01 0  0.93 0.01 0  0.9399999999999999 0.01 0  0.95 0.01 0  0.96 0.01 0  0.97 0.01 0  0.98 0.01 0  0.99 0.01 0  1 0.01 0  0 0.02 0  0.01 0.02 0  0.02 0.02 0  0.03 0.02 0  0.04 0.02 0  0.05 0.02 0  0.06 0.02 0  0.07000000000000001 0.02 0  0.08 0.02 0  0.09 0.02 0  0.1 0.02 0  0.11 0.02 0  0.12 0.02 0  0.13 0.02 0  0.14 0.02 0  0.15 0.02 0  0.16 0.02 0  0.17 0.02 0  0.18 0.02 0  0.19 0.02 0  0.2 0.02 0  0.21 0.02 0  0.22 0.02 0  0.23 0.02 0  0.24 0.02 0  0.25 0.02 0  0.26 0.02 0  0.27 0.02 0  0.28 0.02 0  0.29 0.02 0  0.3 0.02 0  0.31 0.02 0  0.32 0.02 0  0.33 0.02 0  0.34 0.02 0  0.35 0.02 0  0.36 0.02 0  0.37 0.02 0  0.38 0.02 0  0.39 0.02 0  0.4 0.02 0  0.41 0.02 0  0.42 0.02 0  0.43 0.02 0  0.44 0.02 0  0.45 0.02 0  0.46 0.02 0  0.47 0.02 0  0.48 0.02 0  0.49 0.02 0  0.5 0.02 0  0.51 0.02 0  0.52 0.02 0  0.53 0.02 0  0.54 0.02 0  0.55 0.02 0  0.5600000000000001 0.02 0  0.57 0.02 0  0.58 0.02 0  0.59 0.02 0  0.6 0.02 0  0.61 0.02 0  0.62 0.02 0  0.63 0.02 0  0.64 0.02 0  0.65 0.02 0  0.66 0.02 0  0.67 0.02 0  0.68 0.02 0  0.6899999999999999 0.02 0  0.7 0.02 0  0.71 0.02 0  0.72 0.02 0  0.73 0.02 0  0.74 0.02 0  0.75 0.02 0  0.76 0.02 0  0.77 0.02 0  0.78 0.02 0  0.79 0.02 0  0.8 0.02 0  0.8100000000000001 0.02 0  0.82 0.02 0  0.83 0.02 0  0.84 0.02 0  0.85 0.02 0  0.86 0.02 0  0.87 0.02 0  0.88 0.02 0  0.89 0.02 0  0.9 0.02 0  0.91 0.02 0  0.92 0.02 0  0.93 0.02 0  0.9399999999999999 0.02 0  0.95 0.02 0  0.96 0.02 0  0.97 0.02 0  0.98 0.02 0  0.99 0.02 0  1 0.02 0  0 0.03 0  0.01 0.03 0  0.02 0.03 0  0.03 0.03 0  0.04 0.03 0  0.05 0.03 0  0.06 0.03 0  0.07000000000000001 0.03 0  0.08 0.03 0  0.09 0.03 0  0.1 0.03 0  0.11 0.03 0  0.12 0.03 0  0.13 0.03 0  0.14 0.03 0  0.15 0.03 0  0.16 0.03 0  0.17 0.03 0  0.18 0.03 0  0.19 0.03 0  0.2 0.03 0  0.21 0.03 0  0.22 0.03 0  0.23 0.03 0  0.24 0.03 0  0.25 0.03 0  0.26 0.03 0  0.27 0.03 0  0.28 0.03 0  0.29 0.03 0  0.3 0.03 0  0.31 0.03 0  0.32 0.03 0  0.33 0.03 0  0.34 0.03 0  0.35 0.03 0  0.36 0.03 0  0.37 0.03 0  0.38 0.03 0  0.39 0.03 0  0.4 0.03 0  0.41 0.03 0  0.42 0.03 0  0.43 0.03 0  0.44 0.03 0  0.45 0.03 0  0.46 0.03 0  0.47 0.03 0  0.48 0.03 0  0.49 0.03 0  0.5 0.03 0  0.51 0.03 0  0.52 0.03 0  0.53 0.03 0  0.54 0.03 0  0.55 0.03 0  0.5600000000000001 0.03 0  0.57 0.03 0  0.58 0.03 0  0.59 0.03 0  0.6 0.03 0  0.61 0.03 0  0.62 0.03 0  0.63 0.03 0  0.64 0.03 0  0.65 0.03 0  0.66 0.03 0  0.67 0.03 0  0.68 0.03 0  0.6899999999999999 0.03 0  0.7 0.03 0  0.71 0.03 0  0.72 0.03 0  0.73 0.03 0  0.74 0.03 0  0.75 0.03 0  0.76 0.03 0  0.77 0.03 0  0.78 0.03 0  0.79 0.03 0  0.8 0.03 0  0.8100000000000001 0.03 0  0.82 0.03 0  0.83 0.03 0  0.84 0.03 0  0.85 0.03 0  0.86 0.03 0  0.87 0.03 0  0.88 0.03 0  0.89 0.03 0  0.9 0.03 0  0.91 0.03 0  0.92 0.03 0  0.93 0.03 0  0.9399999999999999 0.03 0  0.95 0.03 0  0.96 0.03 0  0.97 0.03 0  0.98 0.03 0  0.99 0.03 0  1 0.03 0  0 0.04 0  0.01 0.04 0  0.02 0.04 0  0.03 0.04 0  0.04 0.04 0  0.05 0.04 0  0.06 0.04 0  0.07000000000000001 0.04 0  0.08 0.04 0  0.09 0.04 0  0.1 0.04 0  0.11 0.04 0  0.12 0.04 0  0.13 0.04 0  0.14 0.04 0  0.15 0.04 0  0.16 0.04 0  0.17 0.04 0  0.18 0.04 0  0.19 0.04 0  0.2 0.04 0  0.21 0.04 0  0.22 0.04 0  0.23 0.04 0  0.24 0.04 0  0.25 0.04 0  0.26 0.04 0  0.27 0.04 0  0.28 0.04 0  0.29 0.04 0  0.3 0.04 0  0.31 0.04 0  0.32 0.04 0  0.33 0.04 0  0.34 0.04 0  0.35 0.04 0  0.36 0.04 0  0.37 0.04 0  0.38 0.04 0  0.39 0.04 0  0.4 0.04 0  0.41 0.04 0  0.42 0.04 0  0.43 0.04 0  0.44 0.04 0  0.45 0.04 0  0.46 0.04 0  0.47 0.04 0  0.48 0.04 0  0.49 0.04 0  0.5 0.04 0  0.51 0.04 0  0.52 0.04 0  0.53 0.04 0  0.54 0.04 0  0.55 0.04 0  0.5600000000000001 0.04 0  0.57 0.04 0  0.58 0.04 0  0.59 0.04 0  0.6 0.04 0  0.61 0.04 0  0.62 0.04 0  0.63 0.04 0  0.64 0.04 0  0.65 0.04 0  0.66 0.04 0  0.67 0.04 0  0.68 0.04 0  0.6899999999999999 0.04 0  0.7 0.04 0  0.71 0.04 0  0.72 0.04 0  0.73 0.04 0  0.74 0.04 0  0.75 0.04 0  0.76 0.04 0  0.77 0.04 0  0.78 0.04 0  0.79 0.04 0  0.8 0.04 0  0.8100000000000001 0.04 0  0.82 0.04 0  0.83 0.04 0  0.84 0.04 0  0.85 0.04 0  0.86 0.04 0  0.87 0.04 0  0.88 0.04 0  0.89 0.04 0  0.9 0.04 0  0.91 0.04 0  0.92 0.04 0  0.93 0.04 0  0.9399999999999999 0.04 0  0.95 0.04 0  0.96 0.04 0  0.97 0.04 0  0.98 0.04 0  0.99 0.04 0  1 0.04 0  0 0.05 0  0.01 0.05 0  0.02 0.05 0  0.03 0.05 0  0.04 0.05 0  0.05 0.05 0  0.06 0.05 0  0.07000000000000001 0.05 0  0.08 0.05 0  0.09 0.05 0  0.1 0.05 0  0.11 0.05 0  0.12 0.05 0  0.13 0.05 0  0.14 0.05 0  0.15 0.05 0  0.16 0.05 0  0.17 0.05 0  0.18 0.05 0  0.19 0.05 0  0.2 0.05 0  0.21 0.05 0  0.22 0.05 0  0.23 0.05 0  0.24 0.05 0  0.25 0.05 0  0.26 0.05 0  0.27 0.05 0  0.28 0.05 0  0.29 0.05 0  0.3 0.05 0  0.31 0.05 0  0.32 0.05 0  0.33 0.05 0  0.34 0.05 0  0.35 0.05 0  0.36 0.05 0  0.37 0.05 0  0.38 0.05 0  0.39 0.05 0  0.4 0.05 0  0.41 0.05 0  0.42 0.05 0  0.43 0.05 0  0.44 0.05 0  0.45 0.05 0  0.46 0.05 0  0.47 0.05 0  0.48 0.05 0  0.49 0.05 0  0.5 0.05 0  0.51 0.05 0  0.52 0.05 0  0.53 0.05 0  0.54 0.05 0  0.55 0.05 0  0.5600000000000001 0.05 0  0.57 0.05 0  0.58 0.05 0  0.59 0.05 0  0.6 0.05 0  0.61 0.05 0  0.62 0.05 0  0.63 0.05 0  0.64 0.05 0  0.65 0.05 0  0.66 0.05 0  0.67 0.05 0  0.68 0.05 0  0.6899999999999999 0.05 0  0.7 0.05 0  0.71 0.05 0  0.72 0.05 0  0.73 0.05 0  0.74 0.05 0  0.75 0.05 0  0.76 0.05 0  0.77 0.05 0  0.78 0.05 0  0.79 0.05 0  0.8 0.05 0  0.8100000000000001 0.05 0  0.82 0.05 0  0.83 0.05 0  0.84 0.05 0  0.85 0.05 0  0.86 0.05 0  0.87 0.05 0  0.88 0.05 0  0.89 0.05 0  0.9 0.05 0  0.91 0.05 0  0.92 0.05 0  0.93 0.05 0  0.9399999999999999 0.05 0  0.95 0.05 0  0.96 0.05 0  0.97 0.05 0  0.98 0.05 0  0.99 0.05 0  1 0.05 0  0 0.06 0  0.01 0.06 0  0.02 0.06 0  0.03 0.06 0  0.04 0.06 0  0.05 0.06 0  0.06 0.06 0  0.07000000000000001 0.06 0  0.08 0.06 0  0.09 0.06 0  0.1 0.06 0  0.11 0.06 0  0.12 0.06 0  0.13 0.06 0  0.14 0.06 0  0.15 0.06 0  0.16 0.06 0  0.17 0.06 0  0.18 0.06 0  0.19 0.06 0  0.2 0.06 0  0.21 0.06 0  0.22 0.06 0  0.23 0.06 0  0.24 0.06 0  0.25 0.06 0  0.26 0.06 0  0.27 0.06 0  0.28 0.06 0  0.29 0.06 0  0.3 0.06 0  0.31 0.06 0  0.32 0.06 0  0.33 0.06 0  0.34 0.06 0  0.35 0.06 0  0.36 0.06 0  0.37 0.06 0  0.38 0.06 0  0.39 0.06 0  0.4 0.06 0  0.41 0.06 0  0.42 0.06 0  0.43 0.06 0  0.44 0.06 0  0.45 0.06 0  0.46 0.06 0  0.47 0.06 0  0.48 0.06 0  0.49 0.06 0  0.5 0.06 0  0.51 0.06 0  0.52 0.06 0  0.53 0.06 0  0.54 0.06 0  0.55 0.06 0  0.5600000000000001 0.06 0  0.57 0.06 0  0.58 0.06 0  0.59 0.06 0  0.6 0.06 0  0.61 0.06 0  0.62 0.06 0  0.63 0.06 0  0.64 0.06 0  0.65 0.06 0  0.66 0.06 0  0.67 0.06 0  0.68 0.06 0  0.6899999999999999 0.06 0  0.7 0.06 0  0.71 0.06 0  0.72 0.06 0  0.73 0.06 0  0.74 0.06 0  0.75 0.06 0  0.76 0.06 0  0.77 0.06 0  0.78 0.06 0  0.79 0.06 0  0.8 0.06 0  0.8100000000000001 0.06 0  0.82 0.06 0  0.83 0.06 0  0.84 0.06 0  0.85 0.06 0  0.86 0.06 0  0.87 0.06 0  0.88 0.06 0  0.89 0.06 0  0.9 0.06 0  0.91 0.06 0  0.92 0.06 0  0.93 0.06 0  0.9399999999999999 0.06 0  0.95 0.06 0  0.96 0.06 0  0.97 0.06 0  0.98 0.06 0  0.99 0.06 0  1 0.06 0  0 0.07000000000000001 0  0.01 0.07000000000000001 0  0.02 0.07000000000000001 0  0.03 0.07000000000000001 0  0.04 0.07000000000000001 0  0.05 0.07000000000000001 0  0.06 0.07000000000000001 0  0.07000000000000001 0.07000000000000001 0  0.08 0.07000000000000001 0  0.09 0.07000000000000001 0  0.1 0.07000000000000001 0  0.11 0.07000000000000001 0  0.12 0.07000000000000001 0  0.13 0.07000000000000001 0  0.14 0.07000000000000001 0  0.15 0.07000000000000001 0  0.16 0.07000000000000001 0  0.17 0.0700
[...]
<PointData  Scalars="Indicator Function"> 
<DataArray  type="Float64"  Name="Indicator Function"  format="ascii">-7.3822937655966714e-19  5.8615032447889708e-18  4.0257777056385777e-17  1.5692119906688706e-18  9.7286629770789009e-17  -1.7899204548855229e-19  -4.3738756932218629e-19  6.1982957468119871e-17  2.3377348863424099e-16  -1.1555579666323415e-33  7.5229387695180610e-17  8.8917198319527119e-17  -2.1996301535928778e-19  -1.7874752809172639e-18  3.3448717735013098e-16  -9.2051494268513397e-19  -4.0163316845246306e-18  3.5950509496704656e-16  -1.0981455055947441e-18  -1.3808005204398284e-18  9.4642787061048335e-16  -1.9045713013356377e-18  -6.2708081351348649e-19  1.7127881117354913e-16  -2.9776806368414614e-19  -1.1311281436856077e-18  -1.2116376169331112e-18  -5.8863107515394815e-19  -2.8428456784108292e-17  -2.0504455964480367e-18  -2.6895345850930060e-18  -1.3447672925465032e-18  -1.3998355876381628e-18  -2.2395353296610782e-18  5.0642568834027986e-17  -6.7282331834455448e-19  -3.1928645562260358e-18  -4.2844919273744250e-18  -3.4032644520846894e-18  -5.9065760838660847e-18  6.3188152410113190e-16  -8.3325635546836987e-19  -1.3898488834341032e-18  -2.1357187508006158e-18  -1.7045902948814919e-18  -8.5229514744072199e-19  1.2999054643552092e-16  -1.1226696297954431e-18  -2.9178903165508741e-19  -5.4034056745682971e-19  -2.7017028372841481e-19  -4.8603635565771177e-19  -2.0668855806804419e-19  -7.5288863707784047e-19  -5.0977971306679202e-19  1.1555579666323415e-33  1.7256332301709633e-31  -3.3548301947620209e-22  1.2413220344683356e-35  -1.3448256664084398e-21  -7.1832318417729090e-22  3.9496610187628860e-36  -7.0427014782655359e-22  -5.7470771824896660e-22  -6.0016203508066823e-21  -4.5424949362584570e-21  -4.4673014100270124e-20  -1.3561816092384321e-21  3.3817308926538927e-17  -1.1490625805240464e-19  -2.9600800043914746e-20  -2.0812159408607133e-21  -6.0185310762101120e-36  -5.2985669415878581e-20  -2.9955145797265389e-19  -2.3391077964365352e-19  -6.3681747438378213e-20  -1.6736340429443018e-19  -9.9967205415257329e-20  -5.3450862036779611e-20  -3.1027530366772150e-20  1.0751236504572913e-17  -2.4824356524670385e-20  -6.2719870804472885e-20  -5.5383969596145801e-20  -3.6110726727282025e-20  -1.9566718584935151e-20  -9.8324484357339202e-21  -4.6924104165497030e-21  -1.6880269401614772e-21  -3.8483659818279502e-22  -8.6347748648532249e-22  -1.1126300998476375e-21  1.4289773814271952e-21  -1.0655023706484400e-21  -8.8585236387792500e-22  -6.1868539325419753e-22  -4.7476547364041772e-22  -9.6842578621946941e-23  9.4039548065783001e-38  2.3509887016445750e-37  1.9259299443872359e-34  1.3298758180752299e-02  4.4953847874708248e-02  1.3637462469395642e-02  9.4727864393932982e-03  5.0706386266409194e-03  3.2244340374581069e-03  7.8792739768635423e-03  3.2417264908408155e-02  4.0935446073211389e-02  1.1053570984506465e-03  5.2101500990590549e-02  7.9250028320590228e-03  3.7502463790989926e-02  1.3449060140796833e-02  8.0816898678465227e-02  6.8039773835201336e-02  3.8331912593685152e-02  3.9564861518360604e-02  4.9748581674605864e-02  1.6811914412348763e-02  5.5075140173397090e-02  3.4309706411982874e-02  8.4643851811370824e-03  1.0728225125206036e-02  4.0753186291286256e-02  4.3653845761024282e-02  1.1431532519049823e-02  4.8880685033632371e-03  1.2258364869921854e-02  3.0808361661466475e-02  4.8450347820899679e-02  2.0380873161876319e-02  1.5026759542530594e-02  4.2474076952257855e-02  3.3639339648724148e-02  1.2120507383130866e-02  6.0043371708481147e-02  1.1210085139058032e-01  1.0348998163999983e-01  8.0619454737245133e-02  3.6050865089076463e-02  1.5010612047965813e-02  4.9633590599596912e-02  2.3108652868977508e-02  3.0707168867390604e-02  2.7350583827693460e-02  3.5514763594503718e-03  1.8448479925902535e-02  5.2564038969305955e-03  9.7339103130069608e-03  6.0869292514412893e-03  7.4053847829804714e-03  2.0677660897718874e-05  1.3562835941580970e-02  5.1651571834255890e-03  1.5190938575084586e-03  1.2087049612018135e-05  1.1907057528836333e-04  2.0394456708247943e-05  2.4226225480461405e-05  8.2704735813905913e-07  7.9963371587733721e-05  1.1665190415134436e-05  4.3671532347823053e-05  1.0862672406400752e-04  3.9726442110295165e-04  6.0612526807049777e-04  4.6006578782221002e-05  1.1422711506636843e-03  1.5148381953746391e-03  7.2691531551292312e-06  3.3857276765386526e-05  3.7440668286763525e-04  3.4695989961373882e-03  5.6535494056984053e-03  2.6829764791784145e-03  1.1471883761351280e-03  2.5470015605096544e-03  2.0892679373001473e-03  1.4143936876467060e-03  4.0450396976381272e-04  1.8513341367012239e-04  7.8292980495821491e-04  1.1529922547536893e-03  1.1105808026173330e-03  8.0413830529678094e-04  4.7744528812852929e-04  2.4508242642893240e-04  1.0703931144826306e-04  3.1117424203766230e-05  6.9325998406982666e-06  2.2981026481787269e-05  2.8013540777476311e-05  2.8287798868396787e-05  2.5803683006425058e-05  2.1430415556658047e-05  1.6268189788582383e-05  1.0413301623227395e-05  2.0545546258829453e-06  1.5281426560689738e-37  -4.0747062497079350e-19  7.2863319584392421e-03  5.8075094342743107e-03  1.0463572629800789e-02  1.4734565907649454e-02  3.8798214467539831e-02  1.6972235261619205e-03  3.3462900216296380e-02  1.0417285268801830e-02  2.1436059614432509e-02  4.6152012426045837e-02  4.5155625607711969e-02  1.8498916235909286e-02  7.3775066022386107e-02  8.1779329716179627e-02  8.9856985415122784e-02  3.7406424011067987e-02  9.0816503173899027e-02  5.4460770963033851e-03  2.0550136603851580e-02  1.1169424163592664e-02  6.1128622664494855e-02  3.5868972539511733e-02  7.5353780141090019e-03  5.0866375087484121e-03  1.1274808561059895e-02  2.3494659668443388e-03  9.2835555988625747e-03  2.0618961700633508e-02  7.2186664704738024e-04  7.2077567501441620e-02  3.8178544563709803e-02  4.0709787112608496e-02  3.4009320995211888e-02  5.1501240059418071e-02  4.2438052708964093e-02  3.6330765253613042e-03  5.0652708022677774e-02  9.1692925446436160e-02  1.0279575465993405e-01  1.3784160092233150e-01  5.8275395362884272e-02  1.7575072608778396e-02  2.6086933489025615e-02  4.3930452865853821e-02  9.5797726340929173e-03  4.6019107462934453e-03  4.5679962051246590e-03  3.3589429435372194e-02  1.2258292131149665e-02  1.3724835689577528e-02  2.0714030685531435e-03  6.1648122267618502e-03  9.9527034367421340e-03  1.5394605249052012e-02  8.5975883927614308e-03  2.5816326202057270e-03  1.0516314939258782e-03  1.5574928065427551e-04  8.4864065155240232e-05  9.2358805666562794e-06  3.3723027027224855e-05  3.9271448892593273e-05  6.3044706988100389e-05  5.7311538928240468e-05  5.2767156570865707e-05  1.7290443710299235e-04  8.2308052790717860e-04  1.7023963771595115e-04  4.4861894616056290e-04  2.0488467387638622e-03  7.2785492834956703e-04  4.7206158908312144e-04  3.6205780161019212e-04  1.9649139244692312e-03  6.0803355102782919e-03  5.1304277624697747e-03  8.3306285459804115e-05  2.5026166692576819e-03  2.5792410667892008e-03  1.9277384073302128e-03  1.0300032681571411e-03  6.1227508752456113e-05  6.1300037351229254e-04  1.1977005829796677e-03  1.2914467415285696e-03  1.0612228339467592e-03  6.8978504311282076e-04  3.8108820550238840e-04  1.8224244923845529e-04  6.8244509754259250e-05  7.8400330033808572e-06  1.9850962356908049e-05  3.0080111931995987e-05  3.2650451348352465e-05  3.1842899552575560e-05  2.8287976658149938e-05  2.2752463681861287e-05  1.7778857887366057e-05  8.4655769037224603e-06  2.1147026389307162e-21  9.6296497219361793e-34  3.1702591259848222e-02  1.8686361383538661e-02  7.0711570717066199e-02  2.2873957166105626e-02  9.8362713418836071e-03  9.0598781777171990e-03  2.5814363566032679e-02  1.8627272277008743e-02  4.6094844032429541e-02  1.0506965988774347e-01  5.0832629621472954e-02  7.1257193297420821e-02  5.1706665068990569e-02  3.1357261994366691e-02  2.6734697901595147e-02  1.4161223985662719e-01  6.0822588590851337e-02  4.2320943037240398e-02  4.7092824286901279e-02  9.5401342027664329e-02  8.0839239234782465e-02  1.2033901347363310e-01  1.0037058080120566e-01  2.0636512747084106e-02  8.8147711230196525e-03  6.7201193260148853e-02  1.0691522537230265e-01  4.8833976811645446e-02  2.6267071813041993e-03  6.1254408620996939e-03  5.7775949323618375e-02  8.5003614105298789e-02  5.9309018421398310e-02  1.3630889799721555e-02  6.0789897874660027e-02  4.4526083189733272e-02  2.1086985664164410e-02  7.5139952446687225e-02  1.3754118718976863e-01  8.8886372210992673e-02  9.1023233271064499e-02  4.4118493431471208e-02  2.9072656725569506e-02  6.3419883847734060e-02  1.3904236148192960e-02  5.6635921582973169e-02  7.1875444780538950e-02  2.5532210132411848e-02  3.7688703327436117e-02  2.0696125396132432e-02  2.4401462297370821e-02  1.6281421661793301e-02  4.9327858359946020e-03  9.7699765432486248e-05  2.0072476858941559e-02  2.4758444074140926e-04  2.5523534930768353e-03  5.0057484379372125e-04  1.1910204596936551e-04  4.0036942346239047e-05  6.9897562610993246e-05  2.4695752830206225e-05  1.5831338508927922e-04  7.6964646550238560e-06  1.1602846390782662e-04  1.3565402165848257e-04  4.1875606502731117e-04  8.1187885751375752e-04  2.8483419122330437e-04  1.5613991712966012e-03  1.9300696078256567e-03  5.3693866905871982e-04  1.0177961265791059e-04  7.1788341854148014e-05  4.4636452328930135e-03  6.9438510708900265e-03  2.2121751028501145e-03  1.9735781387959909e-03  2.7206555342672981e-03  2.0311185351707985e-03  1.5829439904323026e-03  3.2698157750721035e-04  1.8467059517790791e-04  1.1029594670378966e-03  1.3278225745361025e-03  1.1908132947995485e-03  8.6423406327438906e-04  5.2433135213807386e-04  2.8066017312576179e-04  1.3046659141894188e-04  4.4589311588087474e-05  7.1602725194190939e-07  1.8565484194367068e-05  2.5924731895995796e-05  2.8185527490633176e-05  2.7188030224287660e-05  2.3944025514006885e-05  1.9593871153466235e-05  1.4325750576547713e-05  -5.4072740137825225e-37  -2.7109478309606316e-19  2.3224221367907267e-02  2.4437802452386227e-02  3.7101533443060261e-02  6.5474236314269907e-03  2.3644951213637827e-02  3.6348808512661909e-02  3.6166465305116108e-02  3.9931294140799538e-02  2.3538469691910056e-02  7.9572351806371580e-03  2.4529993170608739e-02  7.4164853052408206e-02  7.8882340413037627e-02  7.3722895294404622e-02  1.5273861124665492e-01  4.7158744566807409e-02  2.9290530698196936e-02  1.0967957848212541e-01  1.0170449744593571e-02  5.4226431788055245e-02  5.3602909929986148e-02  3.8020245833423762e-02  2.3673149793568170e-02  5.8028257023850990e-03  1.0703865670335700e-02  2.2877440961587954e-02  4.5389539866888651e-02  4.2542548959226080e-02  3.4597617678314999e-02  1.5375025245962822e-02  7.9228527998373793e-02  6.3281062839942850e-02  5.8294338547884052e-02  8.6152757717036690e-02  3.4201111619640970e-02  3.4297292317563052e-02  2.8743667909756961e-03  4.7310486492355107e-02  8.5514882237552214e-02  1.1665183481888165e-01  1.4416767167620190e-01  3.4649438982073393e-02  2.2479491448980395e-02  1.3136616173507094e-02  5.6273165017001123e-02  1.6755012125677624e-02  1.0937294618512170e-02  2.6078734331385873e-02  2.6376542791010073e-02  1.5980512186419594e-02  1.4979535832294494e-02  1.5997817786297997e-03  1.0907261887047815e-02  9.9942751528387195e-03  2.0398352582740309e-02  8.3419826719468848e-03  5.8878664886519996e-04  2.2464833548714916e-03  5.4868651958402104e-05  7.7523406521703876e-07  9.3141600277763905e-05  1.3430641940500486e-04  1.0560087004088477e-04  1.6108862593714257e-04  1.0198741843522077e-04  1.6337031680224514e-05  1.3163280638625385e-04  8.9302950791698499e-04  9.0246454196051730e-05  2.3981761408476248e-04  2.4736233592899384e-03  6.6582103617246632e-04  8.8639950857183315e-04  7.8924663396930789e-04  1.9206463378894996e-03  6.9227109943816130e-03  5.4322345510855524e-03  8.0761868303118908e-04  2.8718347067922434e-03  2.3763287727205820e-03  1.7329277454928328e-03  1.0297239647268203e-03  1.1588312601940323e-04  6.9785138524942414e-04  1.3812621768082678e-03  1.3056950577527580e-03  1.0347668867110094e-03  6.8036941146205703e-04  3.9146556280985983e-04  2.0274535485007017e-04  8.9796117006027540e-05  2.7466791633858781e-05  2.1350567616662395e-06  1.4559024597453854e-05  1.9775674613186720e-05  2.1613579155405011e-05  2.0219326581232124e-05  1.6739278772359746e-05  1.3591831791715313e-05  2.7237913380463108e-21  -2.2276321573738866e-18  7.2077562729594633e-02  5.7658131576219643e-02  1.1532882271300293e-02  7.8092325218788228e-02  6.4825286773556007e-02  1.4922358961949725e-02  1.3619240906695078e-02  2.2658082979450173e-02  4.7344302967860685e-02  3.6094754362385316e-02  1.0650681091133750e-01  1.0683411118797621e-01  2.3122828198115120e-02  6.0908690081897393e-02  2.9156803110929497e-02  2.8271132684319607e-03  1.7293936217733663e-01  2.9668048551496004e-02  5.2766584318921811e-02  2.4050059866211806e-02  8.2743585970111486e-02  9.8886393225339361e-02  1.5073416531434705e-01  1.3749633549733198e-01  5.6122607020373569e-02  1.2129917904527795e-02  4.5898983210657114e-02  1.1727089739976529e-01  7.1865197043252518e-02  1.4379217544351458e-02  1.7939795828648727e-02  9.2382140811507821e-02  1.1918503756442596e-01  5.4217029749490837e-02  7.2460324450676072e-03  7.8340597142311993e-02  4.5174389655327427e-02  3.5640284138557292e-02  8.5161519606447023e-02  1.3133336934215165e-01  7.4132139527719354e-02  1.1512312184024506e-01  3.6623567086112800e-02  5.0235988943052264e-02  5.6597871186006801e-02  8.4045578736697581e-03  6.3666848625242786e-02  8.7527170313145650e-02  3.8973762161338459e-02  5.0470370548126871e-02  3.4968930332352342e-02  3.4811173442169899e-02  2.1701250082311909e-02  4.1337448073900558e-03  1.4080497251422238e-03  2.5925597132899075e-02  3.4237196948972144e-03  2.2034829361916174e-03  1.3415278653279839e-03  9.1728864665990541e-05  9.6307076245143443e-05  1.3363784474457969e-04  1.0887769775436346e-04  2.4558293547438751e-04  8.4220074322266864e-05  1.9652602349173699e-04  8.7851938638884279e-05  3.8637283096568581e-04  8.8107328523895909e-04  4.6741075211696438e-04  1.6108314578285644e-03  2.2038021713108864e-03  8.1801377650419333e-04  2.8216495401299080e-05  2.3412611139138743e-04  4.8117388742106703e-03  7.6700452339868363e-03  2.0511552673420363e-03  2.6607501912062452e-03  2.8406421041845919e-03  1.8881043742309308e-03  1.5537003653134606e-03  3.1012491624997579e-04  9.2187967186191125e-05  1.2379103815345481e-03  1.4337228173960032e-03  1.1850018709824899e-03  8.5289055194952442e-04  5.2720338385962991e-04  2.9180737280220349e-04  1.4324792693211843e-04  5.6420782338194226e-05  1.2469077041892265e-05  6.3130961464443712e-06  1.3659975986286475e-05  1.6612361318374644e-05  1.6658027685760259e-05  1.4353448964940698e-05  1.0212548185636082e-05  -5.6691030678935114e-22  -9.6744101613062467e-19  5.3721370209842176e-02  2.0351495683917104e-02  1.8811030694674227e-02  6.9851002645799340e-02  3.2790529752045106e-02  2.0462410954554318e-02  1.5383694134556126e-02  5.2956202384666251e-02  2.4802358115870934e-02  1.4477460350757079e-02  1.7992436349458983e-02  1.9619392557020297e-02  2.2385397749563090e-02  1.0882365074353946e-01  2.1328881219641844e-02  1.5008211835750937e-01  3.1094697927347942e-03  6.0195179586001943e-02  1.0193685813055983e-01  3.2421127665762757e-03  5.0559730429916523e-02  8.9589194812662504e-02  7.5005428485740773e-04  1.2876556171989004e-02  5.5512869822854409e-02  1.0536798215377065e-02  8.1130117174397030e-03  6.3892194306129399e-02  8.9837518763905583e-02  5.0412840998141327e-02  1.4672515039166639e-02  6.5245516720731755e-02  5.2874452470769120e-02  6.8393423908289730e-02  1.1956661682243229e-01  4.8902183203518926e-03  3.6775336660960403e-02  1.1154810992585411e-02  4.7227819900664429e-02  9.6236322070312963e-02  1.3433213251812695e-01  1.2489137976080601e-01  3.0933715050737238e-02  1.4581501900879420e-02  1.8751390208098649e-02  6.5430312297204543e-02  2.5900164422200569e-02  2.5877677235374867e-02  5.6963019806589750e-02  5.2508572969676625e-03  5.1882927064992009e-03  5.2992826434486379e-03  1.0786700719466387e-02  1.8301056527397414e-02  7.4413740051820021e-03  2.0834753314084263e-02  1.1162470270394480e-02  4.6040847484103324e-03  3.1590320232675285e-03  5.0733141085964651e-04  1.3906292999635069e-06  1.1092503461982406e-04  1.5217704163395600e-04  1.4284583085614913e-04  2.1202390817881949e-04  1.3924882856448793e-04  7.0193447136494765e-05  1.3101924037676788e-04  8.9576584895703203e-04  9.1798812348280052e-05  1.5870112089319546e-04  2.6414508359662455e-03  6.9892845147750569e-04  1.1494574192106013e-03  8.1920967952004949e-04  1.9564239585304617e-03  7.4700310996388157e-03  5.7337156503080335e-03  1.2974300982160198e-03  3.2982782007341823e-03  2.3138757696572069e-03  1.6210591044456739e-03  1.0468633155982586e-03  1.0695930786858879e-04  7.3447214940549797e-04  1.5445065238800096e-03  1.3642527708717293e-03  1.0165350266528198e-03  6.7452210417371999e-04  4.0095044651490872e-04  2.1584076829579357e-04  9.9197407072479192e-05  3.3203225982694119e-05  2.6099987157070515e-06  9.4441381171375844e-06  1.4155173128675518e-05  1.5581112796083446e-05  1.3825259247917308e-05  9.3834667096987330e-06  -5.2088703959555900e-22  -3.0692618961345645e-19  1.7427867998995289e-02  2.6362347732423880e-02  7.1211865270074846e-04  5.5358359463428389e-02  4.0418108786668849e-02  7.8313227728947346e-02  1.3452220990779668e-03  3.5783867460190431e-02  4.1323013786531250e-03  5.4770483097732262e-02  2.6025521097021335e-02  7.4980131850881468e-02  8.5322276773606862e-02  6.4430936462396031e-03  1.1881370088825918e-02  3.8302441934165120e-02  5.5149845108696985e-02  1.4432826682127137e-01  2.5236317508247015e-02  5.1731713900073646e-02  8.0512400460502950e-03  4.9138397570369523e-02  6.3856778909478051e-02  1.3140990140938000e-01  1.1148708958816479e-01  4.5981058421947378e-02  1.9983140236179146e-02  2.8854918952812326e-02  7.8920598378297652e-02  5.8964744328388961e-02  2.7170963990428836e-02  4.5301931889922896e-02  9.3871201289598555e-02  1.4024830462016646e-01  3.3886743515533869e-02  3.5418137435264944e-02  7.2594633797721700e-02  3.6831573885375668e-02  4.7311940853471991e-02  8.7616924265424764e-02  1.2120435400573625e-01  8.6799549741542290e-02  1.2343468888610644e-01  1.8954454913323492e-02  5.6821471476582619e-02  4.6901850115251026e-02  1.1174869871688286e-02  6.2911622518428148e-02  7.5196539205838742e-02  1.9860354900458094e-02  4.0687407784493639e-02  3.3680472751041420e-02  3.3400033561379959e-02  1.8457610465079897e-02  8.3704434495544631e-03  9.5370849156842556e-05  2.8376554681560816e-02  3.8348446664128693e-03  3.3356870792573275e-04  2.2310951572265358e-03  2.9109188748108186e-05  5.0272745471024418e-05  9.6006839168906783e-05  8.3312743780602380e-05  2.2234041067941364e-04  8.0414436296636534e-05  1.7171629017703139e-04  9.2377173244272755e-05  4.6968840992396696e-04  8.7587608752045544e-04  4.2983577707326700e-04  1.6554517194552931e-03  2.3117685630673112e-03  8.8267026508962430e-04  1.6848808100197263e-04  2.2544893139033961e-04  5.1144465608991942e-03  8.0950598453157687e-03  1.9967845801277121e-03  3.2165280312263546e-03  3.0827715699052638e-03  1.8052592607318168e-03  1.4458765039283400e-03  3.1952368282434898e-04  1.1769292529895537e-04  1.3297054398147203e-03  1.5899761502916724e-03  1.2237897568998953e-03  8.4087145287297543e-04  5.2612515774697619e-04  3.0196499839088954e-04  1.5594601054689635e-04  6.5958826714134807e-05  1.8763749675114700e-05  1.7769990203845654e-06  1.0018449973951933e-05  1.3478686047706753e-05  1.3599196244555203e-05  1.0209352615725696e-05  -7.5699964937686562e-22  -5.0921187194682849e-19  5.5290906926936337e-03  1.1542953922809145e-02  1.9633934889922978e-02  3.6463533889895212e-02  2.5136224678072711e-02  6.9083820350730171e-02  9.6860016594062619e-03  3.2836794534988551e-03  4.4047937588469623e-02  1.5362987577163313e-02  8.0804007396725486e-03  3.9424262281156693e-03  1.6524776219148413e-02  2.6753543850611718e-02  7.1192811143229548e-02  1.5067505531444457e-03  