<?xml version="1.0"?>
<VTKFile type="UnstructuredGrid"  version="0.1"  >
<UnstructuredGrid>
<Piece  NumberOfPoints="10201" NumberOfCells="20000">
<Points>
<DataArray  type="Float64"  NumberOfComponents="3"  format="ascii">0 0 0  0.01 0 0  0.02 0 0  0.03 0 0  0.04 0 0  0.05 0 0  0.06 0 0  0.07000000000000001 0 0  0.08 0 0  0.09 0 0  0.1 0 0  0.11 0 0  0.12 0 0  0.13 0 0  0.14 0 0  0.15 0 0  0.16 0 0  0.17 0 0  0.18 0 0  0.19 0 0  0.2 0 0  0.21 0 0  0.22 0 0  0.23 0 0  0.24 0 0  0.25 0 0  0.26 0 0  0.27 0 0  0.28 0 0  0.29 0 0  0.3 0 0  0.31 0 0  0.32 0 0  0.33 0 0  0.34 0 0  0.35 0 0  0.36 0 0  0.37 0 0  0.38 0 0  0.39 0 0  0.4 0 0  0.41 0 0  0.42 0 0  0.43 0 0  0.44 0 0  0.45 0 0  0.46 0 0  0.47 0 0  0.48 0 0  0.49 0 0  0.5 0 0  0.51 0 0  0.52 0 0  0.53 0 0  0.54 0 0  0.55 0 0  0.5600000000000001 0 0  0.57 0 0  0.58 0 0  0.59 0 0  0.6 0 0  0.61 0 0  0.62 0 0  0.63 0 0  0.64 0 0  0.65 0 0  0.66 0 0  0.67 0 0  0.68 0 0  0.6899999999999999 0 0  0.7 0 0  0.71 0 0  0.72 0 0  0.73 0 0  0.74 0 0  0.75 0 0  0.76 0 0  0.77 0 0  0.78 0 0  0.79 0 0  0.8 0 0  0.8100000000000001 0 0  0.82 0 0  0.83 0 0  0.84 0 0  0.85 0 0  0.86 0 0  0.87 0 0  0.88 0 0  0.89 0 0  0.9 0 0  0.91 0 0  0.92 0 0  0.93 0 0  0.9399999999999999 0 0  0.95 0 0  0.96 0 0  0.97 0 0  0.98 0 0  0.99 0 0  1 0 0  0 0.01 0  0.01 0.01 0  0.02 0.01 0  0.03 0.01 0  0.04 0.01 0  0.05 0.01 0  0.06 0.01 0  0.07000000000000001 0.01 0  0.08 0.01 0  0.09 0.01 0  0.1 0.01 0  0.11 0.01 0  0.12 0.01 0  0.13 0.01 0  0.14 0.01 0  0.15 0.01 0  0.16 0.01 0  0.17 0.01 0  0.18 0.01 0  0.19 0.01 0  0.2 0.01 0  0.21 0.01 0  0.22 0.01 0  0.23 0.01 0  0.24 0.01 0  0.25 0.01 0  0.26 0.01 0  0.27 0.01 0  0.28 0.01 0  0.29 0.01 0  0.3 0.01 0  0.31 0.01 0  0.32 0.01 0  0.33 0.01 0  0.34 0.01 0  0.35 0.01 0  0.36 0.01 0  0.37 0.01 0  0.38 0.01 0  0.39 0.01 0  0.4 0.01 0  0.41 0.01 0  0.42 0.01 0  0.43 0.01 0  0.44 0.01 0  0.45 0.01 0  0.46 0.01 0  0.47 0.01 0  0.48 0.01 0  0.49 0.01 0  0.5 0.01 0  0.51 0.01 0  0.52 0.01 0  0.53 0.01 0  0.54 0.01 0  0.55 0.01 0  0.5600000000000001 0.01 0  0.57 0.01 0  0.58 0.01 0  0.59 0.01 0  0.6 0.01 0  0.61 0.01 0  0.62 0.01 0  0.63 0.01 0  0.64 0.01 0  0.65 0.01 0  0.66 0.01 0  0.67 0.01 0  0.68 0.01 0  0.6899999999999999 0.01 0  0.7 0.01 0  0.71 0.01 0  0.72 0.01 0  0.73 0.01 0  0.74 0.01 0  0.75 0.01 0  0.76 0.01 0  0.77 0.01 0  0.78 0.01 0  0.79 0.01 0  0.8 0.01 0  0.8100000000000001 0.01 0  0.82 0.01 0  0.83 0.01 0  0.84 0.01 0  0.85 0.01 0  0.86 0.01 0  0.87 0.01 0  0.88 0.01 0  0.89 0.01 0  0.9 0.01 0  0.91 0.01 0  0.92 0.01 0  0.93 0.01 0  0.9399999999999999 0.01 0  0.95 0.01 0  0.96 0.01 0  0.97 0.01 0  0.98 0.01 0  0.99 0.01 0  1 0.01 0  0 0.02 0  0.01 0.02 0  0.02 0.02 0  0.03 0.02 0  0.04 0.02 0  0.05 0.02 0  0.06 0.02 0  0.07000000000000001 0.02 0  0.08 0.02 0  0.09 0.02 0  0.1 0.02 0  0.11 0.02 0  0.12 0.02 0  0.13 0.02 0  0.14 0.02 0  0.15 0.02 0  0.16 0.02 0  0.17 0.02 0  0.18 0.02 0  0.19 0.02 0  0.2 0.02 0  0.21 0.02 0  0.22 0.02 0  0.23 0.02 0  0.24 0.02 0  0.25 0.02 0  0.26 0.02 0  0.27 0.02 0  0.28 0.02 0  0.29 0.02 0  0.3 0.02 0  0.31 0.02 0  0.32 0.02 0  0.33 0.02 0  0.34 0.02 0  0.35 0.02 0  0.36 0.02 0  0.37 0.02 0  0.38 0.02 0  0.39 0.02 0  0.4 0.02 0  0.41 0.02 0  0.42 0.02 0  0.43 0.02 0  0.44 0.02 0  0.45 0.02 0  0.46 0.02 0  0.47 0.02 0  0.48 0.02 0  0.49 0.02 0  0.5 0.02 0  0.51 0.02 0  0.52 0.02 0  0.53 0.02 0  0.54 0.02 0  0.55 0.02 0  0.5600000000000001 0.02 0  0.57 0.02 0  0.58 0.02 0  0.59 0.02 0  0.6 0.02 0  0.61 0.02 0  0.62 0.02 0  0.63 0.02 0  0.64 0.02 0  0.65 0.02 0  0.66 0.02 0  0.67 0.02 0  0.68 0.02 0  0.6899999999999999 0.02 0  0.7 0.02 0  0.71 0.02 0  0.72 0.02 0  0.73 0.02 0  0.74 0.02 0  0.75 0.02 0  0.76 0.02 0  0.77 0.02 0  0.78 0.02 0  0.79 0.02 0  0.8 0.02 0  0.8100000000000001 0.02 0  0.82 0.02 0  0.83 0.02 0  0.84 0.02 0  0.85 0.02 0  0.86 0.02 0  0.87 0.02 0  0.88 0.02 0  0.89 0.02 0  0.9 0.02 0  0.91 0.02 0  0.92 0.02 0  0.93 0.02 0  0.9399999999999999 0.02 0  0.95 0.02 0  0.96 0.02 0  0.97 0.02 0  0.98 0.02 0  0.99 0.02 0  1 0.02 0  0 0.03 0  0.01 0.03 0  0.02 0.03 0  0.03 0.03 0  0.04 0.03 0  0.05 0.03 0  0.06 0.03 0  0.07000000000000001 0.03 0  0.08 0.03 0  0.09 0.03 0  0.1 0.03 0  0.11 0.03 0  0.12 0.03 0  0.13 0.03 0  0.14 0.03 0  0.15 0.03 0  0.16 0.03 0  0.17 0.03 0  0.18 0.03 0  0.19 0.03 0  0.2 0.03 0  0.21 0.03 0  0.22 0.03 0  0.23 0.03 0  0.24 0.03 0  0.25 0.03 0  0.26 0.03 0  0.27 0.03 0  0.28 0.03 0  0.29 0.03 0  0.3 0.03 0  0.31 0.03 0  0.32 0.03 0  0.33 0.03 0  0.34 0.03 0  0.35 0.03 0  0.36 0.03 0  0.37 0.03 0  0.38 0.03 0  0.39 0.03 0  0.4 0.03 0  0.41 0.03 0  0.42 0.03 0  0.43 0.03 0  0.44 0.03 0  0.45 0.03 0  0.46 0.03 0  0.47 0.03 0  0.48 0.03 0  0.49 0.03 0  0.5 0.03 0  0.51 0.03 0  0.52 0.03 0  0.53 0.03 0  0.54 0.03 0  0.55 0.03 0  0.5600000000000001 0.03 0  0.57 0.03 0  0.58 0.03 0  0.59 0.03 0  0.6 0.03 0  0.61 0.03 0  0.62 0.03 0  0.63 0.03 0  0.64 0.03 0  0.65 0.03 0  0.66 0.03 0  0.67 0.03 0  0.68 0.03 0  0.6899999999999999 0.03 0  0.7 0.03 0  0.71 0.03 0  0.72 0.03 0  0.73 0.03 0  0.74 0.03 0  0.75 0.03 0  0.76 0.03 0  0.77 0.03 0  0.78 0.03 0  0.79 0.03 0  0.8 0.03 0  0.8100000000000001 0.03 0  0.82 0.03 0  0.83 0.03 0  0.84 0.03 0  0.85 0.03 0  0.86 0.03 0  0.87 0.03 0  0.88 0.03 0  0.89 0.03 0  0.9 0.03 0  0.91 0.03 0  0.92 0.03 0  0.93 0.03 0  0.9399999999999999 0.03 0  0.95 0.03 0  0.96 0.03 0  0.97 0.03 0  0.98 0.03 0  0.99 0.03 0  1 0.03 0  0 0.04 0  0.01 0.04 0  0.02 0.04 0  0.03 0.04 0  0.04 0.04 0  0.05 0.04 0  0.06 0.04 0  0.07000000000000001 0.04 0  0.08 0.04 0  0.09 0.04 0  0.1 0.04 0  0.11 0.04 0  0.12 0.04 0  0.13 0.04 0  0.14 0.04 0  0.15 0.04 0  0.16 0.04 0  0.17 0.04 0  0.18 0.04 0  0.19 0.04 0  0.2 0.04 0  0.21 0.04 0  0.22 0.04 0  0.23 0.04 0  0.24 0.04 0  0.25 0.04 0  0.26 0.04 0  0.27 0.04 0  0.28 0.04 0  0.29 0.04 0  0.3 0.04 0  0.31 0.04 0  0.32 0.04 0  0.33 0.04 0  0.34 0.04 0  0.35 0.04 0  0.36 0.04 0  0.37 0.04 0  0.38 0.04 0  0.39 0.04 0  0.4 0.04 0  0.41 0.04 0  0.42 0.04 0  0.43 0.04 0  0.44 0.04 0  0.45 0.04 0  0.46 0.04 0  0.47 0.04 0  0.48 0.04 0  0.49 0.04 0  0.5 0.04 0  0.51 0.04 0  0.52 0.04 0  0.53 0.04 0  0.54 0.04 0  0.55 0.04 0  0.5600000000000001 0.04 0  0.57 0.04 0  0.58 0.04 0  0.59 0.04 0  0.6 0.04 0  0.61 0.04 0  0.62 0.04 0  0.63 0.04 0  0.64 0.04 0  0.65 0.04 0  0.66 0.04 0  0.67 0.04 0  0.68 0.04 0  0.6899999999999999 0.04 0  0.7 0.04 0  0.71 0.04 0  0.72 0.04 0  0.73 0.04 0  0.74 0.04 0  0.75 0.04 0  0.76 0.04 0  0.77 0.04 0  0.78 0.04 0  0.79 0.04 0  0.8 0.04 0  0.8100000000000001 0.04 0  0.82 0.04 0  0.83 0.04 0  0.84 0.04 0  0.85 0.04 0  0.86 0.04 0  0.87 0.04 0  0.88 0.04 0  0.89 0.04 0  0.9 0.04 0  0.91 0.04 0  0.92 0.04 0  0.93 0.04 0  0.9399999999999999 0.04 0  0.95 0.04 0  0.96 0.04 0  0.97 0.04 0  0.98 0.04 0  0.99 0.04 0  1 0.04 0  0 0.05 0  0.01 0.05 0  0.02 0.05 0  0.03 0.05 0  0.04 0.05 0  0.05 0.05 0  0.06 0.05 0  0.07000000000000001 0.05 0  0.08 0.05 0  0.09 0.05 0  0.1 0.05 0  0.11 0.05 0  0.12 0.05 0  0.13 0.05 0  0.14 0.05 0  0.15 0.05 0  0.16 0.05 0  0.17 0.05 0  0.18 0.05 0  0.19 0.05 0  0.2 0.05 0  0.21 0.05 0  0.22 0.05 0  0.23 0.05 0  0.24 0.05 0  0.25 0.05 0  0.26 0.05 0  0.27 0.05 0  0.28 0.05 0  0.29 0.05 0  0.3 0.05 0  0.31 0.05 0  0.32 0.05 0  0.33 0.05 0  0.34 0.05 0  0.35 0.05 0  0.36 0.05 0  0.37 0.05 0  0.38 0.05 0  0.39 0.05 0  0.4 0.05 0  0.41 0.05 0  0.42 0.05 0  0.43 0.05 0  0.44 0.05 0  0.45 0.05 0  0.46 0.05 0  0.47 0.05 0  0.48 0.05 0  0.49 0.05 0  0.5 0.05 0  0.51 0.05 0  0.52 0.05 0  0.53 0.05 0  0.54 0.05 0  0.55 0.05 0  0.5600000000000001 0.05 0  0.57 0.05 0  0.58 0.05 0  0.59 0.05 0  0.6 0.05 0  0.61 0.05 0  0.62 0.05 0  0.63 0.05 0  0.64 0.05 0  0.65 0.05 0  0.66 0.05 0  0.67 0.05 0  0.68 0.05 0  0.6899999999999999 0.05 0  0.7 0.05 0  0.71 0.05 0  0.72 0.05 0  0.73 0.05 0  0.74 0.05 0  0.75 0.05 0  0.76 0.05 0  0.77 0.05 0  0.78 0.05 0  0.79 0.05 0  0.8 0.05 0  0.8100000000000001 0.05 0  0.82 0.05 0  0.83 0.05 0  0.84 0.05 0  0.85 0.05 0  0.86 0.05 0  0.87 0.05 0  0.88 0.05 0  0.89 0.05 0  0.9 0.05 0  0.91 0.05 0  0.92 0.05 0  0.93 0.05 0  0.9399999999999999 0.05 0  0.95 0.05 0  0.96 0.05 0  0.97 0.05 0  0.98 0.05 0  0.99 0.05 0  1 0.05 0  0 0.06 0  0.01 0.06 0  0.02 0.06 0  0.03 0.06 0  0.04 0.06 0  0.05 0.06 0  0.06 0.06 0  0.07000000000000001 0.06 0  0.08 0.06 0  0.09 0.06 0  0.1 0.06 0  0.11 0.06 0  0.12 0.06 0  0.13 0.06 0  0.14 0.06 0  0.15 0.06 0  0.16 0.06 0  0.17 0.06 0  0.18 0.06 0  0.19 0.06 0  0.2 0.06 0  0.21 0.06 0  0.22 0.06 0  0.23 0.06 0  0.24 0.06 0  0.25 0.06 0  0.26 0.06 0  0.27 0.06 0  0.28 0.06 0  0.29 0.06 0  0.3 0.06 0  0.31 0.06 0  0.32 0.06 0  0.33 0.06 0  0.34 0.06 0  0.35 0.06 0  0.36 0.06 0  0.37 0.06 0  0.38 0.06 0  0.39 0.06 0  0.4 0.06 0  0.41 0.06 0  0.42 0.06 0  0.43 0.06 0  0.44 0.06 0  0.45 0.06 0  0.46 0.06 0  0.47 0.06 0  0.48 0.06 0  0.49 0.06 0  0.5 0.06 0  0.51 0.06 0  0.52 0.06 0  0.53 0.06 0  0.54 0.06 0  0.55 0.06 0  0.5600000000000001 0.06 0  0.57 0.06 0  0.58 0.06 0  0.59 0.06 0  0.6 0.06 0  0.61 0.06 0  0.62 0.06 0  0.63 0.06 0  0.64 0.06 0  0.65 0.06 0  0.66 0.06 0  0.67 0.06 0  0.68 0.06 0  0.6899999999999999 0.06 0  0.7 0.06 0  0.71 0.06 0  0.72 0.06 0  0.73 0.06 0  0.74 0.06 0  0.75 0.06 0  0.76 0.06 0  0.77 0.06 0  0.78 0.06 0  0.79 0.06 0  0.8 0.06 0  0.8100000000000001 0.06 0  0.82 0.06 0  0.83 0.06 0  0.84 0.06 0  0.85 0.06 0  0.86 0.06 0  0.87 0.06 0  0.88 0.06 0  0.89 0.06 0  0.9 0.06 0  0.91 0.06 0  0.92 0.06 0  0.93 0.06 0  0.9399999999999999 0.06 0  0.95 0.06 0  0.96 0.06 0  0.97 0.06 0  0.98 0.06 0  0.99 0.06 0  1 0.06 0  0 0.07000000000000001 0  0.01 0.07000000000000001 0  0.02 0.07000000000000001 0  0.03 0.07000000000000001 0  0.04 0.07000000000000001 0  0.05 0.07000000000000001 0  0.06 0.07000000000000001 0  0.07000000000000001 0.07000000000000001 0  0.08 0.07000000000000001 0  0.09 0.07000000000000001 0  0.1 0.07000000000000001 0  0.11 0.07000000000000001 0  0.12 0.07000000000000001 0  0.13 0.07000000000000001 0  0.14 0.07000000000000001 0  0.15 0.07000000000000001 0  0.16 0.07000000000000001 0  0.17 0.0700
[...]
<PointData  Scalars="Indicator Function"> 
<DataArray  type="Float64"  Name="Indicator Function"  format="ascii">-4.9619691174444733e-19  1.3061811167637816e-18  3.4271365217429443e-17  1.2508115492533897e-18  8.6444561718484509e-17  -1.5757018525069007e-19  -3.0271856855075749e-19  4.0487690589385102e-17  1.7005617205729500e-16  -2.6413144498589668e-19  5.8575301892368624e-17  4.5839973386226508e-17  -1.7626849555356620e-19  -5.6517362775671050e-19  4.1458057358610993e-16  1.4444474582904269e-34  -1.0490620554186420e-18  4.0935518761643581e-16  -8.7637550127785782e-19  -1.1535536326857962e-18  9.2699724787357275e-16  -2.1055380711016431e-18  -9.9220207481222887e-19  4.8617901665799780e-17  -3.5813925697374702e-19  -9.3242565583728591e-19  -8.1410322365642949e-19  -1.1651358603484214e-18  1.2329087532280168e-15  -1.9922792446101028e-18  -3.4892002056858235e-18  -1.7446001028429118e-18  -1.7756865537468620e-18  -2.9093149003929494e-18  8.7255519849946902e-17  -1.1003295629690419e-18  -4.8133938282404299e-18  -7.9351512241550157e-18  -7.3987853217214888e-18  -8.4603179671316852e-18  6.8467464395848341e-16  -3.7311664129873021e-19  -2.5152508479709074e-18  -2.5729792952052010e-18  -1.8192224343936696e-18  -9.0961121719679934e-19  1.9749905503731581e-16  -1.0615431525743006e-18  -2.1934792970355667e-19  -6.5721501319494611e-19  -3.2860750659747320e-19  -5.5004691467330328e-19  -1.5995168450388145e-19  -8.0180916114682407e-19  -5.7618334328624056e-19  -8.0063505965942948e-21  1.5772510675305018e-18  -7.3225242029201789e-20  -4.3500378018951073e-20  -7.4494006767579516e-20  0.0000000000000000e+00  -9.0805244325458735e-20  -8.2885367079960418e-20  -4.4566578516668121e-20  -9.1621618221714099e-20  -1.0767293872907089e-19  -3.0651143288488015e-20  -4.8099986646386963e-21  4.2110665262970356e-17  -8.4971669754161556e-20  -2.1190080450612695e-20  0.0000000000000000e+00  -2.2002759737675706e-21  -9.3609497267319607e-20  -2.3100301568371622e-19  -1.5225063238971918e-19  -3.4588444295499055e-20  -1.1203616892987060e-19  -1.2512374024466683e-19  -4.6716883673527367e-20  -2.9073026398950805e-20  4.9796764306487511e-17  -8.6860335770917557e-21  -1.2878119918552751e-19  -1.3208565316568993e-19  -6.8228106445645665e-20  0.0000000000000000e+00  -2.5777527389867862e-20  -4.7051938367278323e-20  -1.3558679598844189e-20  -3.5689490751450365e-21  2.2569491535787920e-36  -1.7499990893514935e-20  1.7001909349249969e-17  -1.3039589412530478e-20  -7.3589474028602982e-21  -5.4871613261438851e-22  -2.6450298980192586e-21  -3.4459494082676370e-21  -1.8807909613156600e-37  2.2569491535787920e-36  1.9259299443872359e-34  1.7614587584791210e-02  3.3873853479734033e-02  7.5022669943400474e-03  8.7779374785132459e-03  8.1330870255136875e-04  3.9463657495929652e-03  3.4801100552968090e-03  3.2870459164358379e-02  2.7226839585800227e-02  4.7581691088612295e-03  3.8663588770154411e-02  6.3507418471376110e-03  2.0362525914917457e-02  1.3022538851695143e-02  5.3449545708343038e-02  2.5774029396933774e-02  6.0112072290207869e-03  3.1574755047932716e-02  4.1561149682524508e-02  2.2672883217340241e-02  5.3404048832671698e-02  3.7930001889711004e-02  1.7873923577602542e-02  1.2903326594029700e-02  3.3594174689435929e-02  2.9331159797601727e-02  1.3858781062792527e-02  1.4059831174608170e-02  1.9112359624890465e-02  2.6333532442130898e-02  6.2855842984590932e-02  3.0062276566912755e-02  1.6956786923668293e-02  4.3931164543418243e-02  2.8654387449516514e-02  1.9821775239088468e-02  7.6799506985459939e-02  1.2045579593842350e-01  1.2272648335554266e-01  9.4003821458121015e-02  4.9777953509723707e-02  6.7214718668747531e-03  4.1949995193223032e-02  2.5375676783861056e-02  3.2772197910557500e-02  3.6288708524709064e-02  1.2474535509470213e-02  1.9123061385485283e-02  3.9514210179097111e-03  1.1839333154108221e-02  8.2917950920084124e-03  5.7628667738317089e-03  4.4743175039852461e-03  1.2206951005459722e-02  4.2761208577541347e-03  1.4422959025370963e-04  2.6382173817346200e-03  1.5672662898929897e-03  1.8823332155997522e-03  4.0079811667934908e-04  7.3719866802285917e-05  2.3759603199241699e-03  3.0514987322102045e-04  8.0284010560337791e-04  1.2490882899278842e-03  1.3151190819885774e-03  1.7329846554973153e-04  1.0015262567489807e-04  1.0544478626484629e-03  1.0034895896433315e-03  2.3633936902047455e-05  7.9273296444575062e-05  6.8066698614382536e-04  2.1925831189279041e-03  3.0650888219546286e-03  1.2101591542117319e-03  6.2309001936213893e-04  1.7067191848972633e-03  1.4006693273157049e-03  1.0334967080209475e-03  6.9847294169246951e-06  3.1294734064894411e-04  1.1174808204481516e-03  1.7611754324329933e-03  1.4988558772954623e-03  9.3158564135652189e-04  4.3784416330312027e-04  7.1821890655962323e-04  4.8850291511192496e-04  6.9367000255650646e-05  2.9608970771884545e-05  1.0992639480227016e-04  3.0204351237581825e-04  1.9466889038081698e-04  2.1305101451827771e-04  1.0452007519858631e-04  5.6436786158321564e-06  4.7648622652413416e-05  3.8252394557840121e-05  1.0617172296290000e-21  -1.0843710127151666e-18  3.5906747378891589e-03  7.7852608666427415e-03  7.6990770961219768e-04  1.0432716837684545e-02  3.2817411288310658e-02  5.5949401243734383e-03  2.7879627604981687e-02  2.5665340675792413e-04  1.4256305872694500e-02  4.2706878367791391e-02  3.1552072219260749e-02  1.9488515263119410e-02  6.2810020585476481e-02  6.3283735683853579e-02  4.3232255769631613e-02  4.8501178077547712e-03  7.6244611813516092e-02  2.0056534216112368e-02  1.5133037270105119e-02  1.7870541769950683e-02  4.0605932897326558e-02  3.8417914628553138e-02  4.3344436961226501e-02  2.4186271968985627e-02  5.5552427012774130e-04  3.0609792046048852e-02  4.1163789067199717e-02  6.1575076150901610e-02  2.5403578694956453e-02  6.1615827247556980e-02  6.2331124144303390e-02  3.1260625569234111e-02  4.7073765295684737e-02  4.7240207091143654e-02  4.8612806180545261e-02  7.8852013240035233e-03  7.0253742969696303e-02  1.2682850230784901e-01  1.4410141528187143e-01  1.6206354257661376e-01  8.7530463141606493e-02  8.7098156916076315e-03  1.6961768858497438e-02  5.3401416018113997e-02  1.7818244985545472e-02  4.3898653920022585e-03  9.6130369666806506e-03  2.1980418991358473e-02  1.0619508298490706e-02  2.0044218411877677e-02  5.7350804848395548e-03  7.1812039090324489e-03  4.7864703268666433e-03  1.8679779011563379e-02  7.4552448322826722e-03  5.6328212229329732e-05  2.2665382733101916e-03  1.5295235440587187e-03  1.7364152555602432e-03  3.8187537190364548e-03  2.0979476118995546e-03  2.6529296228969589e-03  2.0983849274254702e-03  1.4421736623699362e-03  9.2719206089114951e-04  2.0532005407750162e-03  4.9197628141485939e-04  4.3691168115182359e-04  1.0812752414789534e-03  1.6421796744929067e-03  3.1483928009902739e-04  1.1354608550976875e-04  3.2662728960181260e-05  2.0187214428150470e-03  3.7207457228465080e-03  2.7529863465262294e-03  2.2653070403773186e-04  1.7262687608063417e-03  1.8900133558341888e-03  1.3287032155652216e-03  8.0117268606537178e-04  7.0693215129379418e-04  6.6187964711372565e-04  2.2027547053842197e-03  1.9397049716765801e-03  1.4311691961790059e-03  5.3448405288353067e-04  8.4874011688072088e-04  8.0346529265266150e-04  1.0575770893077947e-04  2.0187418671386835e-04  2.9489713964548823e-05  4.2261900536727124e-04  2.4124054691042891e-04  3.3135146804835622e-04  1.7765433543215397e-04  7.1304672486399514e-05  4.0304079642732695e-05  6.5232003698981241e-05  1.6294966301034602e-20  4.8148248609680896e-34  2.5139006285925063e-02  8.8804800214883541e-03  4.7860703408622508e-02  2.3241562064668712e-02  1.0479113520773294e-03  1.6055830883075490e-03  1.5755027739266785e-03  8.1253729139056669e-03  5.5810988332921606e-02  8.4962390017667325e-02  5.1821120974675138e-02  5.5581498323162247e-02  3.3887881374798777e-02  1.4680346127968013e-02  3.6452082068990768e-02  1.1940420498757952e-01  2.8635778501714753e-03  1.4779971944839678e-02  4.9078463607400528e-02  8.7216116912612413e-02  7.3748279547501974e-02  1.2524229353215691e-01  1.2117837139092143e-01  7.8365563099544788e-02  3.6963038662124532e-02  6.2034731412623466e-02  6.7845739572232500e-02  2.9382493750918285e-02  3.8846814418455694e-02  4.3682502266270906e-02  5.3708714774810547e-02  1.3627545361791216e-01  8.8842615252102838e-02  6.8312361755954393e-03  6.4106214772215023e-02  3.6127490701761279e-02  4.5964397937173031e-02  1.1833194974215210e-01  1.6737089648135209e-01  1.4687867766503754e-01  1.1954898255520999e-01  6.4061241228110646e-02  3.0654214361282069e-02  5.5271513591578773e-02  2.4589658750684296e-02  7.6065635453679850e-02  9.6281581138875319e-02  5.1637981884641880e-02  4.9174902498665171e-02  2.5032490422281343e-02  3.1174034513597435e-02  2.4008474392290174e-02  3.5150577467930248e-03  9.4043650173191422e-03  2.0142189050886997e-02  1.1264501242294262e-03  2.2156328596703379e-03  7.1247130828408960e-03  4.1739538613723348e-03  3.4755859294139223e-03  5.4500178510602363e-04  1.1945222510443291e-03  4.6573730074556336e-03  7.6151357781101411e-04  1.7430214664572274e-03  1.2422493520290712e-03  1.9375055925969667e-03  7.9381919384930669e-04  3.4587200940589647e-04  1.9859600253273016e-03  1.2961596817755302e-03  5.6263071090937439e-04  3.3883900991977931e-04  9.0338095292904087e-04  3.3511483987213263e-03  4.1943686432642912e-03  5.6672561275664362e-04  1.3703784028355620e-03  2.1855296182070778e-03  1.3253462588685599e-03  1.1910590288716401e-03  1.7168037308203235e-04  5.8177571702953935e-04  2.1850054609352946e-03  2.3650164970368034e-03  1.5011581473684807e-03  9.7885017207653322e-04  3.4852621908632264e-04  1.1835290431003306e-03  5.1532332760804826e-04  4.2407897158540836e-04  1.2658402928254102e-06  1.2146682892514831e-04  5.9822894565093562e-04  1.7916594153976679e-04  3.5007602303668177e-04  1.3563136804867836e-04  2.3725016874370391e-05  3.4240248203176840e-05  -3.0844971765576824e-35  -3.7638499778627101e-19  9.1099701526442620e-03  1.1124075199662646e-02  2.1104831203712128e-02  1.8064213029516404e-03  5.3778802863310837e-03  3.2431158250926462e-02  3.3821891034796929e-02  3.8386350698788145e-02  1.4255765067576916e-02  8.8031216754511921e-03  2.5489332992511070e-02  4.7486545251210550e-02  6.5467217033516406e-02  6.4410208647546527e-02  1.2138449382153449e-01  5.0502682411337199e-03  4.0366243474188523e-03  9.6910572450024504e-02  5.1323396663481111e-02  4.8605392075989254e-02  5.7204516313965968e-02  1.1790613834426658e-02  1.6202451633711409e-02  2.4443635333075569e-02  2.1830670251590429e-02  8.8136729173231548e-03  7.0358294216321601e-02  8.9023284300896025e-02  9.7063312504496457e-02  4.1514586663670201e-02  8.0506200193602592e-02  8.7368269567739340e-02  6.4687396557888702e-02  1.1071743726473618e-01  3.6235891143492925e-02  4.9638464097644351e-02  1.5692377804641479e-02  8.3820980519153876e-02  1.4450533754774122e-01  1.6530486205384406e-01  1.7783824830287803e-01  7.2267367659856155e-02  2.3554092489451877e-02  1.2833544073001675e-02  6.7811155518857219e-02  3.4864049634024168e-02  1.9547281443136395e-02  5.0087364453108109e-02  1.9114108389127701e-03  6.9312566147377028e-03  1.8372864533837758e-02  1.6311477878505852e-03  1.5868164277266120e-02  4.0935165518337377e-03  2.7929697462453839e-02  6.9832664144898514e-03  5.4108378208362522e-03  2.0956473809396370e-03  4.7213795625674427e-03  4.7941798762918568e-03  6.6249828189025046e-03  4.1248142295198251e-03  3.2370951157712322e-03  3.2385716215710563e-03  3.0740651896096591e-03  9.8864809115375572e-04  2.1855572916467951e-03  4.7869134544658876e-04  1.0059740326900514e-03  1.6208058548435001e-03  2.2772913119594568e-03  9.5671722069295401e-05  4.6748716772407529e-04  4.7630449605446550e-04  2.3234097861273666e-03  4.4312387687031425e-03  2.9590536995762000e-03  1.3501707698911540e-03  2.1474462857900278e-03  1.8561558109274922e-03  9.7389162882546019e-04  8.6180821198971315e-04  1.2040367594108978e-03  8.0166732945487055e-04  3.0432592985128117e-03  1.9068367598236932e-03  1.1359424257886303e-03  2.9473403044570000e-04  8.8917296862435350e-04  1.0182077682276620e-03  5.8146469134085510e-05  4.9001219804901323e-04  1.5474941656646519e-04  5.4270506690071293e-04  3.6400786758000123e-04  3.6976093389773818e-04  2.4374456396660869e-04  1.1499059033962318e-04  2.4541936331044106e-06  -4.9418315161610932e-21  -1.5903667643001046e-18  4.7244276195979089e-02  4.2172059430270192e-02  5.3715934186894573e-03  5.3190628355882029e-02  4.9883495917412847e-02  5.9454360913018195e-03  1.9621185793579247e-02  8.2325188487244808e-03  3.0552071095787118e-02  5.3680311708486174e-02  9.8446908457118579e-02  9.4845408968029343e-02  2.6369218542050283e-02  3.8680666294735828e-02  2.5957142603248908e-02  7.8115714717437211e-03  1.4070568527854624e-01  3.7156549756805664e-02  4.0739274210345310e-02  2.9922627662688408e-02  8.5631699808856876e-02  8.1712453871018262e-02  1.4875870116567502e-01  1.6378393331511973e-01  1.2355014273229840e-01  5.9529534188059237e-02  6.1454839329395800e-02  6.6017220551219433e-02  1.9956750798830875e-02  7.6372908630841979e-02  7.6476481750983413e-02  8.0382480681358351e-02  1.9065948420760212e-01  9.7227034095395085e-02  2.6333801072042366e-02  7.5536178210047003e-02  4.0707181918636204e-02  6.4795569141123735e-02  1.3615603973576099e-01  1.7625198497133193e-01  1.4762014711969754e-01  1.3837765053958281e-01  5.8665850081350432e-02  6.1311040611292701e-02  5.2601850997900303e-02  2.4467284012427485e-02  1.0261359630852468e-01  1.1559392467051845e-01  5.8496628363400423e-02  6.0996837980498250e-02  4.0945002267414439e-02  4.3980166817259740e-02  3.3012182786224871e-02  4.2105446265153614e-03  9.9840158845187002e-03  2.8218787725546590e-02  5.9033628857592833e-03  5.6446706342465390e-03  9.3041883934288395e-03  4.0962903751339567e-03  2.4362596779078779e-03  2.1535447577377708e-03  3.3465304756221197e-03  6.2396626776847815e-03  9.0706947553853513e-04  2.8983948998335513e-03  9.9023597007188492e-04  2.2562772778216738e-03  1.1386066974258741e-03  1.5264516572938293e-04  2.6275521208435557e-03  1.6468970155866503e-03  9.9595488024487033e-04  4.2434791656635672e-04  4.9104792476273307e-04  3.7684549531709481e-03  4.7021690463120835e-03  1.8997303197375025e-04  2.2158295696668492e-03  2.4000403295356067e-03  1.1188115557614437e-03  1.0249050692497988e-03  1.7036274854065212e-04  1.0414306522096466e-03  2.6791807863704342e-03  2.8338180117210088e-03  1.2835229885245786e-03  7.6405013818143803e-04  1.0331663109758407e-04  1.4146372008403834e-03  5.3729413237957021e-04  6.6703230176602105e-04  1.0333223471971867e-04  3.8325950407166219e-05  7.9260167406857687e-04  1.8407215142082582e-04  4.5307602729281136e-04  1.9437126687606160e-04  8.4224245862189303e-05  9.0277966143151681e-36  -1.0539607262768180e-19  2.8649500668337505e-02  4.7394226916122563e-03  1.0055970825681949e-02  4.2274327270031199e-02  2.6222285753927627e-02  1.2427778643951967e-03  2.2638925121843793e-02  4.2043876752936415e-02  3.3490426061511890e-02  1.1638611013592131e-02  2.3199976652358179e-02  1.1041462188561191e-02  1.0899380500923348e-02  8.8845057377260436e-02  3.3254724075776156e-02  1.2552728781128308e-01  2.0240891810347720e-02  3.4507421814122224e-02  7.7807664904354631e-02  4.8133661338899063e-02  5.4447752851795143e-02  8.3677769173665512e-02  1.6688014871242354e-02  1.9249243198459640e-02  2.6430284488380838e-02  1.1560903855486259e-02  1.6759735307192228e-02  9.0730507272938951e-02  1.2119654026662614e-01  1.0764754164352879e-01  2.6690346263291573e-02  9.7656120020373771e-02  8.4744573118798946e-02  1.0018582923052796e-01  1.5497271743328303e-01  2.4418618383532435e-02  5.2802342006681817e-02  1.1908786686541970e-02  9.6111194688078772e-02  1.6346791565090649e-01  1.8299323614760940e-01  1.7582411709779930e-01  6.7933192776872722e-02  2.3712201625524808e-02  2.6288719216281588e-02  7.5834469350555350e-02  4.4716137905896070e-02  4.4931063947938395e-02  8.8580221604135534e-02  2.3501054530129788e-02  9.2692913156197272e-03  4.6457130303618104e-03  1.0533690364789242e-02  2.7631873497056664e-02  1.6313784852381855e-03  3.2135975775277201e-02  1.0117483438466940e-02  1.1296474918603161e-02  6.7238153719122596e-04  7.9313301663541599e-03  6.8073458276832191e-03  7.6243727258344914e-03  4.4136753889751903e-03  2.3321687524617695e-03  4.6103826420779226e-03  4.1263926109404367e-03  1.5075857733170969e-03  1.9842976796899661e-03  6.6503614748663405e-04  1.4022999347379219e-03  1.8285969120582308e-03  2.8909621909982363e-03  1.6499237206217012e-04  8.6381653187576988e-04  8.6145775601131761e-04  2.2305686941330558e-03  4.9225441416917244e-03  3.1831164152001743e-03  2.2041406539077472e-03  2.6688662831103435e-03  1.8838237585322962e-03  6.9419267096419441e-04  8.5703817477024435e-04  1.3470884672592658e-03  6.8302756118970972e-04  3.7648277494495741e-03  2.0303202562436131e-03  8.5904872854372899e-04  1.5699454746736735e-04  8.2368490115966792e-04  1.2979883867146637e-03  1.3313328984771469e-04  7.3255790405155844e-04  1.9970972996952816e-04  5.4310840678127180e-04  5.4319669208917148e-04  3.6138628275344056e-04  3.3830903537865971e-04  1.5697959418370190e-04  -8.7141179929529625e-21  -5.7032777701277378e-19  1.8986468536493824e-03  1.9030935490550450e-02  1.0995567710863080e-02  3.2951216173045833e-02  3.5018285760876081e-02  5.6133491792239629e-02  1.9623042034975814e-03  3.7446544199463687e-02  2.1766912934997770e-02  4.1590601156689076e-02  4.2128979608495355e-02  8.2503069848639907e-02  8.1417560114697626e-02  1.3129114991250249e-02  7.8887032716758315e-03  3.3764805325938035e-02  2.8274714017108720e-02  1.2186312818210797e-01  2.9928499592070223e-02  4.1920365906248147e-02  1.2168572300810537e-02  6.4885167930374507e-02  5.3819125332815174e-02  1.2710999109816482e-01  1.4510917833875656e-01  1.1024621915441261e-01  5.4442614988440434e-02  5.0281501885533930e-02  4.3371608762891270e-02  1.4583379103888505e-03  9.9260156473853375e-02  9.9422538887007611e-02  9.1501261754352442e-02  2.1736737301020878e-01  7.5339067644113286e-02  7.4110495761952222e-02  7.4568919876600040e-02  3.9382242774276613e-02  7.9103230274840591e-02  1.5147113701115794e-01  1.8464899960408762e-01  1.6043362269143632e-01  1.4937672588108547e-01  4.4913931992311661e-02  7.7689303404884627e-02  5.3405900626574604e-02  2.3601369384805927e-02  1.1480233724147358e-01  1.0442877046196157e-01  2.8152478185121031e-02  4.3378257855317202e-02  3.4370263993780577e-02  4.0646513526831372e-02  2.9113021933352398e-02  1.1302835115342507e-02  1.2273602635838467e-02  3.4674951531908506e-02  7.0408139590635256e-03  1.0363889409660407e-02  9.1858813201328871e-03  1.4977982060233694e-03  1.3718098485420346e-04  3.9115841836808692e-03  4.8044529268268087e-03  6.6174759406064576e-03  3.2029126545745815e-04  4.1517821498827760e-03  1.1240153869026040e-03  2.2172572301854070e-03  1.1223214594527342e-03  1.1830026983154612e-04  3.0668806129026289e-03  2.1066342911142599e-03  1.1311098326573438e-03  2.2617564366324210e-04  2.9210444085021269e-05  3.9802232039637545e-03  5.1057035721943254e-03  1.2670651617705734e-04  3.2361632622934446e-03  2.7160854422973919e-03  1.0739463865838677e-03  7.7399824732313010e-04  9.4484130114112707e-05  1.2736908771170696e-03  2.9130453281873314e-03  3.5266907031979737e-03  1.2268106268388881e-03  5.1035376929459760e-04  1.1563572451594093e-06  1.5371487159732994e-03  7.3241389173267794e-04  7.3503912752790365e-04  2.5222015377640187e-04  7.7163978484176801e-05  8.4125655909484504e-04  2.8206506566724472e-04  4.6662838466292951e-04  2.3740494534302549e-04  -3.2946554559963019e-20  -2.9622901982718200e-19  1.1530519502475163e-02  1.0191018935674407e-02  1.2114722622700627e-02  1.6551267007472604e-02  2.0171987630617731e-02  4.8077509525760696e-02  5.5647659249717938e-03  1.0370063588931042e-02  3.3462217165306063e-02  2.9630701006984367e-02  4.0848333315908064e-03  1.1229895938057772e-02  1.4402730954163475e-02  1.9709689332565151e-02  7.2547291319724774e-02  2.2327412541288116e-02  1.