<?xml version="1.0"?>
<VTKFile type="UnstructuredGrid"  version="0.1"  >
<UnstructuredGrid>
<Piece  NumberOfPoints="10201" NumberOfCells="20000">
<Points>
<DataArray  type="Float64"  NumberOfComponents="3"  format="ascii">0 0 0  0.01 0 0  0.02 0 0  0.03 0 0  0.04 0 0  0.05 0 0  0.06 0 0  0.07000000000000001 0 0  0.08 0 0  0.09 0 0  0.1 0 0  0.11 0 0  0.12 0 0  0.13 0 0  0.14 0 0  0.15 0 0  0.16 0 0  0.17 0 0  0.18 0 0  0.19 0 0  0.2 0 0  0.21 0 0  0.22 0 0  0.23 0 0  0.24 0 0  0.25 0 0  0.26 0 0  0.27 0 0  0.28 0 0  0.29 0 0  0.3 0 0  0.31 0 0  0.32 0 0  0.33 0 0  0.34 0 0  0.35 0 0  0.36 0 0  0.37 0 0  0.38 0 0  0.39 0 0  0.4 0 0  0.41 0 0  0.42 0 0  0.43 0 0  0.44 0 0  0.45 0 0  0.46 0 0  0.47 0 0  0.48 0 0  0.49 0 0  0.5 0 0  0.51 0 0  0.52 0 0  0.53 0 0  0.54 0 0  0.55 0 0  0.5600000000000001 0 0  0.57 0 0  0.58 0 0  0.59 0 0  0.6 0 0  0.61 0 0  0.62 0 0  0.63 0 0  0.64 0 0  0.65 0 0  0.66 0 0  0.67 0 0  0.68 0 0  0.6899999999999999 0 0  0.7 0 0  0.71 0 0  0.72 0 0  0.73 0 0  0.74 0 0  0.75 0 0  0.76 0 0  0.77 0 0  0.78 0 0  0.79 0 0  0.8 0 0  0.8100000000000001 0 0  0.82 0 0  0.83 0 0  0.84 0 0  0.85 0 0  0.86 0 0  0.87 0 0  0.88 0 0  0.89 0 0  0.9 0 0  0.91 0 0  0.92 0 0  0.93 0 0  0.9399999999999999 0 0  0.95 0 0  0.96 0 0  0.97 0 0  0.98 0 0  0.99 0 0  1 0 0  0 0.01 0  0.01 0.01 0  0.02 0.01 0  0.03 0.01 0  0.04 0.01 0  0.05 0.01 0  0.06 0.01 0  0.07000000000000001 0.01 0  0.08 0.01 0  0.09 0.01 0  0.1 0.01 0  0.11 0.01 0  0.12 0.01 0  0.13 0.01 0  0.14 0.01 0  0.15 0.01 0  0.16 0.01 0  0.17 0.01 0  0.18 0.01 0  0.19 0.01 0  0.2 0.01 0  0.21 0.01 0  0.22 0.01 0  0.23 0.01 0  0.24 0.01 0  0.25 0.01 0  0.26 0.01 0  0.27 0.01 0  0.28 0.01 0  0.29 0.01 0  0.3 0.01 0  0.31 0.01 0  0.32 0.01 0  0.33 0.01 0  0.34 0.01 0  0.35 0.01 0  0.36 0.01 0  0.37 0.01 0  0.38 0.01 0  0.39 0.01 0  0.4 0.01 0  0.41 0.01 0  0.42 0.01 0  0.43 0.01 0  0.44 0.01 0  0.45 0.01 0  0.46 0.01 0  0.47 0.01 0  0.48 0.01 0  0.49 0.01 0  0.5 0.01 0  0.51 0.01 0  0.52 0.01 0  0.53 0.01 0  0.54 0.01 0  0.55 0.01 0  0.5600000000000001 0.01 0  0.57 0.01 0  0.58 0.01 0  0.59 0.01 0  0.6 0.01 0  0.61 0.01 0  0.62 0.01 0  0.63 0.01 0  0.64 0.01 0  0.65 0.01 0  0.66 0.01 0  0.67 0.01 0  0.68 0.01 0  0.6899999999999999 0.01 0  0.7 0.01 0  0.71 0.01 0  0.72 0.01 0  0.73 0.01 0  0.74 0.01 0  0.75 0.01 0  0.76 0.01 0  0.77 0.01 0  0.78 0.01 0  0.79 0.01 0  0.8 0.01 0  0.8100000000000001 0.01 0  0.82 0.01 0  0.83 0.01 0  0.84 0.01 0  0.85 0.01 0  0.86 0.01 0  0.87 0.01 0  0.88 0.01 0  0.89 0.01 0  0.9 0.01 0  0.91 0.01 0  0.92 0.01 0  0.93 0.01 0  0.9399999999999999 0.01 0  0.95 0.01 0  0.96 0.01 0  0.97 0.01 0  0.98 0.01 0  0.99 0.01 0  1 0.01 0  0 0.02 0  0.01 0.02 0  0.02 0.02 0  0.03 0.02 0  0.04 0.02 0  0.05 0.02 0  0.06 0.02 0  0.07000000000000001 0.02 0  0.08 0.02 0  0.09 0.02 0  0.1 0.02 0  0.11 0.02 0  0.12 0.02 0  0.13 0.02 0  0.14 0.02 0  0.15 0.02 0  0.16 0.02 0  0.17 0.02 0  0.18 0.02 0  0.19 0.02 0  0.2 0.02 0  0.21 0.02 0  0.22 0.02 0  0.23 0.02 0  0.24 0.02 0  0.25 0.02 0  0.26 0.02 0  0.27 0.02 0  0.28 0.02 0  0.29 0.02 0  0.3 0.02 0  0.31 0.02 0  0.32 0.02 0  0.33 0.02 0  0.34 0.02 0  0.35 0.02 0  0.36 0.02 0  0.37 0.02 0  0.38 0.02 0  0.39 0.02 0  0.4 0.02 0  0.41 0.02 0  0.42 0.02 0  0.43 0.02 0  0.44 0.02 0  0.45 0.02 0  0.46 0.02 0  0.47 0.02 0  0.48 0.02 0  0.49 0.02 0  0.5 0.02 0  0.51 0.02 0  0.52 0.02 0  0.53 0.02 0  0.54 0.02 0  0.55 0.02 0  0.5600000000000001 0.02 0  0.57 0.02 0  0.58 0.02 0  0.59 0.02 0  0.6 0.02 0  0.61 0.02 0  0.62 0.02 0  0.63 0.02 0  0.64 0.02 0  0.65 0.02 0  0.66 0.02 0  0.67 0.02 0  0.68 0.02 0  0.6899999999999999 0.02 0  0.7 0.02 0  0.71 0.02 0  0.72 0.02 0  0.73 0.02 0  0.74 0.02 0  0.75 0.02 0  0.76 0.02 0  0.77 0.02 0  0.78 0.02 0  0.79 0.02 0  0.8 0.02 0  0.8100000000000001 0.02 0  0.82 0.02 0  0.83 0.02 0  0.84 0.02 0  0.85 0.02 0  0.86 0.02 0  0.87 0.02 0  0.88 0.02 0  0.89 0.02 0  0.9 0.02 0  0.91 0.02 0  0.92 0.02 0  0.93 0.02 0  0.9399999999999999 0.02 0  0.95 0.02 0  0.96 0.02 0  0.97 0.02 0  0.98 0.02 0  0.99 0.02 0  1 0.02 0  0 0.03 0  0.01 0.03 0  0.02 0.03 0  0.03 0.03 0  0.04 0.03 0  0.05 0.03 0  0.06 0.03 0  0.07000000000000001 0.03 0  0.08 0.03 0  0.09 0.03 0  0.1 0.03 0  0.11 0.03 0  0.12 0.03 0  0.13 0.03 0  0.14 0.03 0  0.15 0.03 0  0.16 0.03 0  0.17 0.03 0  0.18 0.03 0  0.19 0.03 0  0.2 0.03 0  0.21 0.03 0  0.22 0.03 0  0.23 0.03 0  0.24 0.03 0  0.25 0.03 0  0.26 0.03 0  0.27 0.03 0  0.28 0.03 0  0.29 0.03 0  0.3 0.03 0  0.31 0.03 0  0.32 0.03 0  0.33 0.03 0  0.34 0.03 0  0.35 0.03 0  0.36 0.03 0  0.37 0.03 0  0.38 0.03 0  0.39 0.03 0  0.4 0.03 0  0.41 0.03 0  0.42 0.03 0  0.43 0.03 0  0.44 0.03 0  0.45 0.03 0  0.46 0.03 0  0.47 0.03 0  0.48 0.03 0  0.49 0.03 0  0.5 0.03 0  0.51 0.03 0  0.52 0.03 0  0.53 0.03 0  0.54 0.03 0  0.55 0.03 0  0.5600000000000001 0.03 0  0.57 0.03 0  0.58 0.03 0  0.59 0.03 0  0.6 0.03 0  0.61 0.03 0  0.62 0.03 0  0.63 0.03 0  0.64 0.03 0  0.65 0.03 0  0.66 0.03 0  0.67 0.03 0  0.68 0.03 0  0.6899999999999999 0.03 0  0.7 0.03 0  0.71 0.03 0  0.72 0.03 0  0.73 0.03 0  0.74 0.03 0  0.75 0.03 0  0.76 0.03 0  0.77 0.03 0  0.78 0.03 0  0.79 0.03 0  0.8 0.03 0  0.8100000000000001 0.03 0  0.82 0.03 0  0.83 0.03 0  0.84 0.03 0  0.85 0.03 0  0.86 0.03 0  0.87 0.03 0  0.88 0.03 0  0.89 0.03 0  0.9 0.03 0  0.91 0.03 0  0.92 0.03 0  0.93 0.03 0  0.9399999999999999 0.03 0  0.95 0.03 0  0.96 0.03 0  0.97 0.03 0  0.98 0.03 0  0.99 0.03 0  1 0.03 0  0 0.04 0  0.01 0.04 0  0.02 0.04 0  0.03 0.04 0  0.04 0.04 0  0.05 0.04 0  0.06 0.04 0  0.07000000000000001 0.04 0  0.08 0.04 0  0.09 0.04 0  0.1 0.04 0  0.11 0.04 0  0.12 0.04 0  0.13 0.04 0  0.14 0.04 0  0.15 0.04 0  0.16 0.04 0  0.17 0.04 0  0.18 0.04 0  0.19 0.04 0  0.2 0.04 0  0.21 0.04 0  0.22 0.04 0  0.23 0.04 0  0.24 0.04 0  0.25 0.04 0  0.26 0.04 0  0.27 0.04 0  0.28 0.04 0  0.29 0.04 0  0.3 0.04 0  0.31 0.04 0  0.32 0.04 0  0.33 0.04 0  0.34 0.04 0  0.35 0.04 0  0.36 0.04 0  0.37 0.04 0  0.38 0.04 0  0.39 0.04 0  0.4 0.04 0  0.41 0.04 0  0.42 0.04 0  0.43 0.04 0  0.44 0.04 0  0.45 0.04 0  0.46 0.04 0  0.47 0.04 0  0.48 0.04 0  0.49 0.04 0  0.5 0.04 0  0.51 0.04 0  0.52 0.04 0  0.53 0.04 0  0.54 0.04 0  0.55 0.04 0  0.5600000000000001 0.04 0  0.57 0.04 0  0.58 0.04 0  0.59 0.04 0  0.6 0.04 0  0.61 0.04 0  0.62 0.04 0  0.63 0.04 0  0.64 0.04 0  0.65 0.04 0  0.66 0.04 0  0.67 0.04 0  0.68 0.04 0  0.6899999999999999 0.04 0  0.7 0.04 0  0.71 0.04 0  0.72 0.04 0  0.73 0.04 0  0.74 0.04 0  0.75 0.04 0  0.76 0.04 0  0.77 0.04 0  0.78 0.04 0  0.79 0.04 0  0.8 0.04 0  0.8100000000000001 0.04 0  0.82 0.04 0  0.83 0.04 0  0.84 0.04 0  0.85 0.04 0  0.86 0.04 0  0.87 0.04 0  0.88 0.04 0  0.89 0.04 0  0.9 0.04 0  0.91 0.04 0  0.92 0.04 0  0.93 0.04 0  0.9399999999999999 0.04 0  0.95 0.04 0  0.96 0.04 0  0.97 0.04 0  0.98 0.04 0  0.99 0.04 0  1 0.04 0  0 0.05 0  0.01 0.05 0  0.02 0.05 0  0.03 0.05 0  0.04 0.05 0  0.05 0.05 0  0.06 0.05 0  0.07000000000000001 0.05 0  0.08 0.05 0  0.09 0.05 0  0.1 0.05 0  0.11 0.05 0  0.12 0.05 0  0.13 0.05 0  0.14 0.05 0  0.15 0.05 0  0.16 0.05 0  0.17 0.05 0  0.18 0.05 0  0.19 0.05 0  0.2 0.05 0  0.21 0.05 0  0.22 0.05 0  0.23 0.05 0  0.24 0.05 0  0.25 0.05 0  0.26 0.05 0  0.27 0.05 0  0.28 0.05 0  0.29 0.05 0  0.3 0.05 0  0.31 0.05 0  0.32 0.05 0  0.33 0.05 0  0.34 0.05 0  0.35 0.05 0  0.36 0.05 0  0.37 0.05 0  0.38 0.05 0  0.39 0.05 0  0.4 0.05 0  0.41 0.05 0  0.42 0.05 0  0.43 0.05 0  0.44 0.05 0  0.45 0.05 0  0.46 0.05 0  0.47 0.05 0  0.48 0.05 0  0.49 0.05 0  0.5 0.05 0  0.51 0.05 0  0.52 0.05 0  0.53 0.05 0  0.54 0.05 0  0.55 0.05 0  0.5600000000000001 0.05 0  0.57 0.05 0  0.58 0.05 0  0.59 0.05 0  0.6 0.05 0  0.61 0.05 0  0.62 0.05 0  0.63 0.05 0  0.64 0.05 0  0.65 0.05 0  0.66 0.05 0  0.67 0.05 0  0.68 0.05 0  0.6899999999999999 0.05 0  0.7 0.05 0  0.71 0.05 0  0.72 0.05 0  0.73 0.05 0  0.74 0.05 0  0.75 0.05 0  0.76 0.05 0  0.77 0.05 0  0.78 0.05 0  0.79 0.05 0  0.8 0.05 0  0.8100000000000001 0.05 0  0.82 0.05 0  0.83 0.05 0  0.84 0.05 0  0.85 0.05 0  0.86 0.05 0  0.87 0.05 0  0.88 0.05 0  0.89 0.05 0  0.9 0.05 0  0.91 0.05 0  0.92 0.05 0  0.93 0.05 0  0.9399999999999999 0.05 0  0.95 0.05 0  0.96 0.05 0  0.97 0.05 0  0.98 0.05 0  0.99 0.05 0  1 0.05 0  0 0.06 0  0.01 0.06 0  0.02 0.06 0  0.03 0.06 0  0.04 0.06 0  0.05 0.06 0  0.06 0.06 0  0.07000000000000001 0.06 0  0.08 0.06 0  0.09 0.06 0  0.1 0.06 0  0.11 0.06 0  0.12 0.06 0  0.13 0.06 0  0.14 0.06 0  0.15 0.06 0  0.16 0.06 0  0.17 0.06 0  0.18 0.06 0  0.19 0.06 0  0.2 0.06 0  0.21 0.06 0  0.22 0.06 0  0.23 0.06 0  0.24 0.06 0  0.25 0.06 0  0.26 0.06 0  0.27 0.06 0  0.28 0.06 0  0.29 0.06 0  0.3 0.06 0  0.31 0.06 0  0.32 0.06 0  0.33 0.06 0  0.34 0.06 0  0.35 0.06 0  0.36 0.06 0  0.37 0.06 0  0.38 0.06 0  0.39 0.06 0  0.4 0.06 0  0.41 0.06 0  0.42 0.06 0  0.43 0.06 0  0.44 0.06 0  0.45 0.06 0  0.46 0.06 0  0.47 0.06 0  0.48 0.06 0  0.49 0.06 0  0.5 0.06 0  0.51 0.06 0  0.52 0.06 0  0.53 0.06 0  0.54 0.06 0  0.55 0.06 0  0.5600000000000001 0.06 0  0.57 0.06 0  0.58 0.06 0  0.59 0.06 0  0.6 0.06 0  0.61 0.06 0  0.62 0.06 0  0.63 0.06 0  0.64 0.06 0  0.65 0.06 0  0.66 0.06 0  0.67 0.06 0  0.68 0.06 0  0.6899999999999999 0.06 0  0.7 0.06 0  0.71 0.06 0  0.72 0.06 0  0.73 0.06 0  0.74 0.06 0  0.75 0.06 0  0.76 0.06 0  0.77 0.06 0  0.78 0.06 0  0.79 0.06 0  0.8 0.06 0  0.8100000000000001 0.06 0  0.82 0.06 0  0.83 0.06 0  0.84 0.06 0  0.85 0.06 0  0.86 0.06 0  0.87 0.06 0  0.88 0.06 0  0.89 0.06 0  0.9 0.06 0  0.91 0.06 0  0.92 0.06 0  0.93 0.06 0  0.9399999999999999 0.06 0  0.95 0.06 0  0.96 0.06 0  0.97 0.06 0  0.98 0.06 0  0.99 0.06 0  1 0.06 0  0 0.07000000000000001 0  0.01 0.07000000000000001 0  0.02 0.07000000000000001 0  0.03 0.07000000000000001 0  0.04 0.07000000000000001 0  0.05 0.07000000000000001 0  0.06 0.07000000000000001 0  0.07000000000000001 0.07000000000000001 0  0.08 0.07000000000000001 0  0.09 0.07000000000000001 0  0.1 0.07000000000000001 0  0.11 0.07000000000000001 0  0.12 0.07000000000000001 0  0.13 0.07000000000000001 0  0.14 0.07000000000000001 0  0.15 0.07000000000000001 0  0.16 0.07000000000000001 0  0.17 0.0700
[...]
<PointData  Scalars="Indicator Function"> 
<DataArray  type="Float64"  Name="Indicator Function"  format="ascii">-2.8852308200571780e-19  9.5676059705462896e-19  2.0631367793117807e-17  8.1412708407628999e-19  5.5584276624688151e-17  -1.6334540465475048e-19  -1.8423694966801260e-19  2.3892231100829935e-17  1.0777643490329830e-16  -9.4999596241659184e-20  2.9527028924530866e-17  2.6631881722897764e-17  -1.1413860251295295e-19  -3.4647002819912252e-19  2.4432243945735446e-16  1.6851887013388314e-34  -6.1558223756372418e-19  2.5071342364388806e-16  -5.2067398160319856e-19  -6.7998530509006869e-19  5.6215104889514526e-16  -1.2602290599443826e-18  -5.9261983152844004e-19  2.9038371744893957e-17  -2.2975810891202357e-19  -5.3441515597722302e-19  -5.0369419863317172e-19  -7.0658754735118815e-19  7.9470011115936694e-16  -1.2264089863811205e-18  -2.0386972924402113e-18  -1.0193486462201058e-18  -1.1086012204172467e-18  -1.7600910892968109e-18  5.3512146319611516e-17  -6.9825448250680772e-19  -2.8513210095089337e-18  -4.5998524136346227e-18  -4.1885583332829163e-18  -4.8781678433431783e-18  3.9158043569265455e-16  -2.7383560729177075e-19  -1.5671903962555947e-18  -1.5521000092684231e-18  -1.0459403172669070e-18  -5.2297015863343163e-19  1.2861246267253333e-16  -6.8442823707615676e-19  -1.3491629653550127e-19  -4.4207728718151555e-19  -2.2103864359075787e-19  -3.2563345304169288e-19  -9.7965135142697366e-20  -4.9950262156393798e-19  -3.6021305939966060e-19  4.8148248609680896e-34  2.5268200870360534e-31  -2.2602804188482175e-20  -7.5231638452626401e-37  -4.4680857612358981e-21  1.5046327690525280e-36  -3.7375109470627410e-22  -2.5281195788987863e-20  -2.4797594901868156e-20  -1.0845418304115269e-20  -9.3694818096909801e-21  -1.8900397362974229e-20  5.8680677993048592e-35  1.4612155893061177e-17  -3.9687523563418197e-20  -8.6858563604579104e-21  -2.1542595277652571e-21  -4.1509651207807894e-22  -5.0552071929661533e-20  -1.3933304319911919e-19  -9.2666527076588124e-20  -2.4919791492614228e-20  -6.4776611561104535e-20  -7.2399681707405379e-20  -4.7089697820529557e-20  -1.3006058182827224e-20  2.2150490227988295e-18  -2.4833128206233622e-20  -5.7147009999226473e-20  -5.4892581563884349e-20  -3.3634646901976897e-20  -1.6604961643501959e-20  -8.0697110879789164e-21  -6.9430616453858171e-21  -3.7438605931872014e-21  -2.2206123643050697e-22  -4.0629645416724180e-22  -6.3273593127994214e-22  1.4875214243774840e-19  -6.0285800462747133e-22  -4.3571759852991799e-22  -2.7219325484678595e-22  -1.4463717938750825e-22  -3.2781533857260613e-22  -1.6390766928630314e-22  0.0000000000000000e+00  9.6296497219361793e-35  1.1347800345838674e-02  2.1094035474827647e-02  4.7979283613948280e-03  5.5999066702389329e-03  4.0385000873349882e-04  3.1656721374628966e-03  1.7360817627595127e-03  1.9138002661446947e-02  1.6572919548382147e-02  1.7113605849371169e-03  2.2888116346479939e-02  4.1122765419673978e-03  1.2482898319140564e-02  7.5775662539344472e-03  3.1713425180879225e-02  1.5681992470252423e-02  3.2483475077053174e-03  1.8759257196237420e-02  2.4499052532968038e-02  1.4012748461250930e-02  3.0808446276831616e-02  2.2702268499067965e-02  1.0675689809775525e-02  8.2779082694523116e-03  1.9254335178561326e-02  1.8147496042184273e-02  8.4454248145946938e-03  8.5060372525243254e-03  1.2104463723048846e-02  1.6040788354754938e-02  3.6725905466219892e-02  1.8559136781725789e-02  1.0691215781831463e-02  2.6361374404665221e-02  1.6988395595248233e-02  1.2578634508909749e-02  4.5075515689297518e-02  6.9489363976621837e-02  7.0314868478096912e-02  5.4371819882010147e-02  2.8791852705790995e-02  4.9329837558399672e-03  2.5765500460461280e-02  1.5077397863301412e-02  1.8841985692380079e-02  2.3543749981487817e-02  5.3497793441106920e-03  1.2329563013832099e-02  2.4304359312139643e-03  7.9637564232785327e-03  4.6730496442402569e-03  3.5295659689916141e-03  2.0238754024032336e-03  7.9863015801821292e-03  2.4958708102541262e-03  1.4671496653757856e-03  7.1638347468966053e-04  5.1065354136791886e-05  1.3014069575083162e-04  1.5419529602029734e-05  1.3465802326787933e-05  1.6277682975594332e-04  3.7403712086109340e-04  2.5969519620840499e-04  1.9877439037302067e-04  2.9400012150199872e-04  1.9347922933318087e-04  1.1673082597096886e-04  5.3209893554082412e-04  4.4889739755545971e-04  7.7615379252023674e-05  1.4955427976940999e-05  4.1424852254568579e-04  1.3663567173697695e-03  1.8268226070429167e-03  7.5592044372590247e-04  4.4891505472115153e-04  9.4245416739507915e-04  9.2553914664243655e-04  6.5695109817027195e-04  2.3669405209803552e-04  2.6528438791034330e-04  5.5719456898933612e-04  7.5087172725674925e-04  6.9077197057149401e-04  5.0974995047152829e-04  3.1896357644969035e-04  2.0415524280860227e-04  1.2777527986128571e-04  5.5782783614055381e-05  1.1826487988121232e-05  7.3191862383581844e-06  1.5456683704023476e-05  1.8358122455010510e-05  1.6767609459211580e-05  1.3077057088503191e-05  8.6751082195934470e-06  6.9669908091339277e-07  5.9053961465676862e-06  1.6390766928630337e-22  -7.0304643197227637e-19  1.8137140123510511e-03  5.2537473552722053e-03  1.2095950583740153e-05  6.4299800240541867e-03  2.0725017169600481e-02  4.2505518308620311e-03  1.6968530183197713e-02  1.3561448912330311e-03  9.4030871830826108e-03  2.4957365357228103e-02  1.9888665994109156e-02  1.1802132358998756e-02  3.7042893262346742e-02  3.7766007639505113e-02  2.6013117837599173e-02  2.8585701832699131e-03  4.5678151710165496e-02  1.2450651773612450e-02  8.7202784583444003e-03  9.4484401594473483e-03  2.3403737388283892e-02  2.3391616790799361e-02  2.5996067165864976e-02  1.5203163272362341e-02  6.6344305847397403e-04  1.6766051235043371e-02  2.5122392451187161e-02  3.7658933205626272e-02  1.5871787124130173e-02  3.7614167845441346e-02  3.6839853304600476e-02  1.7437957239770822e-02  2.8388780866191458e-02  2.8496539246567833e-02  2.9474422784966044e-02  5.6798256551508167e-03  4.1937337933226002e-02  7.3738472970630700e-02  8.2612805764521860e-02  9.3946025895558394e-02  5.1005078894991257e-02  6.5643333128749745e-03  1.1454207364537517e-02  3.2576866534411927e-02  1.1088435585971120e-02  5.0855545214817822e-03  8.3166289719594933e-03  1.5462991635985772e-02  6.7414905686559818e-03  1.2789925738589307e-02  2.1029118776827250e-03  4.5286885539652603e-03  3.4883182474681244e-03  1.1366826935469912e-02  4.9910397428847009e-03  1.3816790402962657e-03  1.6652341497092706e-03  5.3872540902748830e-04  4.3899907410719163e-05  1.5002771604217589e-04  8.5171471903448015e-05  1.7557017044838443e-06  5.0161536730622793e-04  3.8548878453481891e-04  2.9397489170701282e-04  2.7515054200814149e-04  4.2751579485572345e-04  3.7281300820651461e-05  4.3365331797278991e-04  8.5341316700924066e-04  7.8020851937760526e-06  9.8682508442322846e-05  7.0180555913981592e-05  1.2191784826593546e-03  2.3030730510018079e-03  1.6390103153466761e-03  1.6628703745819826e-04  1.0322628552248867e-03  1.0914328080189478e-03  1.0231793426764713e-03  4.6836003159195742e-04  2.3985532149820105e-04  5.7933799793668205e-04  8.8467363068056094e-04  9.0643125631216623e-04  7.1235004394590090e-04  4.8225407245473226e-04  2.9565145298160060e-04  1.9978593228159962e-04  1.0025024241566400e-04  2.3834139901752129e-05  1.0355444221420221e-05  2.3931958035113662e-05  3.0672516531345853e-05  3.0847393757965366e-05  2.7079904019589764e-05  2.1202562638383022e-05  1.2821195466767914e-05  1.9200905513241737e-06  -2.0171008100319461e-21  3.8518598887744717e-34  1.5301871255554954e-02  5.6316209912537522e-03  2.9392187675655174e-02  1.3991968448481258e-02  4.5229487604310693e-04  1.4066246100217399e-03  4.3963879557268369e-04  3.7892239332778430e-03  3.2627611310109335e-02  5.1539486059313917e-02  2.9068543897967588e-02  3.3388060810287959e-02  1.9742256016177618e-02  9.8394228349902493e-03  2.1760159192109812e-02  7.1309329649164158e-02  1.2351891174236210e-03  8.1550223071680892e-03  2.9499442900999616e-02  5.1858637087318075e-02  4.5131698882930456e-02  7.3786192980018886e-02  7.2465666620975352e-02  4.7068077684962017e-02  2.3511189450512952e-02  3.6383546512931422e-02  4.1395518703343896e-02  1.7991594312971329e-02  2.3342838577220051e-02  2.7477712352197762e-02  3.2415947806340981e-02  8.0831333137728473e-02  5.4269614476411474e-02  4.4261695445901783e-03  3.8322735446470912e-02  2.1679881263813192e-02  2.8631951895363657e-02  6.9199278086842286e-02  9.6635089661658943e-02  8.4102345777990528e-02  6.9919812440141643e-02  3.7383492471637268e-02  2.0020538945451808e-02  3.4396290357390572e-02  1.4693709424561519e-02  4.4562204662189318e-02  6.0833546245469799e-02  2.8448902216781004e-02  3.0285210480950436e-02  1.5512174489499613e-02  2.0631102490965749e-02  1.3929731063967160e-02  2.3229102079467311e-03  4.4345112613256941e-03  1.3874090826757815e-02  1.3535688962446034e-03  1.8866303328510942e-03  1.6236046906987253e-03  9.3907574947558280e-06  2.1003741078202598e-04  4.3645388267146285e-06  2.5942450344614678e-05  2.2480762015954881e-04  6.2760193057340282e-04  2.8884531525173501e-04  2.6990672394269479e-04  4.3747569030893018e-04  2.6514260370600983e-04  3.3449086306749383e-05  9.2262145322510620e-04  6.0824301372109399e-04  4.4725937602769984e-04  1.9652445480882383e-04  5.7747650918298944e-04  2.1086720081779464e-03  2.4872082174532528e-03  4.2168424358543635e-04  9.6408647561440134e-04  1.1409117408493746e-03  9.9922448301324913e-04  8.0964712730007395e-04  1.6896145816785456e-04  4.3601493591725275e-04  8.7668206384825063e-04  9.9704528538410047e-04  8.2179142820329833e-04  5.8732995318926226e-04  3.7366543311632923e-04  2.5278039179926732e-04  1.6237914444705586e-04  5.6436121943749748e-05  3.1000791545912929e-09  2.0459392170339529e-05  3.1172840378504198e-05  3.6622268306441751e-05  3.4778477147897763e-05  3.0705081611554691e-05  2.5951989096933148e-05  1.4209782099856977e-05  -1.9720034077709522e-21  -2.6459962473675081e-19  5.5768399805961912e-03  6.8781531922683182e-03  1.2394131350986217e-02  1.2920897774486271e-03  2.9403428375218239e-03  2.0345845899080662e-02  2.1764196988833924e-02  2.3482470310529625e-02  1.0564132593168312e-02  5.0893146923878599e-03  1.4909421243542890e-02  3.0545254870708045e-02  3.9948881761250776e-02  3.8204408273513686e-02  7.2909881450490502e-02  3.0082814347748414e-03  2.6256088474095329e-03  5.8294169568882885e-02  3.1854421361177117e-02  2.9182381119849617e-02  3.2737955912973196e-02  6.0455461814039645e-03  9.7595706884560044e-03  1.4934847925232848e-02  1.4159259166116081e-02  5.9340415354289721e-03  4.0434179417423402e-02  5.3581336275407156e-02  5.9766614308335089e-02  2.6002335196680843e-02  4.9402308978623334e-02  5.1888730399850029e-02  3.7491440095500296e-02  6.6343204294320599e-02  2.1779718209624658e-02  3.0361728385843771e-02  1.0449723576170140e-02  5.0022661176857601e-02  8.3785489476657010e-02  9.4678765204985027e-02  1.0345494735310251e-01  4.2502188176662993e-02  1.5198057181729677e-02  9.2961611954897536e-03  4.1579365577709679e-02  2.1448874876014257e-02  8.4650504765937246e-03  3.3067549885302916e-02  3.4056588732462806e-03  5.3890623187763621e-03  1.1966009835566621e-02  1.1932024728949168e-03  1.0092218505218130e-02  3.0793699387180349e-03  1.6692146202194523e-02  5.5673482377206944e-03  2.2456393487982978e-03  2.3721185528644741e-03  9.5730534715483438e-04  1.4402483063382187e-04  2.7349092979769076e-04  1.0831178629853925e-04  4.4275328967502211e-05  6.0013981817064643e-04  4.5033942350784746e-04  2.6380981890222066e-04  2.7634351900660188e-04  5.5285015938739957e-04  7.5971834649023258e-05  4.3407674051095695e-04  1.1938805763080757e-03  1.4839834826689411e-04  3.0670251226648320e-04  2.3804944317357230e-04  1.4229271081668382e-03  2.8046036648937934e-03  1.7294209310105123e-03  7.8974474562171833e-04  1.3080799957334210e-03  9.9794347151354180e-04  9.5710554849462318e-04  4.1052778242176550e-04  1.1236915049554569e-04  7.4573771042828966e-04  1.0522035107030992e-03  9.5367565906977572e-04  6.8299039641200887e-04  4.5636584443270808e-04  2.9100070346291273e-04  2.1893958249080803e-04  1.1211607411114629e-04  2.2512551490471848e-05  1.0409676481044629e-05  2.2274497712123238e-05  3.1428518288871671e-05  3.4105762455081994e-05  3.1669948151484237e-05  2.7433337053898317e-05  2.0664458853342686e-05  5.1619855523400473e-21  -9.6051740663309408e-19  2.9472566681183875e-02  2.6135966626011614e-02  2.9009556163075633e-03  3.2914595988242236e-02  3.0023128887781449e-02  3.6919574617830845e-03  1.2304068031966015e-02  7.2994620283699406e-03  1.7366179553486360e-02  3.0677343973342517e-02  5.9148834671779060e-02  5.5348968742489568e-02  1.5667175431308179e-02  2.2232709137466271e-02  1.4652718064026547e-02  4.7611999614943189e-03  8.3942266007315108e-02  2.1924362837292068e-02  2.3845310970952053e-02  1.7500747745562310e-02  5.0807278251079294e-02  5.0353703262065175e-02  8.7997195229851763e-02  9.7815058239330524e-02  7.4502125955352577e-02  3.7457147974103495e-02  3.6084009842034651e-02  4.0427179265099436e-02  1.2453572720698193e-02  4.6501092028626290e-02  4.7321411582649783e-02  4.8616441296071893e-02  1.1365993416494859e-01  5.9838439873478866e-02  1.5393886039379424e-02  4.5013804770361814e-02  2.4784778870825964e-02  4.0066329978353014e-02  7.9448197497059017e-02  1.0158382421690818e-01  8.4173393169608729e-02  8.1705303365862486e-02  3.4642347073797021e-02  3.8563651898515607e-02  3.3000563456239147e-02  1.4695989460335533e-02  6.0649900985530525e-02  7.3272497833900510e-02  3.2381071873460510e-02  3.7302501850975792e-02  2.5805519805126576e-02  2.8819450357145469e-02  1.8779322775785829e-02  3.1669271918264930e-03  4.5349238145034332e-03  1.9054817969822724e-02  4.1041879166528036e-03  5.0461036023952957e-04  2.3600453974237713e-03  2.8246742416134449e-05  1.7224559588800443e-04  9.3788344325499720e-06  3.4770234660749912e-05  1.9590890265450969e-04  7.4222262708815783e-04  2.5817533183597745e-04  2.5520582799465694e-04  4.3252017130449456e-04  3.5005186958494489e-04  1.5406595530350492e-04  1.0677117344339829e-03  8.2731811214370812e-04  7.5556888072908241e-04  2.3688665255783956e-04  3.5874043812405063e-04  2.3998982963994125e-03  2.8598625124738888e-03  2.0513235839241266e-04  1.4577761861503031e-03  1.2179796920637246e-03  8.5792558756683833e-04  8.0318411850860232e-04  5.3392928202699130e-05  3.8754356274983774e-04  1.0413355831877028e-03  1.0734785134699880e-03  8.0795999442773733e-04  5.4484718115754870e-04  3.4991085553011788e-04  2.5381543956979924e-04  1.7667732272523212e-04  6.1790649463173064e-05  2.0421020214995075e-06  1.4364018761908727e-05  2.3355349892153163e-05  2.9674954025729985e-05  2.8582071024789933e-05  2.5033618237953594e-05  1.9315830890897485e-05  -1.0722440097420107e-21  -1.0488821266287348e-19  1.7919814443165802e-02  2.8315575411694167e-03  6.2903767707949100e-03  2.6016658948266064e-02  1.5958219474531739e-02  1.0083842360739223e-03  1.4281472612835145e-02  2.6525599769301092e-02  2.0932446035762855e-02  8.9668109285246812e-03  1.4248762589851117e-02  7.0971766168822581e-03  8.8087713226109501e-03  5.4676776135751330e-02  1.9629810927134256e-02  7.5227123804636517e-02  1.2714061553657436e-02  2.1174495600396918e-02  4.6787912958010533e-02  3.0345504933330780e-02  3.2855378259483710e-02  4.8920957277353662e-02  1.1496154619737398e-02  1.2338317441851409e-02  1.5604867541638340e-02  6.0640160170373578e-03  1.1142936588434410e-02  5.2895585115940613e-02  7.2694977619593357e-02  6.6262886235144494e-02  1.7272590437703923e-02  5.9800487020309857e-02  5.0133309673352507e-02  5.9369124904502107e-02  9.3244242309566072e-02  1.4087014126593210e-02  3.2297154757394995e-02  7.9993149725789449e-03  5.7475805782147914e-02  9.4616540148114103e-02  1.0482078347878915e-01  1.0210320903506372e-01  4.0554331054769743e-02  1.4673684693174042e-02  1.7722413955677630e-02  4.6727787995947991e-02  2.7189470637210760e-02  2.3656062616887061e-02  5.6810295652120826e-02  1.2115537659388607e-02  3.9692892564893350e-03  3.5416244030785026e-03  9.0628147625554500e-03  1.7031576903570125e-02  1.7680978652453978e-03  1.8807923350629176e-02  8.1162903015179165e-03  6.1796196774429376e-03  2.5817254700532962e-03  1.5184538103725194e-03  2.1040198332737971e-04  2.7377706353560544e-04  1.5331871553267469e-04  4.8494475118967442e-06  6.3646983264669852e-04  5.5134136129222347e-04  2.2039411774850596e-04  2.9006202599182572e-04  5.7971345455697272e-04  6.2400637503352935e-05  2.9225557364885764e-04  1.4325639004191472e-03  1.0370803888668991e-04  6.1340385472680072e-04  4.5141457009158155e-04  1.4186617694016998e-03  3.1795755073791743e-03  1.9123075763351402e-03  1.2479873801419360e-03  1.6035573265783764e-03  9.3120663909473467e-04  8.0339640211079990e-04  4.2263225904523615e-04  1.5901647087644328e-05  8.2393442230864651e-04  1.2113248261781692e-03  9.7271624741920566e-04  6.3981099136087240e-04  4.1570257069584372e-04  2.8149513641663665e-04  2.2994278605218321e-04  1.2222251622632469e-04  2.4025047681467876e-05  8.2189373238696608e-06  1.6852403465525167e-05  2.5128880367103000e-05  2.7542944007525421e-05  2.3870937047393177e-05  1.6981832559637699e-05  -9.4268107540194537e-22  -3.6681139806906416e-19  1.8894980618563081e-03  1.2016609666052750e-02  6.8370467836616220e-03  2.0142676151067580e-02  2.1619640483895645e-02  3.4056616233126662e-02  1.4575930349302983e-03  2.2725895264836385e-02  1.5707993114287885e-02  2.3786412204505340e-02  2.2879625514578117e-02  4.8336457150362631e-02  4.7556767387061806e-02  6.7406388226569887e-03  2.9761486274592999e-03  1.9550721845657232e-02  1.7215109329918911e-02  7.1922616465618011e-02  1.7589886618377130e-02  2.5016341328840657e-02  5.9990096719288819e-03  3.7746792418275360e-02  3.3465346827136935e-02  7.4732830232274478e-02  8.5673185627312562e-02  6.6785177682150712e-02  3.4982954041585482e-02  2.8974650793076272e-02  2.6516333570354208e-02  1.5790109247955843e-03  6.0822331487002640e-02  6.1157042297043697e-02  5.5479676307389467e-02  1.2939980598579348e-01  4.6551486894671146e-02  4.3715201995146814e-02  4.4028811366229902e-02  2.4169784441366648e-02  4.8396481197970555e-02  8.8388264385604931e-02  1.0620841074640157e-01  9.1510822781221177e-02  8.8505191152117857e-02  2.6853100436463429e-02  4.7925656658905781e-02  3.3613886348007764e-02  1.4478360457392325e-02  6.7587966938165031e-02  6.6858520542168676e-02  1.3994379359953693e-02  2.6633732253672968e-02  2.2502514712745895e-02  2.7017846893348057e-02  1.5838940860268307e-02  7.7100474465822159e-03  5.9290688744550769e-03  2.2634524938151289e-02  4.0081508442806058e-03  2.6750380159798830e-03  3.0112188039949843e-03  2.4898844946894216e-04  1.4553635649755170e-04  3.1703448459776204e-07  6.1237865329293135e-05  2.6682702410643042e-04  8.1158040182174450e-04  3.2292502893867925e-04  2.4896282425454741e-04  4.4945695643774377e-04  4.2496240235105766e-04  2.1036202918049807e-04  1.0373652297675610e-03  1.0622102901471037e-03  8.6099942396043901e-04  3.3136194153205844e-05  1.0307909477124068e-04  2.5758093685953683e-03  3.2186944993255685e-03  1.9470566800637134e-04  1.9903847166049897e-03  1.3624729881856368e-03  7.3212543473228882e-04  6.8128384658599085e-04  3.5561410316833266e-05  2.7334585924796882e-04  1.1975626917490542e-03  1.1969606685623448e-03  8.0076657778404366e-04  4.9655539447207694e-04  3.1573343813464364e-04  2.5242917034987687e-04  1.8706709809347905e-04  6.7269005480048594e-05  2.2154389254326039e-06  1.2840212574900405e-05  2.0194155962644672e-05  2.6156261643755034e-05  2.4424095310127109e-05  1.7352607870326475e-05  -2.4081580993660218e-21  -1.9393365675696169e-19  7.2598283154919410e-03  6.8522343274165821e-03  8.1351916568411786e-03  1.0642908572143625e-02  1.2491584278804802e-02  2.9520804876732150e-02  3.4982547020832159e-03  6.7251785351208548e-03  2.1359473690862094e-02  1.9133499251360139e-02  4.2078773292910550e-03  6.2751680425972064e-03  9.0416420541361391e-03  1.0252886480015688e-02  4.4318126063823418e-02  1.3437528724906604e-02  