<?xml version="1.0"?>
<VTKFile type="UnstructuredGrid"  version="0.1"  >
<UnstructuredGrid>
<Piece  NumberOfPoints="10201" NumberOfCells="20000">
<Points>
<DataArray  type="Float64"  NumberOfComponents="3"  format="ascii">0 0 0  0.01 0 0  0.02 0 0  0.03 0 0  0.04 0 0  0.05 0 0  0.06 0 0  0.07000000000000001 0 0  0.08 0 0  0.09 0 0  0.1 0 0  0.11 0 0  0.12 0 0  0.13 0 0  0.14 0 0  0.15 0 0  0.16 0 0  0.17 0 0  0.18 0 0  0.19 0 0  0.2 0 0  0.21 0 0  0.22 0 0  0.23 0 0  0.24 0 0  0.25 0 0  0.26 0 0  0.27 0 0  0.28 0 0  0.29 0 0  0.3 0 0  0.31 0 0  0.32 0 0  0.33 0 0  0.34 0 0  0.35 0 0  0.36 0 0  0.37 0 0  0.38 0 0  0.39 0 0  0.4 0 0  0.41 0 0  0.42 0 0  0.43 0 0  0.44 0 0  0.45 0 0  0.46 0 0  0.47 0 0  0.48 0 0  0.49 0 0  0.5 0 0  0.51 0 0  0.52 0 0  0.53 0 0  0.54 0 0  0.55 0 0  0.5600000000000001 0 0  0.57 0 0  0.58 0 0  0.59 0 0  0.6 0 0  0.61 0 0  0.62 0 0  0.63 0 0  0.64 0 0  0.65 0 0  0.66 0 0  0.67 0 0  0.68 0 0  0.6899999999999999 0 0  0.7 0 0  0.71 0 0  0.72 0 0  0.73 0 0  0.74 0 0  0.75 0 0  0.76 0 0  0.77 0 0  0.78 0 0  0.79 0 0  0.8 0 0  0.8100000000000001 0 0  0.82 0 0  0.83 0 0  0.84 0 0  0.85 0 0  0.86 0 0  0.87 0 0  0.88 0 0  0.89 0 0  0.9 0 0  0.91 0 0  0.92 0 0  0.93 0 0  0.9399999999999999 0 0  0.95 0 0  0.96 0 0  0.97 0 0  0.98 0 0  0.99 0 0  1 0 0  0 0.01 0  0.01 0.01 0  0.02 0.01 0  0.03 0.01 0  0.04 0.01 0  0.05 0.01 0  0.06 0.01 0  0.07000000000000001 0.01 0  0.08 0.01 0  0.09 0.01 0  0.1 0.01 0  0.11 0.01 0  0.12 0.01 0  0.13 0.01 0  0.14 0.01 0  0.15 0.01 0  0.16 0.01 0  0.17 0.01 0  0.18 0.01 0  0.19 0.01 0  0.2 0.01 0  0.21 0.01 0  0.22 0.01 0  0.23 0.01 0  0.24 0.01 0  0.25 0.01 0  0.26 0.01 0  0.27 0.01 0  0.28 0.01 0  0.29 0.01 0  0.3 0.01 0  0.31 0.01 0  0.32 0.01 0  0.33 0.01 0  0.34 0.01 0  0.35 0.01 0  0.36 0.01 0  0.37 0.01 0  0.38 0.01 0  0.39 0.01 0  0.4 0.01 0  0.41 0.01 0  0.42 0.01 0  0.43 0.01 0  0.44 0.01 0  0.45 0.01 0  0.46 0.01 0  0.47 0.01 0  0.48 0.01 0  0.49 0.01 0  0.5 0.01 0  0.51 0.01 0  0.52 0.01 0  0.53 0.01 0  0.54 0.01 0  0.55 0.01 0  0.5600000000000001 0.01 0  0.57 0.01 0  0.58 0.01 0  0.59 0.01 0  0.6 0.01 0  0.61 0.01 0  0.62 0.01 0  0.63 0.01 0  0.64 0.01 0  0.65 0.01 0  0.66 0.01 0  0.67 0.01 0  0.68 0.01 0  0.6899999999999999 0.01 0  0.7 0.01 0  0.71 0.01 0  0.72 0.01 0  0.73 0.01 0  0.74 0.01 0  0.75 0.01 0  0.76 0.01 0  0.77 0.01 0  0.78 0.01 0  0.79 0.01 0  0.8 0.01 0  0.8100000000000001 0.01 0  0.82 0.01 0  0.83 0.01 0  0.84 0.01 0  0.85 0.01 0  0.86 0.01 0  0.87 0.01 0  0.88 0.01 0  0.89 0.01 0  0.9 0.01 0  0.91 0.01 0  0.92 0.01 0  0.93 0.01 0  0.9399999999999999 0.01 0  0.95 0.01 0  0.96 0.01 0  0.97 0.01 0  0.98 0.01 0  0.99 0.01 0  1 0.01 0  0 0.02 0  0.01 0.02 0  0.02 0.02 0  0.03 0.02 0  0.04 0.02 0  0.05 0.02 0  0.06 0.02 0  0.07000000000000001 0.02 0  0.08 0.02 0  0.09 0.02 0  0.1 0.02 0  0.11 0.02 0  0.12 0.02 0  0.13 0.02 0  0.14 0.02 0  0.15 0.02 0  0.16 0.02 0  0.17 0.02 0  0.18 0.02 0  0.19 0.02 0  0.2 0.02 0  0.21 0.02 0  0.22 0.02 0  0.23 0.02 0  0.24 0.02 0  0.25 0.02 0  0.26 0.02 0  0.27 0.02 0  0.28 0.02 0  0.29 0.02 0  0.3 0.02 0  0.31 0.02 0  0.32 0.02 0  0.33 0.02 0  0.34 0.02 0  0.35 0.02 0  0.36 0.02 0  0.37 0.02 0  0.38 0.02 0  0.39 0.02 0  0.4 0.02 0  0.41 0.02 0  0.42 0.02 0  0.43 0.02 0  0.44 0.02 0  0.45 0.02 0  0.46 0.02 0  0.47 0.02 0  0.48 0.02 0  0.49 0.02 0  0.5 0.02 0  0.51 0.02 0  0.52 0.02 0  0.53 0.02 0  0.54 0.02 0  0.55 0.02 0  0.5600000000000001 0.02 0  0.57 0.02 0  0.58 0.02 0  0.59 0.02 0  0.6 0.02 0  0.61 0.02 0  0.62 0.02 0  0.63 0.02 0  0.64 0.02 0  0.65 0.02 0  0.66 0.02 0  0.67 0.02 0  0.68 0.02 0  0.6899999999999999 0.02 0  0.7 0.02 0  0.71 0.02 0  0.72 0.02 0  0.73 0.02 0  0.74 0.02 0  0.75 0.02 0  0.76 0.02 0  0.77 0.02 0  0.78 0.02 0  0.79 0.02 0  0.8 0.02 0  0.8100000000000001 0.02 0  0.82 0.02 0  0.83 0.02 0  0.84 0.02 0  0.85 0.02 0  0.86 0.02 0  0.87 0.02 0  0.88 0.02 0  0.89 0.02 0  0.9 0.02 0  0.91 0.02 0  0.92 0.02 0  0.93 0.02 0  0.9399999999999999 0.02 0  0.95 0.02 0  0.96 0.02 0  0.97 0.02 0  0.98 0.02 0  0.99 0.02 0  1 0.02 0  0 0.03 0  0.01 0.03 0  0.02 0.03 0  0.03 0.03 0  0.04 0.03 0  0.05 0.03 0  0.06 0.03 0  0.07000000000000001 0.03 0  0.08 0.03 0  0.09 0.03 0  0.1 0.03 0  0.11 0.03 0  0.12 0.03 0  0.13 0.03 0  0.14 0.03 0  0.15 0.03 0  0.16 0.03 0  0.17 0.03 0  0.18 0.03 0  0.19 0.03 0  0.2 0.03 0  0.21 0.03 0  0.22 0.03 0  0.23 0.03 0  0.24 0.03 0  0.25 0.03 0  0.26 0.03 0  0.27 0.03 0  0.28 0.03 0  0.29 0.03 0  0.3 0.03 0  0.31 0.03 0  0.32 0.03 0  0.33 0.03 0  0.34 0.03 0  0.35 0.03 0  0.36 0.03 0  0.37 0.03 0  0.38 0.03 0  0.39 0.03 0  0.4 0.03 0  0.41 0.03 0  0.42 0.03 0  0.43 0.03 0  0.44 0.03 0  0.45 0.03 0  0.46 0.03 0  0.47 0.03 0  0.48 0.03 0  0.49 0.03 0  0.5 0.03 0  0.51 0.03 0  0.52 0.03 0  0.53 0.03 0  0.54 0.03 0  0.55 0.03 0  0.5600000000000001 0.03 0  0.57 0.03 0  0.58 0.03 0  0.59 0.03 0  0.6 0.03 0  0.61 0.03 0  0.62 0.03 0  0.63 0.03 0  0.64 0.03 0  0.65 0.03 0  0.66 0.03 0  0.67 0.03 0  0.68 0.03 0  0.6899999999999999 0.03 0  0.7 0.03 0  0.71 0.03 0  0.72 0.03 0  0.73 0.03 0  0.74 0.03 0  0.75 0.03 0  0.76 0.03 0  0.77 0.03 0  0.78 0.03 0  0.79 0.03 0  0.8 0.03 0  0.8100000000000001 0.03 0  0.82 0.03 0  0.83 0.03 0  0.84 0.03 0  0.85 0.03 0  0.86 0.03 0  0.87 0.03 0  0.88 0.03 0  0.89 0.03 0  0.9 0.03 0  0.91 0.03 0  0.92 0.03 0  0.93 0.03 0  0.9399999999999999 0.03 0  0.95 0.03 0  0.96 0.03 0  0.97 0.03 0  0.98 0.03 0  0.99 0.03 0  1 0.03 0  0 0.04 0  0.01 0.04 0  0.02 0.04 0  0.03 0.04 0  0.04 0.04 0  0.05 0.04 0  0.06 0.04 0  0.07000000000000001 0.04 0  0.08 0.04 0  0.09 0.04 0  0.1 0.04 0  0.11 0.04 0  0.12 0.04 0  0.13 0.04 0  0.14 0.04 0  0.15 0.04 0  0.16 0.04 0  0.17 0.04 0  0.18 0.04 0  0.19 0.04 0  0.2 0.04 0  0.21 0.04 0  0.22 0.04 0  0.23 0.04 0  0.24 0.04 0  0.25 0.04 0  0.26 0.04 0  0.27 0.04 0  0.28 0.04 0  0.29 0.04 0  0.3 0.04 0  0.31 0.04 0  0.32 0.04 0  0.33 0.04 0  0.34 0.04 0  0.35 0.04 0  0.36 0.04 0  0.37 0.04 0  0.38 0.04 0  0.39 0.04 0  0.4 0.04 0  0.41 0.04 0  0.42 0.04 0  0.43 0.04 0  0.44 0.04 0  0.45 0.04 0  0.46 0.04 0  0.47 0.04 0  0.48 0.04 0  0.49 0.04 0  0.5 0.04 0  0.51 0.04 0  0.52 0.04 0  0.53 0.04 0  0.54 0.04 0  0.55 0.04 0  0.5600000000000001 0.04 0  0.57 0.04 0  0.58 0.04 0  0.59 0.04 0  0.6 0.04 0  0.61 0.04 0  0.62 0.04 0  0.63 0.04 0  0.64 0.04 0  0.65 0.04 0  0.66 0.04 0  0.67 0.04 0  0.68 0.04 0  0.6899999999999999 0.04 0  0.7 0.04 0  0.71 0.04 0  0.72 0.04 0  0.73 0.04 0  0.74 0.04 0  0.75 0.04 0  0.76 0.04 0  0.77 0.04 0  0.78 0.04 0  0.79 0.04 0  0.8 0.04 0  0.8100000000000001 0.04 0  0.82 0.04 0  0.83 0.04 0  0.84 0.04 0  0.85 0.04 0  0.86 0.04 0  0.87 0.04 0  0.88 0.04 0  0.89 0.04 0  0.9 0.04 0  0.91 0.04 0  0.92 0.04 0  0.93 0.04 0  0.9399999999999999 0.04 0  0.95 0.04 0  0.96 0.04 0  0.97 0.04 0  0.98 0.04 0  0.99 0.04 0  1 0.04 0  0 0.05 0  0.01 0.05 0  0.02 0.05 0  0.03 0.05 0  0.04 0.05 0  0.05 0.05 0  0.06 0.05 0  0.07000000000000001 0.05 0  0.08 0.05 0  0.09 0.05 0  0.1 0.05 0  0.11 0.05 0  0.12 0.05 0  0.13 0.05 0  0.14 0.05 0  0.15 0.05 0  0.16 0.05 0  0.17 0.05 0  0.18 0.05 0  0.19 0.05 0  0.2 0.05 0  0.21 0.05 0  0.22 0.05 0  0.23 0.05 0  0.24 0.05 0  0.25 0.05 0  0.26 0.05 0  0.27 0.05 0  0.28 0.05 0  0.29 0.05 0  0.3 0.05 0  0.31 0.05 0  0.32 0.05 0  0.33 0.05 0  0.34 0.05 0  0.35 0.05 0  0.36 0.05 0  0.37 0.05 0  0.38 0.05 0  0.39 0.05 0  0.4 0.05 0  0.41 0.05 0  0.42 0.05 0  0.43 0.05 0  0.44 0.05 0  0.45 0.05 0  0.46 0.05 0  0.47 0.05 0  0.48 0.05 0  0.49 0.05 0  0.5 0.05 0  0.51 0.05 0  0.52 0.05 0  0.53 0.05 0  0.54 0.05 0  0.55 0.05 0  0.5600000000000001 0.05 0  0.57 0.05 0  0.58 0.05 0  0.59 0.05 0  0.6 0.05 0  0.61 0.05 0  0.62 0.05 0  0.63 0.05 0  0.64 0.05 0  0.65 0.05 0  0.66 0.05 0  0.67 0.05 0  0.68 0.05 0  0.6899999999999999 0.05 0  0.7 0.05 0  0.71 0.05 0  0.72 0.05 0  0.73 0.05 0  0.74 0.05 0  0.75 0.05 0  0.76 0.05 0  0.77 0.05 0  0.78 0.05 0  0.79 0.05 0  0.8 0.05 0  0.8100000000000001 0.05 0  0.82 0.05 0  0.83 0.05 0  0.84 0.05 0  0.85 0.05 0  0.86 0.05 0  0.87 0.05 0  0.88 0.05 0  0.89 0.05 0  0.9 0.05 0  0.91 0.05 0  0.92 0.05 0  0.93 0.05 0  0.9399999999999999 0.05 0  0.95 0.05 0  0.96 0.05 0  0.97 0.05 0  0.98 0.05 0  0.99 0.05 0  1 0.05 0  0 0.06 0  0.01 0.06 0  0.02 0.06 0  0.03 0.06 0  0.04 0.06 0  0.05 0.06 0  0.06 0.06 0  0.07000000000000001 0.06 0  0.08 0.06 0  0.09 0.06 0  0.1 0.06 0  0.11 0.06 0  0.12 0.06 0  0.13 0.06 0  0.14 0.06 0  0.15 0.06 0  0.16 0.06 0  0.17 0.06 0  0.18 0.06 0  0.19 0.06 0  0.2 0.06 0  0.21 0.06 0  0.22 0.06 0  0.23 0.06 0  0.24 0.06 0  0.25 0.06 0  0.26 0.06 0  0.27 0.06 0  0.28 0.06 0  0.29 0.06 0  0.3 0.06 0  0.31 0.06 0  0.32 0.06 0  0.33 0.06 0  0.34 0.06 0  0.35 0.06 0  0.36 0.06 0  0.37 0.06 0  0.38 0.06 0  0.39 0.06 0  0.4 0.06 0  0.41 0.06 0  0.42 0.06 0  0.43 0.06 0  0.44 0.06 0  0.45 0.06 0  0.46 0.06 0  0.47 0.06 0  0.48 0.06 0  0.49 0.06 0  0.5 0.06 0  0.51 0.06 0  0.52 0.06 0  0.53 0.06 0  0.54 0.06 0  0.55 0.06 0  0.5600000000000001 0.06 0  0.57 0.06 0  0.58 0.06 0  0.59 0.06 0  0.6 0.06 0  0.61 0.06 0  0.62 0.06 0  0.63 0.06 0  0.64 0.06 0  0.65 0.06 0  0.66 0.06 0  0.67 0.06 0  0.68 0.06 0  0.6899999999999999 0.06 0  0.7 0.06 0  0.71 0.06 0  0.72 0.06 0  0.73 0.06 0  0.74 0.06 0  0.75 0.06 0  0.76 0.06 0  0.77 0.06 0  0.78 0.06 0  0.79 0.06 0  0.8 0.06 0  0.8100000000000001 0.06 0  0.82 0.06 0  0.83 0.06 0  0.84 0.06 0  0.85 0.06 0  0.86 0.06 0  0.87 0.06 0  0.88 0.06 0  0.89 0.06 0  0.9 0.06 0  0.91 0.06 0  0.92 0.06 0  0.93 0.06 0  0.9399999999999999 0.06 0  0.95 0.06 0  0.96 0.06 0  0.97 0.06 0  0.98 0.06 0  0.99 0.06 0  1 0.06 0  0 0.07000000000000001 0  0.01 0.07000000000000001 0  0.02 0.07000000000000001 0  0.03 0.07000000000000001 0  0.04 0.07000000000000001 0  0.05 0.07000000000000001 0  0.06 0.07000000000000001 0  0.07000000000000001 0.07000000000000001 0  0.08 0.07000000000000001 0  0.09 0.07000000000000001 0  0.1 0.07000000000000001 0  0.11 0.07000000000000001 0  0.12 0.07000000000000001 0  0.13 0.07000000000000001 0  0.14 0.07000000000000001 0  0.15 0.07000000000000001 0  0.16 0.07000000000000001 0  0.17 0.0700
[...]
<PointData  Scalars="Indicator Function"> 
<DataArray  type="Float64"  Name="Indicator Function"  format="ascii">-1.0712891759817002e-18  3.1661221854959760e-17  1.1530767406135459e-16  2.9288607939766568e-18  8.7372794748270102e-17  -1.3031006429698985e-18  -1.7730007435996092e-18  1.1118812895996995e-16  8.7516435474641978e-16  -1.2960512920575837e-18  4.3095855216581483e-16  6.2700852819652520e-16  -5.6167806891540080e-19  -5.5769397104360820e-18  4.6301700855878132e-16  -3.6856593277015780e-18  -1.0737599354524378e-17  9.0434735646607736e-16  -3.9001992171136641e-18  -4.6263789617045738e-18  2.5103480966756406e-15  -4.9649473103339256e-18  -4.7799591557407448e-18  1.6791954001381380e-15  -3.4866036263066159e-19  -3.7668847857333264e-18  -1.9605260475692171e-18  -7.9278460698768158e-19  9.1613107823309550e-16  -2.6741551333547324e-18  -3.4015317926135676e-18  -2.6961027632430953e-18  -2.7390548949717466e-18  -6.1617368845109112e-18  -1.3555299101338557e-18  -2.7430131562023761e-18  -6.7658468624447617e-18  -1.2488163245249980e-17  -1.2785319902348698e-17  -1.7018425875081800e-17  1.4538369871599184e-15  -1.8696124099413739e-18  -4.8177789349905546e-18  -3.8446220932559026e-18  -2.1362080656225224e-18  -1.9631654905770072e-18  2.6519469936080121e-16  -2.1964866330536740e-18  -2.2735196365937642e-19  -1.5173333637894020e-18  -1.0140768172078804e-18  -5.2813956615054421e-20  -6.3919429253567232e-19  -1.6612457946031721e-18  -4.8148248609680896e-35  -1.1658668203302692e-18  3.8254450435550348e-16  -4.8333309164689965e-19  -5.9431023868589448e-19  -1.0031185213524478e-18  2.8888949165808538e-34  -9.7326361913550258e-19  -4.9500425551591181e-19  0.0000000000000000e+00  -4.5717366609770112e-21  -4.4173155644911256e-19  -1.7640894027662146e-19  -2.8094658401160208e-20  6.1889564707918997e-17  -5.5764966611110028e-19  4.8148248609680896e-35  -3.5599097167996935e-20  -7.0791493698886612e-20  -8.4783287704527141e-19  -1.7131759087995092e-18  -6.9216808688751187e-19  -2.2049171176809204e-19  -6.4151380579233779e-19  -4.5771405937998044e-19  -1.6851797184546150e-19  -1.6059264343718969e-19  2.5658950111839353e-16  -1.8870427587859545e-19  -8.6835279344927353e-19  -6.0681121018245854e-19  -3.0067018109643015e-19  -9.6296497219361793e-35  -1.5794705825151950e-19  -2.8510377177027233e-19  -2.0971048540128945e-20  -3.5681137472568285e-20  6.0185310762101120e-36  -1.0844918445226986e-19  9.9104865540562853e-17  -5.0138193464798580e-20  -1.7663513014635052e-20  -8.9736161411194911e-21  -1.4077023428253999e-20  -1.5495981759669558e-20  0.0000000000000000e+00  1.2037062152420224e-35  1.5407439555097887e-33  1.9298630135028961e-02  1.0320044650221862e-01  3.0626279270640301e-02  3.6675795227937465e-02  3.8114838711729819e-02  2.3474574280421951e-02  3.1939541952811235e-02  1.0783092335582488e-01  1.0781610043161505e-01  2.3347584463854185e-02  1.6027061859392974e-01  2.0236585134956568e-02  1.2101286633823628e-01  3.9958781238032391e-02  1.9048828473363771e-01  1.6098983443279719e-01  1.2955417936972405e-01  1.4051948592691030e-01  1.6668286854405753e-01  3.0834953439019753e-02  1.7888107885387206e-01  8.5663874598006007e-02  4.3276151791557575e-02  1.2561813433778483e-02  1.3571632733900954e-01  7.0635395018262978e-02  2.8563075684917619e-02  1.4907291045279117e-02  2.1642625693890395e-02  3.7351983401483886e-02  9.7137339199153377e-02  5.0903896119518691e-02  2.3890478357608998e-02  9.9054744569349221e-02  9.8827464225163100e-02  2.4373428938063869e-03  1.2066399018730510e-01  2.7925881967454674e-01  2.8176804651148807e-01  1.8853812461122771e-01  8.1268275837788645e-02  3.3679943010956878e-02  1.0439153877038566e-01  7.6965006786587492e-02  7.0730490974636254e-02  4.8998184583461953e-02  2.1661194253629074e-02  3.9568385528579206e-02  1.4326099461297991e-02  2.0170798156386095e-02  1.8267983904409875e-02  2.3029401421448003e-02  3.6991363244850965e-02  1.1430662143757098e-02  2.6826761355069156e-02  3.5132267373242966e-02  1.7413909851494453e-02  2.1412282955906112e-02  2.5204229246296995e-02  5.4684621727368078e-03  7.2366350295830720e-03  1.3914441175096102e-02  1.9599833352050276e-03  1.6471417218249639e-04  3.2034527810622338e-03  6.3558019015569319e-03  1.0122167448523857e-03  1.9517220121245261e-03  7.6065983422747832e-03  6.2424241428675397e-03  2.9715512078425490e-03  2.5505323571464529e-03  5.9925739554385999e-03  1.9866072108239295e-02  2.1731284561419494e-02  7.7381569113125206e-03  3.9720255638282477e-03  9.5704725649634805e-03  7.2384958272850748e-03  5.7859597531375127e-03  4.7823287788920164e-04  1.8584192542343099e-03  7.4717972085241542e-03  1.1906954663755034e-02  9.1707286232782653e-03  5.6358839429251142e-03  2.1311243374581047e-03  4.5715372624108809e-03  2.8502043300206452e-03  2.1949002932956333e-04  5.3302921503767427e-04  8.4910157418962814e-04  1.6993793453199248e-03  1.0344894393390907e-03  8.3623502164042400e-04  3.2330859447449303e-04  1.3936413046332924e-04  3.5905939579885404e-04  1.9697488770305856e-04  1.3394694113611324e-21  -2.9547910180795938e-19  1.6830674147507808e-02  2.8826200375339776e-02  4.7082562209304499e-02  3.0787674004703947e-02  8.4110540269177109e-02  2.7467206409837446e-02  1.0644034359810615e-01  2.1581191997347860e-02  9.2651846431728024e-02  1.6492151987259868e-01  5.6161292024041597e-02  9.7717386785187450e-03  2.2611750890143073e-01  1.9945439785190930e-01  2.9758015241377128e-01  8.7997334199910168e-02  2.2115776227591752e-01  2.1629613023173417e-02  1.0285402064300951e-01  5.0416849436242570e-02  2.2968067969373193e-01  4.7775791124328740e-02  8.3562281790330623e-02  6.4232229182878409e-02  1.7334429674882631e-02  1.5906824260221473e-02  4.6898695146848850e-02  9.1460586264164798e-03  2.2604260488967846e-02  1.6178671465675395e-01  8.3365149846944708e-02  1.1947153285608793e-01  7.8753713120680954e-02  1.5999424626999892e-01  6.2344280623498838e-02  7.5310020594971452e-02  1.2182052205757728e-01  2.2504911830294519e-01  2.8506555671478762e-01  3.5664354911659185e-01  1.4548208282367522e-01  5.4592584048450486e-02  6.2698568033390481e-02  8.4611311244541756e-02  2.1922125810387175e-02  1.5638673153473909e-02  8.7916254564067414e-03  4.8955149046827705e-02  4.6248061055074172e-05  5.2860237870730631e-02  3.5704981849570792e-02  3.3500903413290011e-03  2.2293545105147358e-02  6.5571790872246224e-02  3.4495345772785637e-03  6.8836476044206556e-03  1.1323706966774746e-02  3.1835777843549364e-03  8.7933203111689971e-03  3.6324299607768867e-02  1.0075251144966534e-02  2.2677577773679257e-02  6.9750042055274578e-03  2.1890781018371209e-03  1.5990934190187997e-03  9.4116143778539101e-03  1.8258565472116458e-03  1.6411641621511630e-03  7.8767333139146533e-03  9.1256193709055456e-03  3.4712539702067748e-03  3.8594320198952719e-03  6.9751585641631374e-04  1.6895475128963462e-02  2.8168719508514961e-02  1.5308439225918345e-02  2.2713430070861855e-04  9.2557599486705056e-03  9.5462316039109096e-03  7.0592718376563260e-03  4.2917639406627938e-03  5.0174646424835821e-03  4.6054283725662157e-03  1.3300776994290692e-02  1.1557127864479193e-02  8.6914949015097619e-03  2.6400397753014136e-03  4.5171892776918144e-03  4.7780670959176362e-03  6.6061516982644211e-04  1.0811243895124188e-03  1.8432828906126235e-04  2.4637337858366458e-03  1.0455884036186807e-03  1.5350237792669268e-03  5.3055058847110439e-04  8.2255417255214014e-05  4.1536070858280233e-04  5.1287903546685942e-04  1.2811727565514147e-19  3.0814879110195774e-33  7.9589700656418003e-02  6.2965400076250372e-02  1.9110433879711453e-01  5.9385261923123593e-02  1.5623989482518791e-03  8.6528163448955128e-02  1.1849663140780382e-01  8.4047023469140225e-02  1.6842463639578489e-01  3.1931428252793048e-01  2.0076417874347161e-01  2.3574950811512779e-01  1.7811298560070507e-01  1.1921030783258728e-01  9.5538046587635539e-02  3.5628692145143837e-01  1.6702418681196798e-01  1.8027606305580038e-01  1.3169159875355385e-01  3.4390894015440959e-01  2.5687502986851785e-01  3.8326984626813937e-01  2.6368259129764327e-01  6.1084597771419123e-04  3.8101950128498881e-02  2.1424073817254238e-01  2.5338489510602086e-01  1.2957062188560395e-01  3.8056649595261824e-02  1.9503588317361875e-02  9.5639989872695050e-02  1.6039260188796470e-01  1.3447275822210814e-01  5.2659505955300140e-02  1.6684521242171488e-01  1.2068448010551763e-01  2.0951137219868125e-02  1.7624154917989049e-01  3.7379600112352135e-01  2.6828972489411329e-01  1.9857243120844506e-01  1.0906456670502938e-01  6.9434195129772794e-02  1.3934237989916243e-01  6.6079077328437055e-02  1.5049086439594908e-01  1.6043668868464386e-01  9.5533168973575791e-02  9.0643327931922438e-02  1.3022302255962546e-02  4.6220590981465769e-02  4.9624588175686518e-02  1.6249169979005770e-02  6.1586937532756979e-02  3.0662821394162147e-03  4.2707557884528728e-02  7.2438853494313768e-02  5.6880180150726038e-02  5.3074024620425445e-02  5.0650317200482346e-02  2.6242105195469290e-03  5.2619807051716315e-03  2.3668805636059442e-02  4.9474796963369103e-03  1.0359479231997312e-03  2.7698709322318466e-03  1.0102722834718735e-02  5.0805404007170920e-03  3.9236453819058506e-03  1.1453105817622255e-02  5.9219179785092923e-03  1.9888862129794505e-03  4.6153884127838720e-03  8.8018806122661889e-03  2.6855329312409661e-02  2.4867501352470463e-02  3.4056230163247692e-03  5.4560973673391817e-03  1.0754553950447577e-02  6.4214526684565447e-03  7.0874162144481277e-03  1.8935087181250732e-03  3.3672887691604939e-03  1.2509755106108694e-02  1.3918980776530457e-02  8.1946954949839394e-03  6.3528025953910154e-03  1.1962664042358354e-03  6.9968849769258606e-03  2.3651404946265389e-03  1.5979657020250958e-03  3.4369034663786138e-04  8.6834731284369116e-04  2.9441466055427829e-03  7.9696089878079229e-04  1.3185500036724774e-03  4.1696495268633594e-04  1.0900985269118171e-04  3.5047600430898287e-04  -1.6851887013388314e-34  -7.2703855400618153e-33  7.6029958942231565e-02  6.6464902134851025e-02  8.8568245927714215e-02  4.5508875849911208e-02  5.9151541950290883e-02  1.0351539767368628e-01  8.3640341594525311e-02  1.1956970638561827e-01  8.0919336313689787e-03  2.7628068045320111e-02  1.0958749805330911e-01  1.1793993337030280e-01  1.4049311346920448e-01  2.5464706611170201e-01  4.3434393473286487e-01  2.0541133645309217e-01  1.2540380998812183e-02  2.5112101447135177e-01  2.6346342558511086e-02  2.2658587245367218e-01  2.4650396689727810e-01  1.5303841684552810e-01  2.1019510998090480e-02  1.7031711462414559e-01  1.0833529919862139e-01  6.7664686338620245e-02  1.3564277576018105e-01  2.7717303369157131e-02  1.2130612160751995e-04  6.7060192269380939e-03  1.8563009443459813e-01  1.6167682719826740e-01  1.7452079262102413e-01  2.3510129215192010e-01  1.2029094428105506e-01  1.6033920311426895e-02  1.0314207546813672e-01  1.3868706343156054e-01  2.0853797285921774e-01  3.3384342074153744e-01  3.7952348126789009e-01  6.8320455885474710e-02  7.4760593565503297e-02  2.3778977566100604e-02  1.0261440316060515e-01  3.0653875777868701e-02  8.8143897287374623e-02  6.0704168470173882e-02  2.2844396486140513e-02  5.0924598974121200e-03  5.3417664402843658e-02  4.3591512199034711e-02  5.2465171338702396e-03  3.7089460414131192e-02  1.0709462436271168e-01  3.1977217791310596e-02  8.7924968421609594e-03  3.4370108684148075e-02  3.2387138888252287e-02  3.5937659042206596e-02  6.3408614939940447e-02  3.0664320282058375e-02  3.1457722154760399e-02  7.2672760011773556e-03  7.8474590043946767e-03  4.7443805194510363e-03  1.1721665950046121e-02  1.7508470789383212e-03  4.8524445069885952e-03  1.0999800721675099e-02  1.0567214682635901e-02  1.5070726681932400e-03  4.2139503312841626e-03  1.1838735833365689e-03  1.9592387386432788e-02  3.1851351332085873e-02  1.2834776742929845e-02  3.8755294363240693e-03  9.5872176615641493e-03  8.6806805071920710e-03  5.5766816239064456e-03  5.0278308479360292e-03  8.1113253270144424e-03  5.5692689472393317e-03  1.6356515760212773e-02  1.0527390007953451e-02  7.0580179811826809e-03  1.7605565870587225e-03  4.5611503916895427e-03  5.9415687338724875e-03  5.6290718625832373e-04  1.9680927453617852e-03  3.9019368062995902e-04  3.0060055588941978e-03  1.3161930292491443e-03  1.7708611784411135e-03  7.3094828250065398e-04  3.3862478798080700e-04  1.3619930072781029e-04  6.2973773514905700e-21  -7.1470178329768435e-18  2.2247596478149159e-01  1.6237210573521507e-01  2.3132118309565210e-02  2.2756728662801148e-01  1.8510578105952127e-01  2.5448820082037631e-02  2.9988275659497330e-02  1.3883671451733207e-01  1.8361942462316100e-01  1.4866718578791815e-01  3.7241338119473288e-01  3.8935789374760477e-01  1.1061494733940094e-01  2.5451888497432856e-01  9.8654362954100197e-02  2.7704436688859437e-02  4.9916240937924411e-01  8.1068410059309079e-02  1.7600316142348330e-01  3.6278059491547957e-02  2.6742757488289293e-01  3.2340530931858086e-01  5.0940469293204627e-01  3.6394788444356924e-01  2.7747427327782952e-02  1.0853407576374430e-01  1.3519535069467245e-01  3.0418493495904114e-01  2.1693809531656819e-01  3.2087707343693705e-02  2.1119126093014837e-02  2.0617080299076926e-01  2.3499367164975743e-01  8.1891098993158870e-02  2.2846830558923198e-02  2.3910612929469002e-01  8.9377938871813306e-02  2.9810737640214295e-02  2.2224596443050235e-01  3.5939169521525727e-01  2.2918042432640306e-01  2.5235940580180838e-01  9.2008382662269919e-02  1.3167035551272385e-01  1.2033436289430550e-01  4.0135090098854409e-02  1.5750895231827686e-01  1.8416151406089235e-01  1.2230016501142896e-01  1.1887889230055788e-01  3.7869188777526548e-02  6.7731806303370098e-02  7.9430583559200033e-02  1.4831928706460474e-03  5.1822007848898628e-02  1.6412950755102473e-02  2.7814603711313671e-02  8.0654427651071267e-02  6.6712285348402872e-02  5.6088247264665901e-02  4.8906606274205310e-02  6.6077869923495975e-03  8.0779482231867396e-03  3.3788642474075120e-02  9.7332513052284016e-03  7.9327769320563667e-04  3.7982441244967371e-04  1.3475710631059908e-02  7.3987673784038392e-03  3.3685042493238632e-03  1.4545639763521129e-02  5.8802067831468354e-03  3.1164811004723102e-04  6.2593849856958234e-03  8.2186031963439581e-03  2.9779133032243128e-02  2.6635306658590627e-02  6.0530944458025569e-04  7.2096466060570042e-03  1.0770525087759730e-02  5.2554825232407048e-03  6.9738766110492923e-03  1.8682921414369300e-03  5.9669741628264892e-03  1.5142238251548756e-02  1.5182785184242537e-02  6.5358876571536238e-03  5.8055062998645709e-03  3.8721358713235396e-05  8.0918819707744959e-03  2.3186633010088002e-03  2.8321999074844471e-03  4.9756075922918351e-04  5.4123869156236866e-04  3.8777826424167272e-03  5.7880970997733756e-04  1.8421992150991740e-03  6.5289065834600959e-04  2.3167138267778879e-04  4.8148248609680896e-35  -1.2129009264549402e-18  1.8936060776809863e-01  8.2068054808277710e-02  6.7316541562070661e-02  1.9666911676687315e-01  7.4440275474201081e-02  5.5255017124915297e-02  5.7344934108138304e-02  1.5816278916985591e-01  4.9600372057044401e-02  3.3304287747298614e-02  1.6699073703499254e-02  5.4967744656728018e-02  5.3181427616969250e-02  2.3841715159400492e-01  6.6020183813133404e-02  4.4104481483550767e-01  3.4545727404167538e-02  8.3424997433824338e-02  2.6117864467159907e-01  9.4098134055608407e-02  1.7559137859837626e-01  4.0580139978599011e-01  2.3698601558997535e-02  9.1636568067373858e-02  3.0859386638143227e-01  1.4774270569243569e-01  2.1406439447882422e-03  1.9794386710032566e-01  1.8710498887803487e-01  4.9199644240914352e-02  1.9290165627315465e-02  1.2343321740692942e-01  1.3764958105417194e-01  1.7912609730184637e-01  3.1857342330061167e-01  2.9243652063635103e-02  3.8540751055950194e-02  1.2319505398474830e-01  1.3306134153272767e-01  2.4025274601962548e-01  3.8991977536255978e-01  3.2704027903014471e-01  3.8579058966773869e-02  4.8426185995819229e-02  3.3478567503856714e-02  1.2796534687071090e-01  1.0719858301245564e-02  1.4344163341424968e-01  1.4753759996156438e-01  3.3780772776804087e-02  3.8768134361503996e-02  2.7894741469541007e-02  2.4382821979485027e-02  1.9045701387125521e-02  2.7518421414614799e-02  1.2001216033110247e-01  4.5320096219409522e-02  1.6014177708826398e-02  5.6924137199598039e-02  5.9936340057740796e-02  5.7465097848325347e-02  7.9335057238956175e-02  3.8458448003820929e-02  3.0111224645695409e-02  1.2417227542442693e-02  1.3565294693865736e-02  5.6532650077971832e-03  1.1409216510291361e-02  3.7347150432496131e-03  7.4995526182851120e-03  1.2748340663744971e-02  1.2785461547759683e-02  5.6549876483176118e-04  3.5582203024780326e-03  3.0111233198852334e-03  2.0871620791502885e-02  3.4509365719055531e-02  1.2040947183817910e-02  8.3081098572058958e-03  9.9351891202674267e-03  8.2263266010725953e-03  4.3900783502003301e-03  5.6686793658900590e-03  8.9832118646118505e-03  5.0452727575367754e-03  1.9539423262949610e-02  1.0378641929728757e-02  5.3660666860230934e-03  1.7617434818666458e-03  4.0966488133447141e-03  7.2363495860911214e-03  1.3260016387124653e-03  2.9775037796078525e-03  6.2833847386376375e-04  3.0203889437321143e-03  2.1105276305910469e-03  1.6578191575224439e-03  1.1545941252673845e-03  5.8567100296543655e-04  1.5046327690525280e-35  4.0444528832131953e-33  8.2005145665894494e-02  7.7960438575113075e-02  3.9621117523814586e-02  1.7363202093815663e-01  1.1989344523427663e-01  2.3122064238714349e-01  6.8190426147665397e-03  5.6492643889809464e-02  7.5655946738500984e-02  2.0067842642658767e-01  1.1573374235994255e-01  2.8703273157679349e-01  3.3301015269833018e-01  2.8165080059366406e-02  1.1318910480570561e-01  1.5273089526657446e-01  1.7251410330707229e-01  4.4009521964744758e-01  1.5230100495683142e-02  1.4095450091123155e-01  3.6853504036333758e-02  1.2025000138493736e-01  1.5376086901928138e-01  4.5323465458961382e-01  3.0799392912010010e-01  3.6111798458110626e-02  1.2919074599934219e-01  6.5316822627515522e-02  1.8677166092445732e-01  1.8060075311000304e-01  9.4345098857391337e-03  4.6095780095511123e-02  2.2726094747478118e-01  3.0940388761056464e-01  1.3106649131037098e-02  1.2117343232318041e-01  2.2277595299442227e-01  5.1522557890421178e-02  3.7787546019486043e-02  2.4137554221715965e-01  3.2660099916943414e-01  2.6715893385962258e-01  2.7811170338388119e-01  2.9401055969741349e-02  1.5324116946043506e-01  8.6148617096202390e-02  4.1681809497571033e-02  1.4034837924641716e-01  1.2658631448202273e-01  5.8894524876405181e-02  9.0865733852166800e-02  2.5634718267338492e-02  5.9812999265050702e-02  8.0662975239842505e-02  1.4062810712041362e-03  4.3371851064908512e-02  4.5516477817436042e-02  2.1523189841268203e-03  6.6495669099884747e-02  4.7171681720492457e-02  3.1634430214508631e-02  2.7850152450843466e-02  2.5102901263497950e-02  2.2264036933604531e-02  3.9609969312803063e-02  1.0029299476048454e-02  4.9255002651742673e-03  1.3480415264820768e-03  1.4881306913635263e-02  7.1359449929886140e-03  1.6849774052093997e-03  1.7182385246800071e-02  6.9034276329647702e-03  9.0827411297964684e-04  6.5633056137418570e-03  6.9439420397789248e-03  3.1973470508683335e-02  2.8426424680614130e-02  3.2337039530114823e-03  1.0844362657341223e-02  1.0808641710864500e-02  4.7759877842597316e-03  6.1496720461407571e-03  1.1328263352439311e-03  7.2660835163806713e-03  1.6450321469670796e-02  1.7692178934898752e-02  5.8051648110927544e-03  4.4765623356680844e-03  6.3164885515801263e-05  8.4749537488680391e-03  3.2465956205582052e-03  3.5860758487508862e-03  9.2682573342689663e-04  2.4899835057316696e-04  4.1751617939250630e-03  9.2861233724268798e-04  1.9914528351487075e-03  8.7232568048649199e-04  -8.0668696011557804e-20  0.0000000000000000e+00  3.2017566234079496e-02  1.8802500078335078e-02  6.4059217478282818e-02  1.3050841646582820e-01  5.2396126732392793e-02  2.1116256515496054e-01  2.3792703551927301e-02  2.1262435863192430e-03  1.2850093479250774e-01  7.0353209786575589e-03  7.2128862932695631e-02  4.2924942657363380e-02  9.0463839096280599e-02  2.2449606168475195e-01  1.3183757202312538e-01  3.5641783566893667e-02  2.666