<?xml version="1.0"?>
<VTKFile type="UnstructuredGrid"  version="0.1"  >
<UnstructuredGrid>
<Piece  NumberOfPoints="10201" NumberOfCells="20000">
<Points>
<DataArray  type="Float64"  NumberOfComponents="3"  format="ascii">0 0 0  0.01 0 0  0.02 0 0  0.03 0 0  0.04 0 0  0.05 0 0  0.06 0 0  0.07000000000000001 0 0  0.08 0 0  0.09 0 0  0.1 0 0  0.11 0 0  0.12 0 0  0.13 0 0  0.14 0 0  0.15 0 0  0.16 0 0  0.17 0 0  0.18 0 0  0.19 0 0  0.2 0 0  0.21 0 0  0.22 0 0  0.23 0 0  0.24 0 0  0.25 0 0  0.26 0 0  0.27 0 0  0.28 0 0  0.29 0 0  0.3 0 0  0.31 0 0  0.32 0 0  0.33 0 0  0.34 0 0  0.35 0 0  0.36 0 0  0.37 0 0  0.38 0 0  0.39 0 0  0.4 0 0  0.41 0 0  0.42 0 0  0.43 0 0  0.44 0 0  0.45 0 0  0.46 0 0  0.47 0 0  0.48 0 0  0.49 0 0  0.5 0 0  0.51 0 0  0.52 0 0  0.53 0 0  0.54 0 0  0.55 0 0  0.5600000000000001 0 0  0.57 0 0  0.58 0 0  0.59 0 0  0.6 0 0  0.61 0 0  0.62 0 0  0.63 0 0  0.64 0 0  0.65 0 0  0.66 0 0  0.67 0 0  0.68 0 0  0.6899999999999999 0 0  0.7 0 0  0.71 0 0  0.72 0 0  0.73 0 0  0.74 0 0  0.75 0 0  0.76 0 0  0.77 0 0  0.78 0 0  0.79 0 0  0.8 0 0  0.8100000000000001 0 0  0.82 0 0  0.83 0 0  0.84 0 0  0.85 0 0  0.86 0 0  0.87 0 0  0.88 0 0  0.89 0 0  0.9 0 0  0.91 0 0  0.92 0 0  0.93 0 0  0.9399999999999999 0 0  0.95 0 0  0.96 0 0  0.97 0 0  0.98 0 0  0.99 0 0  1 0 0  0 0.01 0  0.01 0.01 0  0.02 0.01 0  0.03 0.01 0  0.04 0.01 0  0.05 0.01 0  0.06 0.01 0  0.07000000000000001 0.01 0  0.08 0.01 0  0.09 0.01 0  0.1 0.01 0  0.11 0.01 0  0.12 0.01 0  0.13 0.01 0  0.14 0.01 0  0.15 0.01 0  0.16 0.01 0  0.17 0.01 0  0.18 0.01 0  0.19 0.01 0  0.2 0.01 0  0.21 0.01 0  0.22 0.01 0  0.23 0.01 0  0.24 0.01 0  0.25 0.01 0  0.26 0.01 0  0.27 0.01 0  0.28 0.01 0  0.29 0.01 0  0.3 0.01 0  0.31 0.01 0  0.32 0.01 0  0.33 0.01 0  0.34 0.01 0  0.35 0.01 0  0.36 0.01 0  0.37 0.01 0  0.38 0.01 0  0.39 0.01 0  0.4 0.01 0  0.41 0.01 0  0.42 0.01 0  0.43 0.01 0  0.44 0.01 0  0.45 0.01 0  0.46 0.01 0  0.47 0.01 0  0.48 0.01 0  0.49 0.01 0  0.5 0.01 0  0.51 0.01 0  0.52 0.01 0  0.53 0.01 0  0.54 0.01 0  0.55 0.01 0  0.5600000000000001 0.01 0  0.57 0.01 0  0.58 0.01 0  0.59 0.01 0  0.6 0.01 0  0.61 0.01 0  0.62 0.01 0  0.63 0.01 0  0.64 0.01 0  0.65 0.01 0  0.66 0.01 0  0.67 0.01 0  0.68 0.01 0  0.6899999999999999 0.01 0  0.7 0.01 0  0.71 0.01 0  0.72 0.01 0  0.73 0.01 0  0.74 0.01 0  0.75 0.01 0  0.76 0.01 0  0.77 0.01 0  0.78 0.01 0  0.79 0.01 0  0.8 0.01 0  0.8100000000000001 0.01 0  0.82 0.01 0  0.83 0.01 0  0.84 0.01 0  0.85 0.01 0  0.86 0.01 0  0.87 0.01 0  0.88 0.01 0  0.89 0.01 0  0.9 0.01 0  0.91 0.01 0  0.92 0.01 0  0.93 0.01 0  0.9399999999999999 0.01 0  0.95 0.01 0  0.96 0.01 0  0.97 0.01 0  0.98 0.01 0  0.99 0.01 0  1 0.01 0  0 0.02 0  0.01 0.02 0  0.02 0.02 0  0.03 0.02 0  0.04 0.02 0  0.05 0.02 0  0.06 0.02 0  0.07000000000000001 0.02 0  0.08 0.02 0  0.09 0.02 0  0.1 0.02 0  0.11 0.02 0  0.12 0.02 0  0.13 0.02 0  0.14 0.02 0  0.15 0.02 0  0.16 0.02 0  0.17 0.02 0  0.18 0.02 0  0.19 0.02 0  0.2 0.02 0  0.21 0.02 0  0.22 0.02 0  0.23 0.02 0  0.24 0.02 0  0.25 0.02 0  0.26 0.02 0  0.27 0.02 0  0.28 0.02 0  0.29 0.02 0  0.3 0.02 0  0.31 0.02 0  0.32 0.02 0  0.33 0.02 0  0.34 0.02 0  0.35 0.02 0  0.36 0.02 0  0.37 0.02 0  0.38 0.02 0  0.39 0.02 0  0.4 0.02 0  0.41 0.02 0  0.42 0.02 0  0.43 0.02 0  0.44 0.02 0  0.45 0.02 0  0.46 0.02 0  0.47 0.02 0  0.48 0.02 0  0.49 0.02 0  0.5 0.02 0  0.51 0.02 0  0.52 0.02 0  0.53 0.02 0  0.54 0.02 0  0.55 0.02 0  0.5600000000000001 0.02 0  0.57 0.02 0  0.58 0.02 0  0.59 0.02 0  0.6 0.02 0  0.61 0.02 0  0.62 0.02 0  0.63 0.02 0  0.64 0.02 0  0.65 0.02 0  0.66 0.02 0  0.67 0.02 0  0.68 0.02 0  0.6899999999999999 0.02 0  0.7 0.02 0  0.71 0.02 0  0.72 0.02 0  0.73 0.02 0  0.74 0.02 0  0.75 0.02 0  0.76 0.02 0  0.77 0.02 0  0.78 0.02 0  0.79 0.02 0  0.8 0.02 0  0.8100000000000001 0.02 0  0.82 0.02 0  0.83 0.02 0  0.84 0.02 0  0.85 0.02 0  0.86 0.02 0  0.87 0.02 0  0.88 0.02 0  0.89 0.02 0  0.9 0.02 0  0.91 0.02 0  0.92 0.02 0  0.93 0.02 0  0.9399999999999999 0.02 0  0.95 0.02 0  0.96 0.02 0  0.97 0.02 0  0.98 0.02 0  0.99 0.02 0  1 0.02 0  0 0.03 0  0.01 0.03 0  0.02 0.03 0  0.03 0.03 0  0.04 0.03 0  0.05 0.03 0  0.06 0.03 0  0.07000000000000001 0.03 0  0.08 0.03 0  0.09 0.03 0  0.1 0.03 0  0.11 0.03 0  0.12 0.03 0  0.13 0.03 0  0.14 0.03 0  0.15 0.03 0  0.16 0.03 0  0.17 0.03 0  0.18 0.03 0  0.19 0.03 0  0.2 0.03 0  0.21 0.03 0  0.22 0.03 0  0.23 0.03 0  0.24 0.03 0  0.25 0.03 0  0.26 0.03 0  0.27 0.03 0  0.28 0.03 0  0.29 0.03 0  0.3 0.03 0  0.31 0.03 0  0.32 0.03 0  0.33 0.03 0  0.34 0.03 0  0.35 0.03 0  0.36 0.03 0  0.37 0.03 0  0.38 0.03 0  0.39 0.03 0  0.4 0.03 0  0.41 0.03 0  0.42 0.03 0  0.43 0.03 0  0.44 0.03 0  0.45 0.03 0  0.46 0.03 0  0.47 0.03 0  0.48 0.03 0  0.49 0.03 0  0.5 0.03 0  0.51 0.03 0  0.52 0.03 0  0.53 0.03 0  0.54 0.03 0  0.55 0.03 0  0.5600000000000001 0.03 0  0.57 0.03 0  0.58 0.03 0  0.59 0.03 0  0.6 0.03 0  0.61 0.03 0  0.62 0.03 0  0.63 0.03 0  0.64 0.03 0  0.65 0.03 0  0.66 0.03 0  0.67 0.03 0  0.68 0.03 0  0.6899999999999999 0.03 0  0.7 0.03 0  0.71 0.03 0  0.72 0.03 0  0.73 0.03 0  0.74 0.03 0  0.75 0.03 0  0.76 0.03 0  0.77 0.03 0  0.78 0.03 0  0.79 0.03 0  0.8 0.03 0  0.8100000000000001 0.03 0  0.82 0.03 0  0.83 0.03 0  0.84 0.03 0  0.85 0.03 0  0.86 0.03 0  0.87 0.03 0  0.88 0.03 0  0.89 0.03 0  0.9 0.03 0  0.91 0.03 0  0.92 0.03 0  0.93 0.03 0  0.9399999999999999 0.03 0  0.95 0.03 0  0.96 0.03 0  0.97 0.03 0  0.98 0.03 0  0.99 0.03 0  1 0.03 0  0 0.04 0  0.01 0.04 0  0.02 0.04 0  0.03 0.04 0  0.04 0.04 0  0.05 0.04 0  0.06 0.04 0  0.07000000000000001 0.04 0  0.08 0.04 0  0.09 0.04 0  0.1 0.04 0  0.11 0.04 0  0.12 0.04 0  0.13 0.04 0  0.14 0.04 0  0.15 0.04 0  0.16 0.04 0  0.17 0.04 0  0.18 0.04 0  0.19 0.04 0  0.2 0.04 0  0.21 0.04 0  0.22 0.04 0  0.23 0.04 0  0.24 0.04 0  0.25 0.04 0  0.26 0.04 0  0.27 0.04 0  0.28 0.04 0  0.29 0.04 0  0.3 0.04 0  0.31 0.04 0  0.32 0.04 0  0.33 0.04 0  0.34 0.04 0  0.35 0.04 0  0.36 0.04 0  0.37 0.04 0  0.38 0.04 0  0.39 0.04 0  0.4 0.04 0  0.41 0.04 0  0.42 0.04 0  0.43 0.04 0  0.44 0.04 0  0.45 0.04 0  0.46 0.04 0  0.47 0.04 0  0.48 0.04 0  0.49 0.04 0  0.5 0.04 0  0.51 0.04 0  0.52 0.04 0  0.53 0.04 0  0.54 0.04 0  0.55 0.04 0  0.5600000000000001 0.04 0  0.57 0.04 0  0.58 0.04 0  0.59 0.04 0  0.6 0.04 0  0.61 0.04 0  0.62 0.04 0  0.63 0.04 0  0.64 0.04 0  0.65 0.04 0  0.66 0.04 0  0.67 0.04 0  0.68 0.04 0  0.6899999999999999 0.04 0  0.7 0.04 0  0.71 0.04 0  0.72 0.04 0  0.73 0.04 0  0.74 0.04 0  0.75 0.04 0  0.76 0.04 0  0.77 0.04 0  0.78 0.04 0  0.79 0.04 0  0.8 0.04 0  0.8100000000000001 0.04 0  0.82 0.04 0  0.83 0.04 0  0.84 0.04 0  0.85 0.04 0  0.86 0.04 0  0.87 0.04 0  0.88 0.04 0  0.89 0.04 0  0.9 0.04 0  0.91 0.04 0  0.92 0.04 0  0.93 0.04 0  0.9399999999999999 0.04 0  0.95 0.04 0  0.96 0.04 0  0.97 0.04 0  0.98 0.04 0  0.99 0.04 0  1 0.04 0  0 0.05 0  0.01 0.05 0  0.02 0.05 0  0.03 0.05 0  0.04 0.05 0  0.05 0.05 0  0.06 0.05 0  0.07000000000000001 0.05 0  0.08 0.05 0  0.09 0.05 0  0.1 0.05 0  0.11 0.05 0  0.12 0.05 0  0.13 0.05 0  0.14 0.05 0  0.15 0.05 0  0.16 0.05 0  0.17 0.05 0  0.18 0.05 0  0.19 0.05 0  0.2 0.05 0  0.21 0.05 0  0.22 0.05 0  0.23 0.05 0  0.24 0.05 0  0.25 0.05 0  0.26 0.05 0  0.27 0.05 0  0.28 0.05 0  0.29 0.05 0  0.3 0.05 0  0.31 0.05 0  0.32 0.05 0  0.33 0.05 0  0.34 0.05 0  0.35 0.05 0  0.36 0.05 0  0.37 0.05 0  0.38 0.05 0  0.39 0.05 0  0.4 0.05 0  0.41 0.05 0  0.42 0.05 0  0.43 0.05 0  0.44 0.05 0  0.45 0.05 0  0.46 0.05 0  0.47 0.05 0  0.48 0.05 0  0.49 0.05 0  0.5 0.05 0  0.51 0.05 0  0.52 0.05 0  0.53 0.05 0  0.54 0.05 0  0.55 0.05 0  0.5600000000000001 0.05 0  0.57 0.05 0  0.58 0.05 0  0.59 0.05 0  0.6 0.05 0  0.61 0.05 0  0.62 0.05 0  0.63 0.05 0  0.64 0.05 0  0.65 0.05 0  0.66 0.05 0  0.67 0.05 0  0.68 0.05 0  0.6899999999999999 0.05 0  0.7 0.05 0  0.71 0.05 0  0.72 0.05 0  0.73 0.05 0  0.74 0.05 0  0.75 0.05 0  0.76 0.05 0  0.77 0.05 0  0.78 0.05 0  0.79 0.05 0  0.8 0.05 0  0.8100000000000001 0.05 0  0.82 0.05 0  0.83 0.05 0  0.84 0.05 0  0.85 0.05 0  0.86 0.05 0  0.87 0.05 0  0.88 0.05 0  0.89 0.05 0  0.9 0.05 0  0.91 0.05 0  0.92 0.05 0  0.93 0.05 0  0.9399999999999999 0.05 0  0.95 0.05 0  0.96 0.05 0  0.97 0.05 0  0.98 0.05 0  0.99 0.05 0  1 0.05 0  0 0.06 0  0.01 0.06 0  0.02 0.06 0  0.03 0.06 0  0.04 0.06 0  0.05 0.06 0  0.06 0.06 0  0.07000000000000001 0.06 0  0.08 0.06 0  0.09 0.06 0  0.1 0.06 0  0.11 0.06 0  0.12 0.06 0  0.13 0.06 0  0.14 0.06 0  0.15 0.06 0  0.16 0.06 0  0.17 0.06 0  0.18 0.06 0  0.19 0.06 0  0.2 0.06 0  0.21 0.06 0  0.22 0.06 0  0.23 0.06 0  0.24 0.06 0  0.25 0.06 0  0.26 0.06 0  0.27 0.06 0  0.28 0.06 0  0.29 0.06 0  0.3 0.06 0  0.31 0.06 0  0.32 0.06 0  0.33 0.06 0  0.34 0.06 0  0.35 0.06 0  0.36 0.06 0  0.37 0.06 0  0.38 0.06 0  0.39 0.06 0  0.4 0.06 0  0.41 0.06 0  0.42 0.06 0  0.43 0.06 0  0.44 0.06 0  0.45 0.06 0  0.46 0.06 0  0.47 0.06 0  0.48 0.06 0  0.49 0.06 0  0.5 0.06 0  0.51 0.06 0  0.52 0.06 0  0.53 0.06 0  0.54 0.06 0  0.55 0.06 0  0.5600000000000001 0.06 0  0.57 0.06 0  0.58 0.06 0  0.59 0.06 0  0.6 0.06 0  0.61 0.06 0  0.62 0.06 0  0.63 0.06 0  0.64 0.06 0  0.65 0.06 0  0.66 0.06 0  0.67 0.06 0  0.68 0.06 0  0.6899999999999999 0.06 0  0.7 0.06 0  0.71 0.06 0  0.72 0.06 0  0.73 0.06 0  0.74 0.06 0  0.75 0.06 0  0.76 0.06 0  0.77 0.06 0  0.78 0.06 0  0.79 0.06 0  0.8 0.06 0  0.8100000000000001 0.06 0  0.82 0.06 0  0.83 0.06 0  0.84 0.06 0  0.85 0.06 0  0.86 0.06 0  0.87 0.06 0  0.88 0.06 0  0.89 0.06 0  0.9 0.06 0  0.91 0.06 0  0.92 0.06 0  0.93 0.06 0  0.9399999999999999 0.06 0  0.95 0.06 0  0.96 0.06 0  0.97 0.06 0  0.98 0.06 0  0.99 0.06 0  1 0.06 0  0 0.07000000000000001 0  0.01 0.07000000000000001 0  0.02 0.07000000000000001 0  0.03 0.07000000000000001 0  0.04 0.07000000000000001 0  0.05 0.07000000000000001 0  0.06 0.07000000000000001 0  0.07000000000000001 0.07000000000000001 0  0.08 0.07000000000000001 0  0.09 0.07000000000000001 0  0.1 0.07000000000000001 0  0.11 0.07000000000000001 0  0.12 0.07000000000000001 0  0.13 0.07000000000000001 0  0.14 0.07000000000000001 0  0.15 0.07000000000000001 0  0.16 0.07000000000000001 0  0.17 0.0700
[...]
<PointData  Scalars="Indicator Function"> 
<DataArray  type="Float64"  Name="Indicator Function"  format="ascii">-9.4366517854721988e-19  3.7361059570376661e-17  1.1838953499177090e-16  2.5161116591548799e-18  5.7108301574625916e-17  -1.4736490762809442e-18  -6.6658389466121662e-19  9.2930964543787576e-17  8.8455546911342807e-16  -1.1625763558122325e-18  3.6759954146681618e-16  5.8233446828751602e-16  -7.0695811111765723e-22  -3.6046187654003211e-18  2.7408785441160859e-16  -7.3745238926279567e-18  -7.5113837895932907e-18  5.9055018033216425e-16  -3.3080311942551774e-18  -4.3378969123622702e-18  2.1399974657099745e-15  -3.3892871331140712e-18  -2.4176708832503526e-18  1.6378002611991089e-15  -1.4933341835968379e-18  -2.9655256323924353e-18  -2.0416399780055731e-18  -9.1682315635132463e-19  1.1471304498583027e-15  -6.2265482475089678e-19  -1.8862707651237152e-18  -1.9575195415591241e-18  -2.2514808157298328e-18  -2.6756241568496033e-18  -6.0729420732594448e-17  -1.6118576323728981e-18  -4.3988377670285353e-18  -1.1634891541333882e-17  -1.3876558622822093e-17  -9.5146474297607935e-18  1.9401020213485685e-15  0.0000000000000000e+00  -2.6168778379601657e-18  -3.4965607070700993e-18  -1.0940608940450078e-18  -1.7812886670783444e-18  3.2962052624502487e-16  -1.6353176906597804e-18  -9.4157983120570012e-19  -7.6999295220938300e-19  -5.1027310596618460e-19  -8.6751058622402876e-20  -3.9707100335408027e-19  -1.0642769512164403e-18  -2.5797454358162000e-19  -8.8781695002274155e-19  3.3880580049745297e-16  -7.3792065149154221e-19  -6.6565773094689569e-19  -7.1708060059345744e-19  -1.1967357885549827e-19  -7.4752046233656887e-19  -2.6795844796147717e-19  -1.8941384715650824e-20  -5.4232747041001260e-20  -2.3943054248128655e-19  -9.7147088949656697e-20  -4.6721776856548309e-20  2.9423896176906380e-17  -3.2395542346785427e-19  -9.5724354670202313e-20  -9.6882115709551586e-20  -5.1008897219162649e-20  -9.5223992458767595e-19  -1.0690399266174236e-18  -5.0702403875126144e-19  -8.2923425530155825e-20  -2.8005866253581704e-19  -2.9212626825877875e-19  -2.9514342202346010e-19  -1.0969369972711784e-19  3.0655380951877140e-16  -1.7463487327527727e-19  -6.0080143084945795e-19  -4.9316743978957317e-19  -3.6485242846292155e-19  -1.6150915816255740e-20  -1.9475739036898521e-19  -2.0247035312553344e-19  -2.8032313918750831e-20  -3.4710199995700589e-21  -5.5462292378117515e-21  -6.9109065538047935e-20  9.1992094433905338e-17  -4.3141164195165991e-20  -2.5601284653466455e-20  -3.5112139929597995e-21  -1.0299402048890971e-20  -7.1865906410657511e-21  6.8450404470885561e-37  1.6428097073012534e-35  7.0093214178186814e-34  1.6999560585871126e-02  8.8659047372048924e-02  2.6607183042630336e-02  4.1583845969591221e-02  4.5399022199948923e-02  2.6546901723254936e-02  1.2008107918429635e-02  7.8840661314529797e-02  8.7748063964944653e-02  2.0943113771302629e-02  1.2631022011192189e-01  2.5470850286319993e-05  1.2987007782935531e-01  2.8962760058607413e-03  1.0899366489736931e-01  1.0056456197501763e-01  8.5030779955887995e-02  1.1918438443022071e-01  1.5628920734468887e-01  7.2957297187405484e-02  1.2211193815795311e-01  8.7105773511287302e-02  4.3087134234710825e-03  1.2637356213452322e-02  1.0684432106400177e-01  7.3557832353364827e-02  3.3032035402467123e-02  1.8261982316564500e-02  1.6713039991809706e-02  2.8602321510094834e-03  7.0527074223489014e-02  8.1118145302021549e-02  2.2438698918714876e-03  4.8199759823085907e-02  5.8073291460230957e-02  1.8452737412024418e-02  7.0016047807799700e-02  1.7458754893628975e-01  1.6268408250356078e-01  9.0058609225149369e-02  5.0768414294544595e-02  8.1493484072833451e-04  4.7141480223646039e-02  3.9417697877933817e-02  6.4177687818349052e-02  6.0901697607003175e-02  2.3811803732834938e-02  2.9459264569151069e-02  6.6786229936732847e-03  1.0531648393755701e-02  9.1922630795459800e-03  1.4305990581960521e-02  3.8344618247338959e-02  9.2945124667620643e-03  2.3654349845998561e-02  3.0981638109061516e-02  2.6586393368690422e-02  2.3982847272389828e-02  2.5835551405018444e-02  4.3116950811177236e-03  7.6238219428049906e-03  9.6542205311206750e-03  6.8243530517829139e-04  1.9539406349210536e-03  1.6262089176978702e-03  3.5000927487504165e-03  1.6833294147297522e-03  2.8840073367343588e-03  5.6002267018464601e-03  3.0357487467346875e-03  1.8200208528422164e-03  1.8377892040704062e-03  5.7286553146395341e-03  1.4289701820841697e-02  1.2113260350212788e-02  3.0771029128458640e-03  1.4938156332715790e-03  4.2981805363169505e-03  3.1133887433430004e-03  3.9521320417276887e-03  6.0066810836378545e-04  3.1495828853895104e-04  6.9786327278520384e-03  7.3337600364630981e-03  5.2172347740387795e-03  3.9639796564639460e-03  2.2714198751074399e-03  3.9702352111527194e-03  1.6622640219825396e-03  1.2505667501327435e-04  1.9982396742976291e-04  4.2364825104080489e-04  1.0331341216998889e-03  5.0373699570827274e-04  5.2529362612057924e-04  1.9854493104194045e-04  5.7580162241078849e-05  1.5674745179755769e-04  5.1088381833893113e-05  1.4179874450707417e-21  -4.0112278184371796e-19  1.4961453958378380e-02  3.1859528960087272e-02  6.2365778912257482e-02  2.7217644205219885e-02  7.9265836764532346e-02  3.4857802333112434e-02  1.0925032653742139e-01  5.6812668880586344e-04  1.1741733907998363e-01  2.0168253189753618e-01  6.5335979026298910e-02  6.6733255038810516e-02  2.1734176788098189e-01  1.8177422323526113e-01  2.6299005546486059e-01  2.0501772806622326e-02  1.7059989467390629e-01  1.6023978054645342e-02  1.0168122335483393e-01  1.7828687502232377e-03  2.0155903321078086e-01  9.7447094822005129e-02  7.0802557779520117e-02  1.2042263617678883e-01  3.3202949571112868e-02  2.3586060463791591e-02  6.8561931399473711e-02  2.1352322221177285e-02  3.1714774659026883e-02  1.4713920537025710e-01  9.3923691655767874e-02  8.2755437595961198e-02  8.6922640963372461e-02  1.3147812377518098e-01  5.4781706853090559e-04  4.6134654106588131e-02  1.2242275409424644e-01  1.6202529560836884e-01  1.7515912504510969e-01  2.4930395722385348e-01  8.3264921393444394e-02  4.6842362963873015e-02  1.0369512756270828e-02  2.1427380959069198e-02  4.1809509092475472e-03  2.7235958268256887e-03  3.1205471617120608e-03  4.4897908073718663e-02  8.4498105003668611e-03  4.5588720650512893e-02  4.1048276849904829e-02  1.9490583190571512e-02  1.5840999883864285e-02  5.7282217982020468e-02  1.1284306059805696e-02  8.3600506377101893e-03  1.0075647181421465e-03  4.6792952301510614e-03  7.5901578685620228e-03  3.2137443599686566e-02  1.5733218938477619e-02  2.3963166313558267e-02  1.8648769450615246e-03  1.8931372914166686e-03  3.7973364977730889e-03  7.4321974426382262e-03  5.0413022266263289e-04  8.0390534618089520e-04  8.5210284615926703e-03  6.4078928349575104e-03  1.0379563578951675e-03  3.0878506741131816e-03  2.1334428214780559e-03  1.6202301729583563e-02  2.1267147516327880e-02  6.7476527264872140e-03  8.3322069664996978e-04  4.7697389944335910e-03  4.1826841146403067e-03  4.1844014132533568e-03  3.4970332471384487e-03  3.5138608796989952e-03  7.3798691544794239e-03  1.1690955522610508e-02  7.4011143414886779e-03  6.1800370441160053e-03  2.6873731042665822e-03  5.2018049152053715e-03  4.1831345117270703e-03  8.5740552987207134e-05  3.8810733656080928e-04  4.7697411287694669e-04  1.9099129901448218e-03  5.1717605725570164e-04  1.1028052785198124e-03  3.6406732855227022e-04  9.6090102454863478e-05  2.2446417342359068e-04  2.7325880892818888e-04  6.8260099804587721e-20  3.8551267798002749e-33  7.1521981923047775e-02  6.7035678422926584e-02  1.8612778341243510e-01  6.6109874328171392e-02  7.2838016071450507e-03  1.0924562726174868e-01  1.2998731731526714e-01  7.8945146090283941e-02  1.4799496812786397e-01  3.2083632013429608e-01  2.2428554576030985e-01  2.1820498628571419e-01  2.2270711473668287e-01  1.5206969136593218e-01  1.2589297137123567e-01  3.0154518977894029e-01  1.2550491627342511e-01  1.5574384367632702e-01  1.0763360019843138e-01  3.6098929415568026e-01  3.2717941240558474e-01  3.4469977441760569e-01  2.8870963852118814e-01  4.0724591264127870e-02  6.3185758917469484e-02  1.9721833647497025e-01  2.7695762662998313e-01  1.4053956003708323e-01  4.7176591101142966e-02  2.7161506924737778e-02  6.2557120690730508e-02  1.3928895501664629e-01  1.7617668851842108e-01  6.8820374291747269e-02  1.2846714845693000e-01  7.0140527577484915e-02  5.6725653355387456e-02  1.5822542360811792e-01  3.0896867542298961e-01  1.7362439324621470e-01  1.0624219694834859e-01  7.7700512565086463e-02  3.6334064127173597e-02  7.8345375896526195e-02  2.3346462781998686e-02  1.5807617375819674e-01  1.8255370208036886e-01  9.3744382460145562e-02  8.5519143205312523e-02  1.8852931368918066e-02  3.6634129623186684e-02  4.3142297122832317e-02  6.4266394071953370e-03  7.3278710768847774e-02  2.6568744925294398e-02  4.3331156060587919e-02  7.8218086984000526e-02  7.6377613128227689e-02  6.0865926380419044e-02  5.7895494294424539e-02  1.2296983201326687e-02  6.6730379764011099e-03  2.1963531649997918e-02  8.5887730338889794e-03  3.0364549372743684e-03  1.1517612860943369e-03  7.9503074143245783e-03  6.0746676149965361e-03  5.7195373723691314e-03  1.1296818450896038e-02  2.9151643031005759e-03  2.8382842395123021e-04  3.2975600915045099e-03  1.1372272961002378e-02  2.5557994931706431e-02  1.6699938902273708e-02  2.9512154722395978e-03  4.0627558934926067e-03  5.7813927524363257e-03  1.8982640766521044e-03  5.7589331393446234e-03  1.9680761480013499e-03  3.6980232800500095e-04  1.5184027515283601e-02  1.1400693694069205e-02  5.0140597093209557e-03  5.2532753441873938e-03  2.2308378574747768e-03  7.5610095181234994e-03  1.7416383853627064e-03  1.5981235616469767e-03  4.7131558092462290e-04  3.8369576423409840e-04  2.4066729284597304e-03  3.3631547190702329e-04  1.0733095310404674e-03  3.0646037171634910e-04  2.9177099511592941e-05  1.6845449157995603e-04  -1.5435566208184694e-34  -2.7459591095842276e-19  8.5916056110533351e-02  7.2053212814842477e-02  8.5975947716326481e-02  6.0613932628938043e-02  5.0677846836305204e-02  1.1047416504989853e-01  8.6642189563321384e-02  1.2807656503140427e-01  2.3445533583982096e-02  5.7502876662234088e-02  1.4327800513306993e-01  1.1208691796016981e-01  8.6128431410558481e-02  2.4317284219355584e-01  4.6133374247529851e-01  1.9744475135008244e-01  5.1345212399104043e-02  2.0455504465369423e-01  9.1011220359021481e-04  2.3362238883918060e-01  2.3980570016205233e-01  1.1833016743711014e-01  7.2972987799535829e-02  1.9510318214746128e-01  1.8980087918474867e-01  7.8123956118602803e-02  1.0281221435449590e-01  1.5170460998420199e-02  1.3964760168378545e-02  2.8214632769103225e-03  1.8328728221264542e-01  1.8308948186491866e-01  1.5205051948667173e-01  2.7154046028659290e-01  1.0263836424210067e-01  5.0261727742125520e-02  7.0766279823070252e-02  1.7445207400512788e-01  1.7960140785328377e-01  2.5670906144075051e-01  2.9008491898782401e-01  2.4204851043298976e-03  8.2942008000663592e-02  2.0780956596723639e-02  3.5491767582110589e-02  1.0382457462703120e-02  8.6434609673282967e-02  7.9971743298078005e-02  1.9671543060300285e-02  2.2673965577089260e-03  4.6599863302304326e-02  5.2962463653402583e-02  2.1958670662573409e-02  3.2415724552555210e-02  1.1302764083978672e-01  5.3537520211457974e-02  9.5456919570653716e-03  3.0149522474867005e-02  4.2821387309994401e-02  4.0060098404140876e-02  6.7442034123259956e-02  3.8911428143685874e-02  3.5542419310070524e-02  2.4976108634337277e-03  8.8720869126592758e-03  6.9488708126399148e-03  1.0443445287797294e-02  2.4877714702896267e-04  4.5043379004073257e-03  1.2941484359232480e-02  9.1203939859828866e-03  1.4254678458431006e-03  2.8246425593792604e-03  1.2906098909896389e-03  2.2447014062869815e-02  2.8585588700709041e-02  3.6279255107243289e-03  7.5845678161104045e-03  6.6718361800048075e-03  3.6257570259632262e-03  2.3074990379976833e-03  4.4534065061839993e-03  7.1952095622372049e-03  9.6762808388188327e-03  1.7684892428081602e-02  7.5279852712335877e-03  4.5816595418199137e-03  1.8716765144721206e-03  5.7316033654612776e-03  6.1064512112568243e-03  1.1650022092441678e-03  1.5555814175919284e-03  1.0911579248845116e-03  2.4971600558463289e-03  9.4928273623071829e-04  1.2800249426228613e-03  5.8248365819648263e-04  2.7355334732625006e-04  6.0606269208222855e-05  -2.0309757356541173e-21  -7.1822180570989856e-18  2.2152603935371493e-01  1.5758870297092029e-01  2.2229206722476115e-02  2.3140980681039117e-01  1.9668334531770809e-01  2.3522628942897389e-02  5.1172206114013401e-02  1.5640141280943648e-01  1.9358598757882070e-01  1.3142587402758169e-01  3.9863639806343676e-01  4.3315045636858096e-01  1.0299806572265813e-01  3.1983570735212091e-01  7.4023483514075381e-02  3.7297662971923516e-02  4.7715472496845274e-01  4.0055434825677007e-02  1.4586729836195808e-01  4.7398517725090600e-03  2.8312530832462557e-01  3.9270515997461969e-01  4.9036847057099364e-01  4.0715081796014879e-01  3.4877190088148581e-02  1.7056602490153119e-01  1.2126861341480857e-01  3.4163138572543561e-01  2.3187728302486757e-01  4.5513841102030564e-02  3.5364239057234785e-02  1.8898774641856356e-01  2.2532354128048696e-01  1.1138608172287091e-01  1.7813655875836901e-02  2.1637157950942135e-01  2.6308750072494284e-02  6.9834007943443022e-02  2.3380866072956838e-01  3.2109107240865048e-01  1.4591380873277579e-01  1.5985791069000685e-01  4.5191162006778016e-02  1.1712265721944935e-01  6.4850968658726610e-02  1.0858432098101729e-02  1.7483754950837221e-01  2.0138059933554869e-01  1.1270103905234664e-01  1.1580277509617944e-01  4.1743856891187037e-02  5.8665986282731598e-02  7.9316949952644572e-02  1.3338238008083229e-02  6.5081519628972101e-02  6.7488656494226222e-04  2.4871196445666804e-02  9.1067402756500590e-02  8.7215394509481667e-02  6.2174193824634856e-02  5.5868028630686468e-02  1.1780268722204176e-03  8.9558720626753217e-03  3.4699635837977978e-02  1.4529223775710342e-02  2.9587212976883644e-04  1.2515808876108342e-03  1.2025944195301726e-02  8.7893827323177673e-03  4.8144464067878959e-03  1.5716286199251087e-02  3.2804365814926737e-03  2.1567280109957821e-03  4.6872833242279192e-03  1.1953535985698632e-02  3.1633561063666805e-02  2.0267558897172133e-02  9.1968212990474665e-03  8.2900160100156609e-03  6.8208713972208778e-03  4.0378648098046840e-04  5.2057122122639438e-03  2.3084271831018766e-03  3.6296305651314104e-03  1.9507901128685057e-02  1.4547038913840897e-02  3.4526027372818635e-03  4.1651476707846129e-03  8.0650426601896314e-04  9.0301483545756553e-03  2.0652547757890522e-03  3.1610692323015160e-03  9.7375729600244514e-05  2.7512730518781592e-05  3.3792751195939855e-03  1.8519249810461131e-04  1.4992084491787774e-03  4.7338430118409273e-04  1.7572762460915377e-04  2.1904129430683379e-35  -7.2043947309789015e-19  2.0169304152893938e-01  9.5610071737874322e-02  6.4224182289645715e-02  2.0119697165973591e-01  6.7864036967114946e-02  4.4358539468783272e-02  6.8352477435666553e-02  1.7285683449890710e-01  4.9637260124400139e-02  2.9316008289701882e-02  9.4718560350782327e-03  5.0174071262025138e-02  8.2743439103197702e-02  2.0120393380334625e-01  3.2246690967229520e-02  4.8393637342216017e-01  2.3637968692721275e-02  2.9271690043518438e-02  2.1746128240684751e-01  7.6877945868386255e-02  1.6740943399267674e-01  4.3611456137051696e-01  8.4113040398590397e-02  5.4527729162408785e-02  3.6308044130479489e-01  2.2188304487499075e-01  1.4665900651518031e-02  1.7800262519321930e-01  1.9833717606297432e-01  4.1293058092247460e-02  1.4841502145367285e-02  1.1824516136914485e-01  1.5769862558254294e-01  1.6902665355054802e-01  3.6390019786010708e-01  1.8097716170784199e-02  1.5840973430110056e-02  8.6072582086461347e-02  1.7958226949977124e-01  2.3024099803797010e-01  3.3405148565370307e-01  2.4059297463700302e-01  4.4793573797468830e-02  7.3652714409129225e-02  1.4585482991055403e-03  6.3199605016371660e-02  1.7217417861902940e-02  1.6008324657813633e-01  1.7497807173158561e-01  3.6035111070135462e-02  4.0502793129331097e-02  1.9880522021434040e-02  3.4033370775595623e-02  7.5799959932492519e-03  2.2852756318233330e-02  1.3423910912655757e-01  6.8065094795687633e-02  1.7585200039040749e-02  6.2060685831837804e-02  7.7995579440789470e-02  6.5933645843294919e-02  8.8044664715050097e-02  4.7016408405107443e-02  3.3983305700163391e-02  9.0579475212335878e-03  1.6173066955341289e-02  7.5345406655389097e-03  1.0254251531698046e-02  2.1326664422379720e-03  8.0262893367410749e-03  1.4816593376796913e-02  1.2524967428927978e-02  2.5139761887019722e-03  1.6704564177763240e-03  5.8493445861640587e-04  2.5303125904367830e-02  3.3993571961429637e-02  3.0096098752581410e-03  1.4785765315955254e-02  8.8489388496430128e-03  3.5608074017669245e-03  3.7405790816978651e-04  4.7345687069614137e-03  8.9516548686437557e-03  8.9020226527249842e-03  2.2757638117284075e-02  8.2954382041366976e-03  2.4182415261638818e-03  1.1831164353505333e-03  5.1164033703377590e-03  7.8096936107778046e-03  1.8379931227782158e-03  2.9231859915750881e-03  1.2776320464996623e-03  2.4496238450367270e-03  1.7925558829538580e-03  1.1248348201505817e-03  9.2297440501794639e-04  3.9241040302765654e-04  2.1904129430683379e-35  5.6074571342549451e-33  1.0006436226973725e-01  7.5578089857557929e-02  5.3099509630388966e-02  1.8393452074912037e-01  1.2177415817107777e-01  2.4423396054273500e-01  2.3636125833967456e-03  4.7626248274534017e-02  8.5577879601682269e-02  2.1289720953426064e-01  1.0097659617452776e-01  3.1850808269100483e-01  3.7065975143717655e-01  3.0870185098742928e-02  1.6850273017165540e-01  1.3326904085449925e-01  1.9715366957888550e-01  4.2945155296833187e-01  3.5895682327476655e-02  1.0048595621218501e-01  1.2456588646963583e-03  1.2355249167042301e-01  1.8402258005800809e-01  4.2887066478662678e-01  3.5402307251785037e-01  6.5331041556759312e-02  2.1098959739024256e-01  5.5562491578934642e-02  2.1544695941332029e-01  1.8377378097634428e-01  2.0883091249816157e-02  3.2534085893633040e-02  2.2255825636061616e-01  3.1293228281889407e-01  2.3793795827550181e-02  1.5198300568836434e-01  2.0749274347745458e-01  1.2127541479595929e-02  7.4376459977677306e-02  2.7035070901149211e-01  3.0184134181304162e-01  1.9690429071566379e-01  1.8728986698514011e-01  3.4884858184213684e-02  1.5792415474216148e-01  3.7025963674978825e-02  1.2634578924661577e-02  1.6431403468781411e-01  1.2676393222894744e-01  3.8295337987980925e-02  8.7562131254309922e-02  2.6197097349984676e-02  5.0090601725486988e-02  8.4226530910103445e-02  1.2101120288716523e-02  5.4258972685134084e-02  4.1867082783551890e-02  1.1232467830868559e-02  7.5785596402699398e-02  5.9964570190331141e-02  3.0068304750353811e-02  2.9445405007154604e-02  2.5824476613376939e-02  2.5912894301060720e-02  4.2219215886412809e-02  1.4910708683395474e-02  5.1837127046547825e-03  2.9990838050842818e-03  1.3772513827371081e-02  8.5878485032359793e-03  2.2419141258371742e-03  1.9039183240200853e-02  5.1989722586712681e-03  3.7985045207595937e-03  4.8908967405940562e-03  1.0709982693141808e-02  3.5923615638771424e-02  2.4339874090933585e-02  1.2982470794355978e-02  1.4634754714718408e-02  8.0746221484913182e-03  1.8758323179167151e-04  3.4815943557226360e-03  1.9793286509654246e-03  6.0539318517380380e-03  2.1239015666153851e-02  1.8888508108811739e-02  2.9228175651682346e-03  2.1466299918675566e-03  1.6921497119519094e-04  9.4342395519564515e-03  3.3554851214771262e-03  4.0669578690556473e-03  6.3406904012938508e-04  4.1712693958350787e-04  3.6368637419264948e-03  5.6778354151618225e-04  1.5162177465123953e-03  5.9966865319103265e-04  -8.3220743239830279e-20  -3.5046607089093407e-34  4.2806251606012674e-02  2.3286935970279300e-02  6.0879648261820012e-02  1.3332787120973330e-01  5.1100603521747355e-02  2.1735042558761250e-01  1.0841466511226154e-02  7.7282023402135596e-03  1.4019660599514674e-01  2.7160378649803865e-03  8.0710643019297104e-02  6.8200478817404611e-02  1.1135865365533233e-01  2.7482925390530749e-01  1.0438148734421404e-01  8.5655003222238485e-02  