<?xml version="1.0"?>
<VTKFile type="UnstructuredGrid"  version="0.1"  >
<UnstructuredGrid>
<Piece  NumberOfPoints="10201" NumberOfCells="20000">
<Points>
<DataArray  type="Float64"  NumberOfComponents="3"  format="ascii">0 0 0  0.01 0 0  0.02 0 0  0.03 0 0  0.04 0 0  0.05 0 0  0.06 0 0  0.07000000000000001 0 0  0.08 0 0  0.09 0 0  0.1 0 0  0.11 0 0  0.12 0 0  0.13 0 0  0.14 0 0  0.15 0 0  0.16 0 0  0.17 0 0  0.18 0 0  0.19 0 0  0.2 0 0  0.21 0 0  0.22 0 0  0.23 0 0  0.24 0 0  0.25 0 0  0.26 0 0  0.27 0 0  0.28 0 0  0.29 0 0  0.3 0 0  0.31 0 0  0.32 0 0  0.33 0 0  0.34 0 0  0.35 0 0  0.36 0 0  0.37 0 0  0.38 0 0  0.39 0 0  0.4 0 0  0.41 0 0  0.42 0 0  0.43 0 0  0.44 0 0  0.45 0 0  0.46 0 0  0.47 0 0  0.48 0 0  0.49 0 0  0.5 0 0  0.51 0 0  0.52 0 0  0.53 0 0  0.54 0 0  0.55 0 0  0.5600000000000001 0 0  0.57 0 0  0.58 0 0  0.59 0 0  0.6 0 0  0.61 0 0  0.62 0 0  0.63 0 0  0.64 0 0  0.65 0 0  0.66 0 0  0.67 0 0  0.68 0 0  0.6899999999999999 0 0  0.7 0 0  0.71 0 0  0.72 0 0  0.73 0 0  0.74 0 0  0.75 0 0  0.76 0 0  0.77 0 0  0.78 0 0  0.79 0 0  0.8 0 0  0.8100000000000001 0 0  0.82 0 0  0.83 0 0  0.84 0 0  0.85 0 0  0.86 0 0  0.87 0 0  0.88 0 0  0.89 0 0  0.9 0 0  0.91 0 0  0.92 0 0  0.93 0 0  0.9399999999999999 0 0  0.95 0 0  0.96 0 0  0.97 0 0  0.98 0 0  0.99 0 0  1 0 0  0 0.01 0  0.01 0.01 0  0.02 0.01 0  0.03 0.01 0  0.04 0.01 0  0.05 0.01 0  0.06 0.01 0  0.07000000000000001 0.01 0  0.08 0.01 0  0.09 0.01 0  0.1 0.01 0  0.11 0.01 0  0.12 0.01 0  0.13 0.01 0  0.14 0.01 0  0.15 0.01 0  0.16 0.01 0  0.17 0.01 0  0.18 0.01 0  0.19 0.01 0  0.2 0.01 0  0.21 0.01 0  0.22 0.01 0  0.23 0.01 0  0.24 0.01 0  0.25 0.01 0  0.26 0.01 0  0.27 0.01 0  0.28 0.01 0  0.29 0.01 0  0.3 0.01 0  0.31 0.01 0  0.32 0.01 0  0.33 0.01 0  0.34 0.01 0  0.35 0.01 0  0.36 0.01 0  0.37 0.01 0  0.38 0.01 0  0.39 0.01 0  0.4 0.01 0  0.41 0.01 0  0.42 0.01 0  0.43 0.01 0  0.44 0.01 0  0.45 0.01 0  0.46 0.01 0  0.47 0.01 0  0.48 0.01 0  0.49 0.01 0  0.5 0.01 0  0.51 0.01 0  0.52 0.01 0  0.53 0.01 0  0.54 0.01 0  0.55 0.01 0  0.5600000000000001 0.01 0  0.57 0.01 0  0.58 0.01 0  0.59 0.01 0  0.6 0.01 0  0.61 0.01 0  0.62 0.01 0  0.63 0.01 0  0.64 0.01 0  0.65 0.01 0  0.66 0.01 0  0.67 0.01 0  0.68 0.01 0  0.6899999999999999 0.01 0  0.7 0.01 0  0.71 0.01 0  0.72 0.01 0  0.73 0.01 0  0.74 0.01 0  0.75 0.01 0  0.76 0.01 0  0.77 0.01 0  0.78 0.01 0  0.79 0.01 0  0.8 0.01 0  0.8100000000000001 0.01 0  0.82 0.01 0  0.83 0.01 0  0.84 0.01 0  0.85 0.01 0  0.86 0.01 0  0.87 0.01 0  0.88 0.01 0  0.89 0.01 0  0.9 0.01 0  0.91 0.01 0  0.92 0.01 0  0.93 0.01 0  0.9399999999999999 0.01 0  0.95 0.01 0  0.96 0.01 0  0.97 0.01 0  0.98 0.01 0  0.99 0.01 0  1 0.01 0  0 0.02 0  0.01 0.02 0  0.02 0.02 0  0.03 0.02 0  0.04 0.02 0  0.05 0.02 0  0.06 0.02 0  0.07000000000000001 0.02 0  0.08 0.02 0  0.09 0.02 0  0.1 0.02 0  0.11 0.02 0  0.12 0.02 0  0.13 0.02 0  0.14 0.02 0  0.15 0.02 0  0.16 0.02 0  0.17 0.02 0  0.18 0.02 0  0.19 0.02 0  0.2 0.02 0  0.21 0.02 0  0.22 0.02 0  0.23 0.02 0  0.24 0.02 0  0.25 0.02 0  0.26 0.02 0  0.27 0.02 0  0.28 0.02 0  0.29 0.02 0  0.3 0.02 0  0.31 0.02 0  0.32 0.02 0  0.33 0.02 0  0.34 0.02 0  0.35 0.02 0  0.36 0.02 0  0.37 0.02 0  0.38 0.02 0  0.39 0.02 0  0.4 0.02 0  0.41 0.02 0  0.42 0.02 0  0.43 0.02 0  0.44 0.02 0  0.45 0.02 0  0.46 0.02 0  0.47 0.02 0  0.48 0.02 0  0.49 0.02 0  0.5 0.02 0  0.51 0.02 0  0.52 0.02 0  0.53 0.02 0  0.54 0.02 0  0.55 0.02 0  0.5600000000000001 0.02 0  0.57 0.02 0  0.58 0.02 0  0.59 0.02 0  0.6 0.02 0  0.61 0.02 0  0.62 0.02 0  0.63 0.02 0  0.64 0.02 0  0.65 0.02 0  0.66 0.02 0  0.67 0.02 0  0.68 0.02 0  0.6899999999999999 0.02 0  0.7 0.02 0  0.71 0.02 0  0.72 0.02 0  0.73 0.02 0  0.74 0.02 0  0.75 0.02 0  0.76 0.02 0  0.77 0.02 0  0.78 0.02 0  0.79 0.02 0  0.8 0.02 0  0.8100000000000001 0.02 0  0.82 0.02 0  0.83 0.02 0  0.84 0.02 0  0.85 0.02 0  0.86 0.02 0  0.87 0.02 0  0.88 0.02 0  0.89 0.02 0  0.9 0.02 0  0.91 0.02 0  0.92 0.02 0  0.93 0.02 0  0.9399999999999999 0.02 0  0.95 0.02 0  0.96 0.02 0  0.97 0.02 0  0.98 0.02 0  0.99 0.02 0  1 0.02 0  0 0.03 0  0.01 0.03 0  0.02 0.03 0  0.03 0.03 0  0.04 0.03 0  0.05 0.03 0  0.06 0.03 0  0.07000000000000001 0.03 0  0.08 0.03 0  0.09 0.03 0  0.1 0.03 0  0.11 0.03 0  0.12 0.03 0  0.13 0.03 0  0.14 0.03 0  0.15 0.03 0  0.16 0.03 0  0.17 0.03 0  0.18 0.03 0  0.19 0.03 0  0.2 0.03 0  0.21 0.03 0  0.22 0.03 0  0.23 0.03 0  0.24 0.03 0  0.25 0.03 0  0.26 0.03 0  0.27 0.03 0  0.28 0.03 0  0.29 0.03 0  0.3 0.03 0  0.31 0.03 0  0.32 0.03 0  0.33 0.03 0  0.34 0.03 0  0.35 0.03 0  0.36 0.03 0  0.37 0.03 0  0.38 0.03 0  0.39 0.03 0  0.4 0.03 0  0.41 0.03 0  0.42 0.03 0  0.43 0.03 0  0.44 0.03 0  0.45 0.03 0  0.46 0.03 0  0.47 0.03 0  0.48 0.03 0  0.49 0.03 0  0.5 0.03 0  0.51 0.03 0  0.52 0.03 0  0.53 0.03 0  0.54 0.03 0  0.55 0.03 0  0.5600000000000001 0.03 0  0.57 0.03 0  0.58 0.03 0  0.59 0.03 0  0.6 0.03 0  0.61 0.03 0  0.62 0.03 0  0.63 0.03 0  0.64 0.03 0  0.65 0.03 0  0.66 0.03 0  0.67 0.03 0  0.68 0.03 0  0.6899999999999999 0.03 0  0.7 0.03 0  0.71 0.03 0  0.72 0.03 0  0.73 0.03 0  0.74 0.03 0  0.75 0.03 0  0.76 0.03 0  0.77 0.03 0  0.78 0.03 0  0.79 0.03 0  0.8 0.03 0  0.8100000000000001 0.03 0  0.82 0.03 0  0.83 0.03 0  0.84 0.03 0  0.85 0.03 0  0.86 0.03 0  0.87 0.03 0  0.88 0.03 0  0.89 0.03 0  0.9 0.03 0  0.91 0.03 0  0.92 0.03 0  0.93 0.03 0  0.9399999999999999 0.03 0  0.95 0.03 0  0.96 0.03 0  0.97 0.03 0  0.98 0.03 0  0.99 0.03 0  1 0.03 0  0 0.04 0  0.01 0.04 0  0.02 0.04 0  0.03 0.04 0  0.04 0.04 0  0.05 0.04 0  0.06 0.04 0  0.07000000000000001 0.04 0  0.08 0.04 0  0.09 0.04 0  0.1 0.04 0  0.11 0.04 0  0.12 0.04 0  0.13 0.04 0  0.14 0.04 0  0.15 0.04 0  0.16 0.04 0  0.17 0.04 0  0.18 0.04 0  0.19 0.04 0  0.2 0.04 0  0.21 0.04 0  0.22 0.04 0  0.23 0.04 0  0.24 0.04 0  0.25 0.04 0  0.26 0.04 0  0.27 0.04 0  0.28 0.04 0  0.29 0.04 0  0.3 0.04 0  0.31 0.04 0  0.32 0.04 0  0.33 0.04 0  0.34 0.04 0  0.35 0.04 0  0.36 0.04 0  0.37 0.04 0  0.38 0.04 0  0.39 0.04 0  0.4 0.04 0  0.41 0.04 0  0.42 0.04 0  0.43 0.04 0  0.44 0.04 0  0.45 0.04 0  0.46 0.04 0  0.47 0.04 0  0.48 0.04 0  0.49 0.04 0  0.5 0.04 0  0.51 0.04 0  0.52 0.04 0  0.53 0.04 0  0.54 0.04 0  0.55 0.04 0  0.5600000000000001 0.04 0  0.57 0.04 0  0.58 0.04 0  0.59 0.04 0  0.6 0.04 0  0.61 0.04 0  0.62 0.04 0  0.63 0.04 0  0.64 0.04 0  0.65 0.04 0  0.66 0.04 0  0.67 0.04 0  0.68 0.04 0  0.6899999999999999 0.04 0  0.7 0.04 0  0.71 0.04 0  0.72 0.04 0  0.73 0.04 0  0.74 0.04 0  0.75 0.04 0  0.76 0.04 0  0.77 0.04 0  0.78 0.04 0  0.79 0.04 0  0.8 0.04 0  0.8100000000000001 0.04 0  0.82 0.04 0  0.83 0.04 0  0.84 0.04 0  0.85 0.04 0  0.86 0.04 0  0.87 0.04 0  0.88 0.04 0  0.89 0.04 0  0.9 0.04 0  0.91 0.04 0  0.92 0.04 0  0.93 0.04 0  0.9399999999999999 0.04 0  0.95 0.04 0  0.96 0.04 0  0.97 0.04 0  0.98 0.04 0  0.99 0.04 0  1 0.04 0  0 0.05 0  0.01 0.05 0  0.02 0.05 0  0.03 0.05 0  0.04 0.05 0  0.05 0.05 0  0.06 0.05 0  0.07000000000000001 0.05 0  0.08 0.05 0  0.09 0.05 0  0.1 0.05 0  0.11 0.05 0  0.12 0.05 0  0.13 0.05 0  0.14 0.05 0  0.15 0.05 0  0.16 0.05 0  0.17 0.05 0  0.18 0.05 0  0.19 0.05 0  0.2 0.05 0  0.21 0.05 0  0.22 0.05 0  0.23 0.05 0  0.24 0.05 0  0.25 0.05 0  0.26 0.05 0  0.27 0.05 0  0.28 0.05 0  0.29 0.05 0  0.3 0.05 0  0.31 0.05 0  0.32 0.05 0  0.33 0.05 0  0.34 0.05 0  0.35 0.05 0  0.36 0.05 0  0.37 0.05 0  0.38 0.05 0  0.39 0.05 0  0.4 0.05 0  0.41 0.05 0  0.42 0.05 0  0.43 0.05 0  0.44 0.05 0  0.45 0.05 0  0.46 0.05 0  0.47 0.05 0  0.48 0.05 0  0.49 0.05 0  0.5 0.05 0  0.51 0.05 0  0.52 0.05 0  0.53 0.05 0  0.54 0.05 0  0.55 0.05 0  0.5600000000000001 0.05 0  0.57 0.05 0  0.58 0.05 0  0.59 0.05 0  0.6 0.05 0  0.61 0.05 0  0.62 0.05 0  0.63 0.05 0  0.64 0.05 0  0.65 0.05 0  0.66 0.05 0  0.67 0.05 0  0.68 0.05 0  0.6899999999999999 0.05 0  0.7 0.05 0  0.71 0.05 0  0.72 0.05 0  0.73 0.05 0  0.74 0.05 0  0.75 0.05 0  0.76 0.05 0  0.77 0.05 0  0.78 0.05 0  0.79 0.05 0  0.8 0.05 0  0.8100000000000001 0.05 0  0.82 0.05 0  0.83 0.05 0  0.84 0.05 0  0.85 0.05 0  0.86 0.05 0  0.87 0.05 0  0.88 0.05 0  0.89 0.05 0  0.9 0.05 0  0.91 0.05 0  0.92 0.05 0  0.93 0.05 0  0.9399999999999999 0.05 0  0.95 0.05 0  0.96 0.05 0  0.97 0.05 0  0.98 0.05 0  0.99 0.05 0  1 0.05 0  0 0.06 0  0.01 0.06 0  0.02 0.06 0  0.03 0.06 0  0.04 0.06 0  0.05 0.06 0  0.06 0.06 0  0.07000000000000001 0.06 0  0.08 0.06 0  0.09 0.06 0  0.1 0.06 0  0.11 0.06 0  0.12 0.06 0  0.13 0.06 0  0.14 0.06 0  0.15 0.06 0  0.16 0.06 0  0.17 0.06 0  0.18 0.06 0  0.19 0.06 0  0.2 0.06 0  0.21 0.06 0  0.22 0.06 0  0.23 0.06 0  0.24 0.06 0  0.25 0.06 0  0.26 0.06 0  0.27 0.06 0  0.28 0.06 0  0.29 0.06 0  0.3 0.06 0  0.31 0.06 0  0.32 0.06 0  0.33 0.06 0  0.34 0.06 0  0.35 0.06 0  0.36 0.06 0  0.37 0.06 0  0.38 0.06 0  0.39 0.06 0  0.4 0.06 0  0.41 0.06 0  0.42 0.06 0  0.43 0.06 0  0.44 0.06 0  0.45 0.06 0  0.46 0.06 0  0.47 0.06 0  0.48 0.06 0  0.49 0.06 0  0.5 0.06 0  0.51 0.06 0  0.52 0.06 0  0.53 0.06 0  0.54 0.06 0  0.55 0.06 0  0.5600000000000001 0.06 0  0.57 0.06 0  0.58 0.06 0  0.59 0.06 0  0.6 0.06 0  0.61 0.06 0  0.62 0.06 0  0.63 0.06 0  0.64 0.06 0  0.65 0.06 0  0.66 0.06 0  0.67 0.06 0  0.68 0.06 0  0.6899999999999999 0.06 0  0.7 0.06 0  0.71 0.06 0  0.72 0.06 0  0.73 0.06 0  0.74 0.06 0  0.75 0.06 0  0.76 0.06 0  0.77 0.06 0  0.78 0.06 0  0.79 0.06 0  0.8 0.06 0  0.8100000000000001 0.06 0  0.82 0.06 0  0.83 0.06 0  0.84 0.06 0  0.85 0.06 0  0.86 0.06 0  0.87 0.06 0  0.88 0.06 0  0.89 0.06 0  0.9 0.06 0  0.91 0.06 0  0.92 0.06 0  0.93 0.06 0  0.9399999999999999 0.06 0  0.95 0.06 0  0.96 0.06 0  0.97 0.06 0  0.98 0.06 0  0.99 0.06 0  1 0.06 0  0 0.07000000000000001 0  0.01 0.07000000000000001 0  0.02 0.07000000000000001 0  0.03 0.07000000000000001 0  0.04 0.07000000000000001 0  0.05 0.07000000000000001 0  0.06 0.07000000000000001 0  0.07000000000000001 0.07000000000000001 0  0.08 0.07000000000000001 0  0.09 0.07000000000000001 0  0.1 0.07000000000000001 0  0.11 0.07000000000000001 0  0.12 0.07000000000000001 0  0.13 0.07000000000000001 0  0.14 0.07000000000000001 0  0.15 0.07000000000000001 0  0.16 0.07000000000000001 0  0.17 0.0700
[...]
<PointData  Scalars="Indicator Function"> 
<DataArray  type="Float64"  Name="Indicator Function"  format="ascii">-2.4074124304840448e-35  -3.0814598275686576e-20  7.2456893017636869e-19  -1.3193045074413096e-20  1.7096845332027881e-18  -3.3928918432615164e-20  -4.9772901803790453e-20  6.1043479655094501e-18  5.6390718499789899e-18  -1.3524605920973052e-20  1.4119064309897444e-19  3.6380863223602326e-19  -5.3339544226091604e-20  -8.0648316421215501e-34  3.8326698973754857e-17  -4.6357270108433889e-20  8.0648316421215501e-34  3.1784281419866221e-17  -1.8380289524070840e-20  -8.1441404118722508e-20  7.7807985874946886e-17  -2.1194744782718089e-19  -2.3953260632501183e-19  1.4256016633129495e-17  -6.9441341257808562e-20  -5.9615590094954960e-20  -5.3227167977116100e-20  -2.4616221131350391e-19  1.7421317171669558e-16  -3.2657875397864432e-19  -4.8542737478822210e-19  -2.6217972377457603e-19  -2.1160906366410440e-19  -1.7866741979033229e-19  1.3729157539444876e-17  -1.5856115659416680e-19  -4.8503387925639988e-19  -8.3307700647346874e-19  -7.5651869499097675e-19  -7.6048653942518810e-19  6.0846492627663217e-17  -8.8838067633694452e-20  -1.7798647274410922e-19  -3.4782291885557638e-19  -2.6982693345156251e-19  -1.3491346672577812e-19  1.7029035941235679e-17  -3.8812660332263495e-20  -4.1134772069492852e-20  -5.1092244326462726e-20  -2.9607045584547972e-20  -5.3505965546507996e-20  -1.6263763980902739e-20  -5.9169448093969427e-20  -3.9450074948884008e-20  4.0625084764418256e-35  1.3096323621833204e-32  -2.9053916602271758e-22  -1.6807326441505691e-22  -2.0123018555732127e-22  -1.6849140227808176e-22  -1.2695147570328435e-22  -9.8726311759427857e-23  -7.8535850781436163e-23  -6.3672708390297233e-23  -5.2293344844949313e-23  -4.3461396475238838e-23  -3.6526550919348029e-23  -1.6453947678876456e-21  -2.3842035378762326e-23  -1.7865903807097627e-23  -2.2262709937193172e-23  -2.3175715475798162e-23  -2.9770367058140726e-23  -4.0853051061699594e-23  -5.0904741002377696e-23  -3.1436773234267274e-23  -1.1558237501062416e-23  -1.7398753257996181e-23  -1.3148832449451456e-24  -6.1417585254923975e-24  7.0389401783366473e-21  -2.6582115427847905e-23  -3.4854995407321736e-23  -2.3244126732479760e-23  -1.0907267618999019e-23  -4.1012232437307492e-24  -1.3297289038619537e-25  -2.3796425167950289e-24  -3.9623884177778231e-24  -4.7867253856485146e-24  -5.1153659065871269e-24  -5.0712884331070051e-24  -8.4261593957788436e-23  -4.0320236298024781e-24  -3.0931970468876982e-24  -2.0045719954220895e-24  -9.9510256223887392e-25  -3.1301092369422683e-25  -3.2142423655296924e-40  7.3468396926392969e-40  -9.0277966143151681e-36  3.1111352421882385e-04  5.7525654735805353e-04  1.2845545783785351e-04  2.3810593959474704e-05  2.4486853207847712e-04  1.0378873906026745e-03  3.7768519276545686e-04  2.0445290343343112e-03  1.1496077558141304e-03  2.4363764074410914e-04  1.3038298183195233e-03  1.0303946373311317e-03  4.4568248733738711e-04  1.7303203653368979e-03  2.5071342555636317e-03  8.3509833754502540e-04  8.1540241659767520e-04  6.6221972041253792e-04  2.9342358179328303e-03  2.4487477947824922e-03  4.0904761200958300e-03  3.8181057882264785e-03  4.3150358263536453e-03  2.5018879889021919e-03  2.1478779946968907e-03  7.1807032340689817e-04  5.9982025376745728e-04  4.4344641725767436e-03  3.0011931668325080e-03  4.3825232354851194e-03  9.4460200503622416e-03  1.4949412523232038e-03  3.0645393749019179e-03  5.4205489353060451e-03  3.0324144396146236e-03  3.5978606977395606e-03  1.1534237486318457e-02  1.5642239182751202e-02  1.6298290646248863e-02  1.2659023151521166e-02  6.6806061219588141e-03  1.6003643531656846e-03  4.7671180162980982e-03  3.8822616628465183e-03  4.8607699077879212e-03  3.0627819512736984e-03  1.3983734608771154e-03  1.6309963449341609e-03  5.8307306591225821e-04  1.0667062356968919e-03  7.5582786951425144e-04  5.8596385123228214e-04  1.2857130454335832e-04  1.0016163652791950e-03  3.3039560593265907e-04  6.3517119183513463e-05  1.4251335422039363e-05  1.8841712278604119e-06  2.0856531500321647e-06  2.5822141797505101e-06  2.6230385547824543e-06  2.3626379944687989e-06  2.0083506756234197e-06  1.6641173212064919e-06  1.3663137404565021e-06  1.1230919709115430e-06  9.2085285921371026e-07  7.7996431750732021e-07  6.3293679470953670e-07  4.4552679213917085e-07  4.0341677837651828e-07  4.4197226764514095e-07  5.0455390282180489e-07  6.8712949586208981e-07  9.0741422746850444e-07  8.7593247871156329e-07  3.1188938917993249e-07  2.0821469641137627e-07  2.5650266757065964e-07  1.9945265815365541e-08  1.1064008562722763e-07  3.1201218537846929e-07  5.8168745726262987e-07  5.8247296170620069e-07  3.9512509810400461e-07  2.1712962656043922e-07  9.2282043651659414e-08  9.1677557798741164e-09  4.2867828607652134e-08  7.2562768831904070e-08  8.7363261141306080e-08  9.2484084660172208e-08  9.0788060115795477e-08  8.3488042626765781e-08  7.1171063527973582e-08  5.4971332787026516e-08  3.7483194922107226e-08  2.1960678189391181e-08  5.1834208986757667e-09  -4.2244328232675957e-39  -3.7959110511702983e-20  1.6605549008150765e-04  4.4488834710140076e-05  3.9913641878060494e-04  4.0856088828638063e-04  9.1297835837679878e-04  5.6118143463412275e-04  1.8277805411959977e-03  3.7414023452085821e-04  5.6880943078896145e-04  9.8384222606062960e-04  1.3663671629186038e-03  1.5947544215826216e-03  3.9995979655431434e-03  2.0847487291325933e-03  1.8776261346724167e-04  1.0113884149273700e-03  2.7191860808525475e-03  3.9369242395418417e-03  1.7201017377359664e-03  2.5928077071518353e-03  1.5259156274786327e-04  1.4029371736602625e-03  3.1713399251703618e-03  3.7165997670742868e-04  2.0849003868973165e-03  5.5156417579987358e-03  6.8224289810283872e-03  7.4954252769378268e-03  4.4210244309616142e-04  7.3327971455916276e-03  4.6705381588490087e-03  7.8642119330231044e-03  5.8193315435271084e-03  4.7846370959979219e-03  6.2590553460328199e-03  4.1629696808286515e-04  9.5006271535361224e-03  1.7741177964856133e-02  1.9024570735626981e-02  1.8977872216267625e-02  1.1833135913691674e-02  9.4785100750209540e-04  3.0800483919001236e-03  7.5057274395152985e-03  1.6975113757219332e-03  3.0078991146069516e-03  3.0141140056444823e-03  5.3448073415044187e-04  4.4726522075616326e-04  5.8674486674496599e-04  2.4748631237493250e-04  1.1779931347941708e-03  3.9082043319052967e-04  1.0117048893727380e-03  8.9154998121217753e-04  7.6554929407960843e-05  4.5911578246720453e-05  5.5993545033322461e-06  2.5637244526873531e-06  3.1759631638581677e-06  3.4417740010108042e-06  3.2147733404031563e-06  2.7816348782424198e-06  2.3218104086960692e-06  1.9128495113655268e-06  1.5702655794615478e-06  1.2924842877205277e-06  1.0693755957001762e-06  9.1701349498671270e-07  6.7955809963666624e-07  5.1036088526091284e-07  5.5043484226915036e-07  5.8876001606429816e-07  7.3879148657828480e-07  1.0094761836264323e-06  1.2172274196346397e-06  8.0945991709008419e-07  1.4301071510429851e-08  3.6298421004574974e-07  1.4435472906376657e-07  1.1025702667177247e-07  2.3870243217569731e-07  5.9955935998063768e-07  7.8708464751290455e-07  6.0406000027028898e-07  3.5632725473963659e-07  1.7958674185196267e-07  5.9106315302066055e-08  2.1274366813141978e-08  7.0800012665832115e-08  9.8498710426089926e-08  1.1177814336912440e-07  1.1523978465134557e-07  1.1106542828332810e-07  1.0012554421070263e-07  8.3297640221642701e-08  6.2875580060622504e-08  4.2748147442734782e-08  2.4651504984185738e-08  6.1579503956486012e-24  -1.9220217578381522e-20  6.8381054382328477e-04  4.3545553395647758e-05  6.7345519059836358e-04  4.5937793880933850e-04  1.6529468021550018e-04  6.5395146196582220e-04  1.4832466419505037e-03  4.7398280211598167e-04  3.1933702477935691e-03  2.8735358964101102e-03  1.4041648270067377e-03  1.6352246966732102e-03  4.4010310253162632e-04  1.4191101228788301e-03  2.5883582988333880e-03  5.1982514474907641e-03  3.0232848268920130e-03  5.4111680646239197e-05  8.4600549589203299e-04  4.5541050505603217e-03  4.8422515814810765e-03  8.0417906715634455e-03  8.7846995480649649e-03  9.2088630476345346e-03  5.4815664027965680e-03  3.3467503508954172e-03  3.8273843617720165e-04  2.6693772648519487e-03  8.5946072109957319e-03  5.6008099536880365e-03  7.6904152241227307e-03  1.6512304936609861e-02  4.4395446420479349e-03  3.9753453804185100e-03  7.2703506053171350e-03  4.0709114449674040e-03  5.1413186417539935e-03  1.5469144385533854e-02  2.0157753979131218e-02  2.0234755642839702e-02  1.5685358756844181e-02  8.4662525982219898e-03  3.7653225634070074e-03  5.8666977080329879e-03  5.4749622507502755e-03  9.0535656458757535e-03  6.3090311847642157e-03  3.3140616047132696e-03  3.1341021867872386e-03  1.6293073661518252e-03  1.9997022178895661e-03  1.4189444856110647e-03  7.5458767559552747e-04  1.9443527905940115e-04  1.5336972854724047e-03  2.7022554685432064e-04  2.0409832854421964e-05  2.5486892270544176e-05  3.7120484518646016e-06  3.9584170787165979e-06  4.1148540970133687e-06  3.8874441880800294e-06  3.3913152488099870e-06  2.8427093200396998e-06  2.3424525045481973e-06  1.9209036499202150e-06  1.5801654421943493e-06  1.2948268022649562e-06  1.1005538934081168e-06  8.9976756954023310e-07  6.1825074074367206e-07  5.7027463824536922e-07  6.3093448603635044e-07  6.9298052103242255e-07  9.4361297478317122e-07  1.2531639509179209e-06  1.2300957513325659e-06  3.9167887776898932e-07  3.3038802062225364e-07  3.3201127742919461e-07  4.0242461860400843e-08  1.7659225578540841e-07  4.3075045902536788e-07  8.2121852596830682e-07  7.7656448945601294e-07  4.8879976115179938e-07  2.6612623358484026e-07  1.2203749539257393e-07  2.2460484103808132e-08  4.3182571149195797e-08  8.2607304564605558e-08  1.0392743483668067e-07  1.1315833040638389e-07  1.1358040075725603e-07  1.0656228790529171e-07  9.2868642103504827e-08  7.4116830738890352e-08  5.3631731715294294e-08  3.3886644654633956e-08  -2.0390471725019991e-24  -1.6319227817160955e-20  3.4624065889591596e-04  8.5449100178817866e-05  4.1280902115633990e-04  3.8208395694889314e-04  6.8869800288438572e-04  1.0563506604726837e-03  8.7812548027324771e-04  2.2668405962489794e-03  6.4471355555484623e-06  1.3267055425086468e-03  6.0847267926747439e-04  2.0546174715881252e-03  2.7606767053632033e-03  4.5917716540790571e-03  3.6078039790452829e-03  1.4318363301672953e-03  4.2991097628174922e-04  3.3749343287459246e-03  5.4653377794097223e-03  3.1447675284618426e-03  4.1998131434572801e-03  1.3352625266903504e-03  2.0507567198397818e-04  2.6264439794164065e-03  1.5120245510137132e-04  3.2982020613760436e-03  7.7942806228390978e-03  9.4961075337226010e-03  9.5916620809751232e-03  3.0017376685700231e-04  9.5284426958725504e-03  5.2675181830450753e-03  1.1397815789510041e-02  9.1035501673339819e-03  4.8618646589925971e-03  7.3679041800479112e-03  4.7846042231637084e-04  1.0692726695552076e-02  2.0028291404667078e-02  2.0749139381831139e-02  2.0906631299121226e-02  1.2121279026678370e-02  3.2583888600659384e-04  3.7590061164108472e-03  9.0355368048229065e-03  2.4979645130356228e-03  5.1295900357219782e-03  5.3923670511063122e-03  1.7904973951968074e-03  9.7722263742518905e-04  3.7806716634464866e-04  5.1957160704668400e-04  1.6656757208914914e-03  4.0436469076332674e-04  1.2840911839700959e-03  1.0728602015302421e-03  5.6854744512060775e-05  3.5412049159191982e-05  7.4076569828597141e-06  3.5234761442165987e-06  4.0987707077672808e-06  4.1523662455764632e-06  3.7813116253717503e-06  3.2498380732587861e-06  2.7168908520217679e-06  2.2495093454869518e-06  1.8568349483807122e-06  1.5358378774814324e-06  1.2741520282358049e-06  1.1023098041019910e-06  8.0904428765262315e-07  5.9902092867983892e-07  6.6325054149738962e-07  6.9526082604547193e-07  8.6286859757836515e-07  1.1944382960344850e-06  1.4554774602099020e-06  9.4379581061120025e-07  9.3088898150978694e-08  4.7643209557206087e-07  1.5495837846440908e-07  1.5855409380416784e-07  2.6901498456567102e-07  7.0456084229091679e-07  9.1998285104040445e-07  6.6237882345028404e-07  3.6756847258464206e-07  1.8595764553405339e-07  6.6526610463744476e-08  1.5730654754249943e-08  6.7933173606635847e-08  9.7924984699824054e-08  1.1295350462188599e-07  1.1761874998575288e-07  1.1407537114969021e-07  1.0321274861697222e-07  8.6037390051918663e-08  6.4759860105835034e-08  4.0587142536934738e-08  1.0138675533355806e-23  1.9560225997682864e-35  6.3878846984365199e-04  9.6248802633151667e-04  2.8222695098295476e-05  7.1720387250400212e-04  8.0966158656277896e-04  3.0472294135457665e-04  9.2106490046386870e-04  1.8445342049739793e-03  7.9361529684625592e-04  3.4898297681112255e-03  3.4888375844964611e-03  2.1425250609692255e-03  1.3633810954545070e-03  3.6355717810994799e-04  2.3362777519545844e-03  2.3662205639795450e-03  6.2325107329276423e-03  3.9977481322936012e-03  4.3950426612090690e-04  6.2355928355212382e-04  4.8832846942944482e-03  5.2340386249623699e-03  9.0325672525445912e-03  1.0569756129654074e-02  1.1387525983781902e-02  6.7626461627641101e-03  3.5841320426110174e-03  1.0398309007286941e-05  3.7572222728637964e-03  1.0923154818092638e-02  7.2648637174178039e-03  9.2395396294359857e-03  1.9769209234542933e-02  5.0004181669726531e-03  5.1354365310229072e-03  8.1744721495992829e-03  4.6956300557891677e-03  5.9944063699598439e-03  1.7391586973221941e-02  2.2188988213174280e-02  2.1757270719337488e-02  1.7159244189589543e-02  8.8064715847995505e-03  5.2753716548865790e-03  6.6729835289889468e-03  6.0994300821734081e-03  1.0875896836300029e-02  7.3129585561911223e-03  3.6175775860064849e-03  3.4883532138445389e-03  1.9266406171252887e-03  2.3318739849533211e-03  1.6706230166865063e-03  9.4973781905441671e-04  2.7834289949541316e-04  1.8432463792855641e-03  2.4730529921945414e-04  3.5853041500706751e-05  2.4745413170823311e-05  2.9794552999547672e-06  3.5316446299755488e-06  3.8922221620235478e-06  3.8184023091477424e-06  3.4402054457616100e-06  2.9681106227251684e-06  2.5086423271562601e-06  2.1023334105620924e-06  1.7605805926585222e-06  1.4626499069011604e-06  1.2612228280489101e-06  1.0374491533844345e-06  7.0691045748443168e-07  6.6601708457524177e-07  7.4423087849185329e-07  8.0681550609856718e-07  1.1110971565776234e-06  1.4870309648249264e-06  1.4395572884000253e-06  4.0498608087768431e-07  4.4947293832689662e-07  4.0480465523243778e-07  6.3121842897717384e-08  2.1194314837194047e-07  4.9725702294315207e-07  9.4946889376136107e-07  8.7023807456823998e-07  5.1810349815260976e-07  2.7139087057015876e-07  1.2330165784302955e-07  2.0685656458938670e-08  4.8384653357208562e-08  9.0416821556182513e-08  1.1340621273049910e-07  1.2358191108381695e-07  1.2434416426944193e-07  1.1711297428870159e-07  1.0267202897301453e-07  8.2050066744405732e-08  5.4044001475776052e-08  -3.0000447390641583e-24  0.0000000000000000e+00  6.2608072150192368e-06  4.7044135195142513e-04  1.9006884592654119e-04  5.8792285336106438e-04  5.1562243234409941e-04  6.9755708376361076e-04  1.1031588288826332e-03  1.2131157641512829e-03  2.4249910290724099e-03  5.3993630053850946e-05  1.5490202274848772e-03  4.3000173157572844e-04  2.2320317687728247e-03  3.5968083348465350e-03  4.7572607374290312e-03  4.2387431188556628e-03  1.7795301467858700e-03  3.5601241302347827e-04  3.7650163096286772e-03  6.0291671882025839e-03  3.2453692059145290e-03  4.2986917476166642e-03  1.2396824327237986e-03  2.5680066136731438e-04  2.9058746128167189e-03  1.2383450855383703e-04  3.3209227873913587e-03  8.5724416543582291e-03  1.0610173456982598e-02  1.0530699862733800e-02  1.4786891566529007e-04  1.0981307636074666e-02  6.3527953555445743e-03  1.2549654899232366e-02  1.0462965592015433e-02  5.5404312447785813e-03  7.8973376133583545e-03  6.8785650920985867e-04  1.2061325058232843e-02  2.2247195778465890e-02  2.2871181237423124e-02  2.2536224417416695e-02  1.2606349513898683e-02  9.1455698291323078e-05  4.5108475212417287e-03  1.0128169657397738e-02  3.2559762402584757e-03  5.7372337960908404e-03  6.1731732961768440e-03  1.8603762071207465e-03  9.1479588549643685e-04  5.2481954874708460e-04  5.1981566919924059e-04  1.9052066188472276e-03  4.4420881235075174e-04  1.5481925009488060e-03  1.1885937791279379e-03  1.1169949593264513e-04  2.2627151074923522e-05  1.0121400911478879e-05  4.0294393262840860e-06  4.0997605648709318e-06  4.0076236047630361e-06  3.6774949886966054e-06  3.2302824590892678e-06  2.7702846584088188e-06  2.3515960449159023e-06  1.9853161928060113e-06  1.6728088985582633e-06  1.4127729991978500e-06  1.2393319953521921e-06  9.0662828898239553e-07  6.8318403850841828e-07  7.7765115250168907e-07  8.1488940687340895e-07  1.0163595946867452e-06  1.4243913164902232e-06  1.7143924529777648e-06  1.0549406330711931e-06  1.7299637312788175e-07  5.8059082382345839e-07  1.6634889832653173e-07  1.9834294985483845e-07  3.2766020655128892e-07  8.2654289101427017e-07  1.0436323924267556e-06  7.2326969745097549e-07  3.8822995284184838e-07  1.9554033708102309e-07  7.0738465594174224e-08  1.7522247927360634e-08  7.5035165373111753e-08  1.0891073511697985e-07  1.2657540309140035e-07  1.3294401509349561e-07  1.3039111847699961e-07  1.1985994149090529e-07  1.0141841221609628e-07  7.0840500670833331e-08  -3.9324377460366322e-24  -2.0914152027701058e-20  3.0278383144898918e-04  5.7258616753186006e-04  9.0526402933868895e-04  1.9235533279981165e-04  8.4077271848800417e-04  1.1803985809305155e-03  1.7014579318475206e-04  1.1537303286712046e-03  2.1862200309175376e-03  1.0443205923136303e-03  3.8024686174714015e-03  3.9524124980537629e-03  2.4535649645353176e-03  1.4586137448205673e-03  4.5178168704333407e-04  2.7190555793182086e-03  2.5496731964053882e-03  7.2419557893405075e-03  4.3599971951012251e-03  3.0726514234749431e-05  1.2411440574770967e-03  5.7521602530995145e-03  5.7244328451467865e-03  9.5137234422962239e-03  1.1210658221892445e-02  1.2324786552310061e-02  7.3393547270213678e-03  3.9537007134083759e-03  6.7094584076322417e-04  2.8937030310923423e-03  1.1350994102715495e-02  8.5630805924299148e-03  9.5439531387590745e-03  2.1941898545024159e-02  5.8454234011373436e-03  5.9418500632545121e-03  9.2356195667353830e-03  4.7395245377669527e-03  7.3031059649883495e-03  1.9576232163117314e-02  2.4151291798403491e-02  2.3583537792635889e-02  1.8477384883570019e-02  8.8275631121426910e-03  6.3489606429193582e-03  7.7733502462071155e-03  5.7235133044775295e-03  1.1824081351417187e-02  8.2363216414439878e-03  4.0000163615526137e-03  3.8204579243027717e-03  2.0079043293307936e-03  2.4649174461622483e-03  1.8680583355241678e-03  1.0705789817484421e-03  4.2528499130435360e-04  2.0874994344617192e-03  2.2570364300760889e-04  6.1961499239661708e-05  2.1513221267751262e-05  5.5176215806691419e-06  4.7356902609899546e-06  4.5560586003070724e-06  4.1853767037338571e-06  3.6847629979602810e-06  3.1679038488940701e-06  2.6927621069180362e-06  2.2778506585697976e-06  1.9277804555036500e-06  1.6171681639260569e-06  1.4136267379632289e-06  1.1596891132407239e-06  7.9017407122971791e-07  7.7290884983515835e-07  8.7028651980916016e-07  9.4798993627118680e-07  1.3220087910376864e-06  1.7735116772037518e-06  1.6494462790441697e-06  3.8819401782199433e-07  5.7313935930937446e-07  4.6367202871522702e-07  9.2875244794909029e-08  2.6285661003053167e-07  6.0797635187170714e-07  1.0964692793357726e-06  9.6442377042022476e-07  5.5605313363609346e-07  2.8804701779948493e-07  1.3316153718721583e-07  2.4696382023963145e-08  5.0400690202280080e-08  9.7591884753765601e-08  1.2463617259294672e-07  1.3795172461199271e-07  1.4114708605059509e-07  1.3564176519717168e-07  1.2083515513855055e-07  8.9064809957838666e-08  -1.2360225337382055e-23  -2.5578757073892976e-35  5.0629058225572189e-04  2.3104927419425261e-04  5.2857244453963519e-04  2.5428582658571414e-04  6.4731025228393301e-04  7.1323288972212589e-04  6.4831265791374742e-04  1.0901490194232079e-03  1.6711884970098559e-03  2.3877856631157358e-03  1.9037361446134010e-04  1.4455971924781466e-03  7.5326223856650042e-04  2.6080043521002809e-03  4.4003790436271794e-03  5.0191111419091031