<?xml version="1.0"?>
<VTKFile type="UnstructuredGrid"  version="0.1"  >
<UnstructuredGrid>
<Piece  NumberOfPoints="10201" NumberOfCells="20000">
<Points>
<DataArray  type="Float64"  NumberOfComponents="3"  format="ascii">0 0 0  0.01 0 0  0.02 0 0  0.03 0 0  0.04 0 0  0.05 0 0  0.06 0 0  0.07000000000000001 0 0  0.08 0 0  0.09 0 0  0.1 0 0  0.11 0 0  0.12 0 0  0.13 0 0  0.14 0 0  0.15 0 0  0.16 0 0  0.17 0 0  0.18 0 0  0.19 0 0  0.2 0 0  0.21 0 0  0.22 0 0  0.23 0 0  0.24 0 0  0.25 0 0  0.26 0 0  0.27 0 0  0.28 0 0  0.29 0 0  0.3 0 0  0.31 0 0  0.32 0 0  0.33 0 0  0.34 0 0  0.35 0 0  0.36 0 0  0.37 0 0  0.38 0 0  0.39 0 0  0.4 0 0  0.41 0 0  0.42 0 0  0.43 0 0  0.44 0 0  0.45 0 0  0.46 0 0  0.47 0 0  0.48 0 0  0.49 0 0  0.5 0 0  0.51 0 0  0.52 0 0  0.53 0 0  0.54 0 0  0.55 0 0  0.5600000000000001 0 0  0.57 0 0  0.58 0 0  0.59 0 0  0.6 0 0  0.61 0 0  0.62 0 0  0.63 0 0  0.64 0 0  0.65 0 0  0.66 0 0  0.67 0 0  0.68 0 0  0.6899999999999999 0 0  0.7 0 0  0.71 0 0  0.72 0 0  0.73 0 0  0.74 0 0  0.75 0 0  0.76 0 0  0.77 0 0  0.78 0 0  0.79 0 0  0.8 0 0  0.8100000000000001 0 0  0.82 0 0  0.83 0 0  0.84 0 0  0.85 0 0  0.86 0 0  0.87 0 0  0.88 0 0  0.89 0 0  0.9 0 0  0.91 0 0  0.92 0 0  0.93 0 0  0.9399999999999999 0 0  0.95 0 0  0.96 0 0  0.97 0 0  0.98 0 0  0.99 0 0  1 0 0  0 0.01 0  0.01 0.01 0  0.02 0.01 0  0.03 0.01 0  0.04 0.01 0  0.05 0.01 0  0.06 0.01 0  0.07000000000000001 0.01 0  0.08 0.01 0  0.09 0.01 0  0.1 0.01 0  0.11 0.01 0  0.12 0.01 0  0.13 0.01 0  0.14 0.01 0  0.15 0.01 0  0.16 0.01 0  0.17 0.01 0  0.18 0.01 0  0.19 0.01 0  0.2 0.01 0  0.21 0.01 0  0.22 0.01 0  0.23 0.01 0  0.24 0.01 0  0.25 0.01 0  0.26 0.01 0  0.27 0.01 0  0.28 0.01 0  0.29 0.01 0  0.3 0.01 0  0.31 0.01 0  0.32 0.01 0  0.33 0.01 0  0.34 0.01 0  0.35 0.01 0  0.36 0.01 0  0.37 0.01 0  0.38 0.01 0  0.39 0.01 0  0.4 0.01 0  0.41 0.01 0  0.42 0.01 0  0.43 0.01 0  0.44 0.01 0  0.45 0.01 0  0.46 0.01 0  0.47 0.01 0  0.48 0.01 0  0.49 0.01 0  0.5 0.01 0  0.51 0.01 0  0.52 0.01 0  0.53 0.01 0  0.54 0.01 0  0.55 0.01 0  0.5600000000000001 0.01 0  0.57 0.01 0  0.58 0.01 0  0.59 0.01 0  0.6 0.01 0  0.61 0.01 0  0.62 0.01 0  0.63 0.01 0  0.64 0.01 0  0.65 0.01 0  0.66 0.01 0  0.67 0.01 0  0.68 0.01 0  0.6899999999999999 0.01 0  0.7 0.01 0  0.71 0.01 0  0.72 0.01 0  0.73 0.01 0  0.74 0.01 0  0.75 0.01 0  0.76 0.01 0  0.77 0.01 0  0.78 0.01 0  0.79 0.01 0  0.8 0.01 0  0.8100000000000001 0.01 0  0.82 0.01 0  0.83 0.01 0  0.84 0.01 0  0.85 0.01 0  0.86 0.01 0  0.87 0.01 0  0.88 0.01 0  0.89 0.01 0  0.9 0.01 0  0.91 0.01 0  0.92 0.01 0  0.93 0.01 0  0.9399999999999999 0.01 0  0.95 0.01 0  0.96 0.01 0  0.97 0.01 0  0.98 0.01 0  0.99 0.01 0  1 0.01 0  0 0.02 0  0.01 0.02 0  0.02 0.02 0  0.03 0.02 0  0.04 0.02 0  0.05 0.02 0  0.06 0.02 0  0.07000000000000001 0.02 0  0.08 0.02 0  0.09 0.02 0  0.1 0.02 0  0.11 0.02 0  0.12 0.02 0  0.13 0.02 0  0.14 0.02 0  0.15 0.02 0  0.16 0.02 0  0.17 0.02 0  0.18 0.02 0  0.19 0.02 0  0.2 0.02 0  0.21 0.02 0  0.22 0.02 0  0.23 0.02 0  0.24 0.02 0  0.25 0.02 0  0.26 0.02 0  0.27 0.02 0  0.28 0.02 0  0.29 0.02 0  0.3 0.02 0  0.31 0.02 0  0.32 0.02 0  0.33 0.02 0  0.34 0.02 0  0.35 0.02 0  0.36 0.02 0  0.37 0.02 0  0.38 0.02 0  0.39 0.02 0  0.4 0.02 0  0.41 0.02 0  0.42 0.02 0  0.43 0.02 0  0.44 0.02 0  0.45 0.02 0  0.46 0.02 0  0.47 0.02 0  0.48 0.02 0  0.49 0.02 0  0.5 0.02 0  0.51 0.02 0  0.52 0.02 0  0.53 0.02 0  0.54 0.02 0  0.55 0.02 0  0.5600000000000001 0.02 0  0.57 0.02 0  0.58 0.02 0  0.59 0.02 0  0.6 0.02 0  0.61 0.02 0  0.62 0.02 0  0.63 0.02 0  0.64 0.02 0  0.65 0.02 0  0.66 0.02 0  0.67 0.02 0  0.68 0.02 0  0.6899999999999999 0.02 0  0.7 0.02 0  0.71 0.02 0  0.72 0.02 0  0.73 0.02 0  0.74 0.02 0  0.75 0.02 0  0.76 0.02 0  0.77 0.02 0  0.78 0.02 0  0.79 0.02 0  0.8 0.02 0  0.8100000000000001 0.02 0  0.82 0.02 0  0.83 0.02 0  0.84 0.02 0  0.85 0.02 0  0.86 0.02 0  0.87 0.02 0  0.88 0.02 0  0.89 0.02 0  0.9 0.02 0  0.91 0.02 0  0.92 0.02 0  0.93 0.02 0  0.9399999999999999 0.02 0  0.95 0.02 0  0.96 0.02 0  0.97 0.02 0  0.98 0.02 0  0.99 0.02 0  1 0.02 0  0 0.03 0  0.01 0.03 0  0.02 0.03 0  0.03 0.03 0  0.04 0.03 0  0.05 0.03 0  0.06 0.03 0  0.07000000000000001 0.03 0  0.08 0.03 0  0.09 0.03 0  0.1 0.03 0  0.11 0.03 0  0.12 0.03 0  0.13 0.03 0  0.14 0.03 0  0.15 0.03 0  0.16 0.03 0  0.17 0.03 0  0.18 0.03 0  0.19 0.03 0  0.2 0.03 0  0.21 0.03 0  0.22 0.03 0  0.23 0.03 0  0.24 0.03 0  0.25 0.03 0  0.26 0.03 0  0.27 0.03 0  0.28 0.03 0  0.29 0.03 0  0.3 0.03 0  0.31 0.03 0  0.32 0.03 0  0.33 0.03 0  0.34 0.03 0  0.35 0.03 0  0.36 0.03 0  0.37 0.03 0  0.38 0.03 0  0.39 0.03 0  0.4 0.03 0  0.41 0.03 0  0.42 0.03 0  0.43 0.03 0  0.44 0.03 0  0.45 0.03 0  0.46 0.03 0  0.47 0.03 0  0.48 0.03 0  0.49 0.03 0  0.5 0.03 0  0.51 0.03 0  0.52 0.03 0  0.53 0.03 0  0.54 0.03 0  0.55 0.03 0  0.5600000000000001 0.03 0  0.57 0.03 0  0.58 0.03 0  0.59 0.03 0  0.6 0.03 0  0.61 0.03 0  0.62 0.03 0  0.63 0.03 0  0.64 0.03 0  0.65 0.03 0  0.66 0.03 0  0.67 0.03 0  0.68 0.03 0  0.6899999999999999 0.03 0  0.7 0.03 0  0.71 0.03 0  0.72 0.03 0  0.73 0.03 0  0.74 0.03 0  0.75 0.03 0  0.76 0.03 0  0.77 0.03 0  0.78 0.03 0  0.79 0.03 0  0.8 0.03 0  0.8100000000000001 0.03 0  0.82 0.03 0  0.83 0.03 0  0.84 0.03 0  0.85 0.03 0  0.86 0.03 0  0.87 0.03 0  0.88 0.03 0  0.89 0.03 0  0.9 0.03 0  0.91 0.03 0  0.92 0.03 0  0.93 0.03 0  0.9399999999999999 0.03 0  0.95 0.03 0  0.96 0.03 0  0.97 0.03 0  0.98 0.03 0  0.99 0.03 0  1 0.03 0  0 0.04 0  0.01 0.04 0  0.02 0.04 0  0.03 0.04 0  0.04 0.04 0  0.05 0.04 0  0.06 0.04 0  0.07000000000000001 0.04 0  0.08 0.04 0  0.09 0.04 0  0.1 0.04 0  0.11 0.04 0  0.12 0.04 0  0.13 0.04 0  0.14 0.04 0  0.15 0.04 0  0.16 0.04 0  0.17 0.04 0  0.18 0.04 0  0.19 0.04 0  0.2 0.04 0  0.21 0.04 0  0.22 0.04 0  0.23 0.04 0  0.24 0.04 0  0.25 0.04 0  0.26 0.04 0  0.27 0.04 0  0.28 0.04 0  0.29 0.04 0  0.3 0.04 0  0.31 0.04 0  0.32 0.04 0  0.33 0.04 0  0.34 0.04 0  0.35 0.04 0  0.36 0.04 0  0.37 0.04 0  0.38 0.04 0  0.39 0.04 0  0.4 0.04 0  0.41 0.04 0  0.42 0.04 0  0.43 0.04 0  0.44 0.04 0  0.45 0.04 0  0.46 0.04 0  0.47 0.04 0  0.48 0.04 0  0.49 0.04 0  0.5 0.04 0  0.51 0.04 0  0.52 0.04 0  0.53 0.04 0  0.54 0.04 0  0.55 0.04 0  0.5600000000000001 0.04 0  0.57 0.04 0  0.58 0.04 0  0.59 0.04 0  0.6 0.04 0  0.61 0.04 0  0.62 0.04 0  0.63 0.04 0  0.64 0.04 0  0.65 0.04 0  0.66 0.04 0  0.67 0.04 0  0.68 0.04 0  0.6899999999999999 0.04 0  0.7 0.04 0  0.71 0.04 0  0.72 0.04 0  0.73 0.04 0  0.74 0.04 0  0.75 0.04 0  0.76 0.04 0  0.77 0.04 0  0.78 0.04 0  0.79 0.04 0  0.8 0.04 0  0.8100000000000001 0.04 0  0.82 0.04 0  0.83 0.04 0  0.84 0.04 0  0.85 0.04 0  0.86 0.04 0  0.87 0.04 0  0.88 0.04 0  0.89 0.04 0  0.9 0.04 0  0.91 0.04 0  0.92 0.04 0  0.93 0.04 0  0.9399999999999999 0.04 0  0.95 0.04 0  0.96 0.04 0  0.97 0.04 0  0.98 0.04 0  0.99 0.04 0  1 0.04 0  0 0.05 0  0.01 0.05 0  0.02 0.05 0  0.03 0.05 0  0.04 0.05 0  0.05 0.05 0  0.06 0.05 0  0.07000000000000001 0.05 0  0.08 0.05 0  0.09 0.05 0  0.1 0.05 0  0.11 0.05 0  0.12 0.05 0  0.13 0.05 0  0.14 0.05 0  0.15 0.05 0  0.16 0.05 0  0.17 0.05 0  0.18 0.05 0  0.19 0.05 0  0.2 0.05 0  0.21 0.05 0  0.22 0.05 0  0.23 0.05 0  0.24 0.05 0  0.25 0.05 0  0.26 0.05 0  0.27 0.05 0  0.28 0.05 0  0.29 0.05 0  0.3 0.05 0  0.31 0.05 0  0.32 0.05 0  0.33 0.05 0  0.34 0.05 0  0.35 0.05 0  0.36 0.05 0  0.37 0.05 0  0.38 0.05 0  0.39 0.05 0  0.4 0.05 0  0.41 0.05 0  0.42 0.05 0  0.43 0.05 0  0.44 0.05 0  0.45 0.05 0  0.46 0.05 0  0.47 0.05 0  0.48 0.05 0  0.49 0.05 0  0.5 0.05 0  0.51 0.05 0  0.52 0.05 0  0.53 0.05 0  0.54 0.05 0  0.55 0.05 0  0.5600000000000001 0.05 0  0.57 0.05 0  0.58 0.05 0  0.59 0.05 0  0.6 0.05 0  0.61 0.05 0  0.62 0.05 0  0.63 0.05 0  0.64 0.05 0  0.65 0.05 0  0.66 0.05 0  0.67 0.05 0  0.68 0.05 0  0.6899999999999999 0.05 0  0.7 0.05 0  0.71 0.05 0  0.72 0.05 0  0.73 0.05 0  0.74 0.05 0  0.75 0.05 0  0.76 0.05 0  0.77 0.05 0  0.78 0.05 0  0.79 0.05 0  0.8 0.05 0  0.8100000000000001 0.05 0  0.82 0.05 0  0.83 0.05 0  0.84 0.05 0  0.85 0.05 0  0.86 0.05 0  0.87 0.05 0  0.88 0.05 0  0.89 0.05 0  0.9 0.05 0  0.91 0.05 0  0.92 0.05 0  0.93 0.05 0  0.9399999999999999 0.05 0  0.95 0.05 0  0.96 0.05 0  0.97 0.05 0  0.98 0.05 0  0.99 0.05 0  1 0.05 0  0 0.06 0  0.01 0.06 0  0.02 0.06 0  0.03 0.06 0  0.04 0.06 0  0.05 0.06 0  0.06 0.06 0  0.07000000000000001 0.06 0  0.08 0.06 0  0.09 0.06 0  0.1 0.06 0  0.11 0.06 0  0.12 0.06 0  0.13 0.06 0  0.14 0.06 0  0.15 0.06 0  0.16 0.06 0  0.17 0.06 0  0.18 0.06 0  0.19 0.06 0  0.2 0.06 0  0.21 0.06 0  0.22 0.06 0  0.23 0.06 0  0.24 0.06 0  0.25 0.06 0  0.26 0.06 0  0.27 0.06 0  0.28 0.06 0  0.29 0.06 0  0.3 0.06 0  0.31 0.06 0  0.32 0.06 0  0.33 0.06 0  0.34 0.06 0  0.35 0.06 0  0.36 0.06 0  0.37 0.06 0  0.38 0.06 0  0.39 0.06 0  0.4 0.06 0  0.41 0.06 0  0.42 0.06 0  0.43 0.06 0  0.44 0.06 0  0.45 0.06 0  0.46 0.06 0  0.47 0.06 0  0.48 0.06 0  0.49 0.06 0  0.5 0.06 0  0.51 0.06 0  0.52 0.06 0  0.53 0.06 0  0.54 0.06 0  0.55 0.06 0  0.5600000000000001 0.06 0  0.57 0.06 0  0.58 0.06 0  0.59 0.06 0  0.6 0.06 0  0.61 0.06 0  0.62 0.06 0  0.63 0.06 0  0.64 0.06 0  0.65 0.06 0  0.66 0.06 0  0.67 0.06 0  0.68 0.06 0  0.6899999999999999 0.06 0  0.7 0.06 0  0.71 0.06 0  0.72 0.06 0  0.73 0.06 0  0.74 0.06 0  0.75 0.06 0  0.76 0.06 0  0.77 0.06 0  0.78 0.06 0  0.79 0.06 0  0.8 0.06 0  0.8100000000000001 0.06 0  0.82 0.06 0  0.83 0.06 0  0.84 0.06 0  0.85 0.06 0  0.86 0.06 0  0.87 0.06 0  0.88 0.06 0  0.89 0.06 0  0.9 0.06 0  0.91 0.06 0  0.92 0.06 0  0.93 0.06 0  0.9399999999999999 0.06 0  0.95 0.06 0  0.96 0.06 0  0.97 0.06 0  0.98 0.06 0  0.99 0.06 0  1 0.06 0  0 0.07000000000000001 0  0.01 0.07000000000000001 0  0.02 0.07000000000000001 0  0.03 0.07000000000000001 0  0.04 0.07000000000000001 0  0.05 0.07000000000000001 0  0.06 0.07000000000000001 0  0.07000000000000001 0.07000000000000001 0  0.08 0.07000000000000001 0  0.09 0.07000000000000001 0  0.1 0.07000000000000001 0  0.11 0.07000000000000001 0  0.12 0.07000000000000001 0  0.13 0.07000000000000001 0  0.14 0.07000000000000001 0  0.15 0.07000000000000001 0  0.16 0.07000000000000001 0  0.17 0.0700
[...]
<PointData  Scalars="Indicator Function"> 
<DataArray  type="Float64"  Name="Indicator Function"  format="ascii">-5.0208790867290518e-19  8.0603547708301195e-19  3.3574259070863509e-17  1.5622142669577658e-18  8.4001781873336905e-17  -1.8134454278056646e-19  -6.5224202956606048e-19  4.2081180696769870e-17  1.8227550408792106e-16  -2.3787781371846640e-19  5.6632524250751483e-17  4.2857192009368066e-17  -3.3960371056287101e-19  -4.7844984354725771e-19  5.1408121921750435e-16  -1.9259299443872359e-34  -1.5585947020276639e-18  4.3625469056520788e-16  -8.9296393620826836e-19  -1.2933296561531274e-18  9.8417152890530926e-16  -2.4097398890103568e-18  -9.0199062461052116e-19  4.4197540605916180e-17  -3.8394420786513523e-19  -1.0220807143522255e-18  -7.6079169424777939e-19  -1.5209013742990501e-18  1.1172464018641819e-15  -2.9365454728670181e-18  -4.2289406674316790e-18  -2.1144703337158399e-18  -2.1178801266143896e-18  -2.3384844711564336e-18  9.8834970647595800e-17  -1.2117394182995144e-18  -4.2755910713275708e-18  -6.4982424671560858e-18  -5.7968319957729532e-18  -7.0931053445081239e-18  5.3903617207052980e-16  -1.0398773741359025e-18  -1.7941646494718071e-18  -3.4265130047996979e-18  -2.3599824656672764e-18  -1.1799912328336043e-18  1.7440391826995439e-16  -1.1651305772491989e-18  -2.2429809087194499e-19  -7.5063506380416783e-19  -3.7531753190208411e-19  -7.9981530457793264e-19  -2.7122934223433630e-19  -1.0841284411624631e-18  -6.4660925410719583e-19  -1.3084440259747918e-19  2.5626015979617961e-17  -4.3159841823305146e-20  -4.9392648904469706e-20  -1.6774415180124350e-19  -2.1168030375273158e-21  -8.9598878623969543e-20  -1.3783230629250616e-19  -7.4127427768741086e-20  -6.4798037414740944e-20  -1.2795956762980763e-19  -3.0146659491583182e-20  -3.3894079302762135e-20  4.2565226106628084e-17  -1.1983364488068806e-19  -9.3912091909658515e-21  -2.1072837983990546e-22  -1.5046327690525280e-36  -7.6303972762316846e-20  -2.1561557988951940e-19  -1.7636798927698873e-19  -5.5789109265279694e-20  -1.4562397269113061e-19  -1.0779238720431714e-19  -3.1836981313386846e-20  -3.3864010736658925e-20  4.7176772267796363e-17  -2.1506416101201239e-20  -1.5614795110506989e-19  -1.1697578073996951e-19  -6.1480358613294119e-20  2.4074124304840448e-35  -2.6371554122816654e-20  -6.6751799224420552e-20  -1.0695001250426401e-20  -1.1761626354633546e-20  0.0000000000000000e+00  -2.3315322527394053e-20  2.8750656737804489e-17  -1.4240004835325430e-20  -6.6459834752430610e-21  -3.5727236039680593e-21  -3.4071170307816378e-21  -4.0867868861106067e-21  7.5231638452626401e-37  4.5138983071575840e-36  -1.9259299443872359e-34  1.7660487071733150e-02  3.6721145568677359e-02  8.1008175422395742e-03  7.5784037008704954e-03  1.4156074709995776e-03  5.3859521364341724e-03  9.0567717770192666e-03  3.8651351768616678e-02  3.1612320392985324e-02  4.2852257328887602e-03  4.3028798114414832e-02  1.2235513154756671e-02  1.7237972296918629e-02  6.1446175498732292e-03  6.5566886435476882e-02  3.2488701691317991e-02  1.1832795231434665e-02  3.2172416402902783e-02  4.6597111660146927e-02  1.8332175420919267e-02  6.2320272859833048e-02  4.3410014664827454e-02  1.6248818563550701e-02  1.3833047931779863e-02  3.6824338594394011e-02  2.7410409525766958e-02  7.3771799371114685e-03  2.3709533481686019e-02  2.1335299835103811e-02  4.2232450471889768e-02  7.6181822456068984e-02  1.8733755290685290e-02  2.8785458950801125e-02  5.9313460298708834e-02  4.2086033950270316e-02  2.1828756770895331e-02  9.7165444446522198e-02  1.5260665158583314e-01  1.5405900636299014e-01  1.1885636117044093e-01  5.8538544524277911e-02  1.8732765418677830e-02  6.0659717898625599e-02  3.9334043823234577e-02  4.2513664611920202e-02  3.1837173580836438e-02  9.6680025836056640e-03  2.2510121488635307e-02  4.0405951938832169e-03  1.3522239174558717e-02  9.2722494274031526e-03  9.7720669169480100e-03  4.1399943531735435e-03  1.7459924597977333e-02  7.2256896860087537e-03  2.3570832111261160e-03  1.5549971804224520e-03  1.7795577216080901e-03  2.5838191094841429e-03  1.7299004434405689e-03  3.8132933484099013e-05  3.2143874320383517e-03  8.7577237701501039e-04  1.3353610243089428e-03  2.0738361226893716e-03  2.0539583628310432e-03  4.6917282530889893e-04  3.7599503901749709e-04  1.2320819061166553e-03  1.5426900806661318e-03  1.7783082800836800e-04  3.7961450116934577e-06  6.6948504858288765e-04  2.6511609579554793e-03  4.0825571617218578e-03  1.8607496381022116e-03  1.0050072467937823e-03  2.5441924294284366e-03  2.0084784793134719e-03  1.2200795690791265e-03  1.0715737705107847e-04  7.7485030031555823e-04  1.1550915908936101e-03  2.4910697562585001e-03  2.0588364992759861e-03  1.1438242289517799e-03  2.3783524260502666e-04  8.8666177933162664e-04  7.5916262278782887e-04  8.5180467090442992e-05  1.6928839072677298e-04  1.3042330097153983e-04  4.3339016543267333e-04  2.6927144175466867e-04  2.6608547883584234e-04  1.4895842980107779e-04  7.5485304337993115e-06  1.1044139987588588e-04  7.4666380065262485e-05  2.8566996689895033e-23  -1.0078713320747434e-18  3.8633308647559889e-03  7.4135410727606647e-03  1.9803241214602029e-03  9.4836826891997964e-03  3.3638711396153265e-02  3.5188138446120253e-03  3.0584354744707661e-02  3.6655749818447934e-03  1.1245956465628242e-02  3.6425605095437276e-02  3.1949820247617118e-02  2.4986331916968654e-02  6.9097643424416350e-02  6.4703340214447083e-02  4.8508680989899633e-02  4.1876267364794649e-03  8.0064157146990542e-02  1.8824987360476858e-02  1.5652552033468242e-02  2.5647748915029349e-02  4.2662343642144947e-02  3.1269506335809640e-02  3.4393275380333446e-02  2.2977579448125177e-02  2.7167856998222117e-03  3.6706970448333216e-02  4.5136420557891001e-02  6.1354796770696093e-02  1.6750086333010776e-02  7.1379689709640537e-02  5.3570672016390784e-02  5.2780198632670208e-02  4.4524822366151261e-02  5.8912337915279764e-02  6.2504176362027444e-02  2.2423002522853875e-03  7.3850086882216573e-02  1.4291054173415912e-01  1.6529007146940580e-01  1.8133787370756380e-01  9.9237760514861592e-02  1.1736646278548231e-02  3.2901005275089497e-02  7.0522422976534438e-02  1.3054633842956635e-02  1.0378121367257508e-02  9.8428242795817363e-03  2.3198631779214326e-02  7.9322846082321291e-03  1.8986181681769871e-02  4.2393941087362878e-03  9.9771006546679700e-03  8.0943303898729970e-03  2.0100943529038726e-02  1.2238068287866452e-02  4.4138618823916843e-05  3.9482423587517513e-04  8.8978972794876950e-04  1.7357861209476974e-03  5.3103466907570285e-03  1.8215456220798097e-03  2.7694508712875188e-03  3.0776541183811352e-03  1.5276622232825211e-03  1.4379132837745595e-03  3.0207315654243437e-03  5.6729998219649900e-04  1.0273362071290188e-03  8.2774630753024733e-04  1.9449520609195710e-03  7.2017896020213170e-04  1.0652092435222337e-04  1.1851300767993705e-05  1.9242895217909020e-03  4.2345483398190031e-03  3.6270336589781915e-03  6.1653096605369714e-06  2.3180120092744626e-03  2.5847711722377141e-03  1.6205131232765221e-03  7.8302520431610030e-04  1.1140080184215383e-03  2.2643489461693852e-04  2.4252150424966847e-03  2.5026483500843501e-03  1.8070068554022951e-03  2.7737136671389780e-04  7.3055681223471659e-04  1.0515961706558255e-03  1.8602308228612884e-04  3.1570155872094011e-04  3.9272822840164394e-06  5.7346731285586538e-04  2.2772210668838084e-04  4.4221462747177958e-04  1.9352278416536918e-04  7.9470492803032495e-05  1.0391449341075734e-04  1.5659877141734207e-04  3.8921025326695053e-20  6.7407548053553255e-34  2.6835808606141921e-02  8.5589798206512895e-03  4.9155786896367813e-02  2.1544435497117168e-02  2.7654495968700795e-03  3.8525082189986709e-03  3.3616529932847857e-03  1.1943004042060270e-02  5.9509147672631067e-02  8.7103659237418432e-02  4.7363029646181616e-02  5.6554775085046742e-02  2.8980094035464806e-02  8.1682982595733030e-03  3.3809954381984607e-02  1.2515577737562961e-01  2.2341415850994349e-03  1.8606630797363622e-02  4.8940066261149155e-02  8.8481359562867665e-02  6.7989709119003233e-02  1.2950060244107905e-01  1.2087431263043215e-01  7.2178703275447204e-02  3.5442865569678357e-02  6.1619548335151625e-02  6.3103738272420773e-02  2.2358404313985093e-02  4.4831851914591346e-02  3.9088768296004779e-02  6.7839595307087705e-02  1.3866522672836812e-01  6.8892783254902029e-02  1.0163511394497830e-02  7.5246945268656981e-02  5.1389984514596809e-02  3.6884855833428799e-02  1.2162487791394978e-01  1.8033544806112051e-01  1.6123985834972571e-01  1.3316128206325489e-01  7.0889006300320842e-02  3.8734441957199627e-02  7.0966157894589335e-02  3.8652413790602365e-02  8.0574039269505918e-02  8.4803401137718920e-02  4.9529071255312869e-02  5.0594617071163965e-02  2.4090065641355404e-02  3.0847998561672536e-02  2.3495353605158194e-02  7.1149461729361737e-03  7.2452061214884995e-03  2.2874541091171392e-02  2.4142872379206959e-03  4.3512818029094258e-03  5.5599245299867541e-03  4.7837291078496949e-03  4.3869473914794439e-03  1.6830919083792651e-03  1.5250370772514528e-03  5.3873824238602069e-03  3.2023134611720172e-04  1.9613859039505775e-03  1.9052045334235145e-03  2.6841416290873691e-03  1.3276929139943831e-03  6.0773204996670547e-05  1.9158379611737954e-03  1.6589652168667998e-03  2.8458327596134349e-04  3.3287682840121987e-04  6.7345840987203317e-04  3.3369886052066976e-03  4.8120379851874333e-03  1.3025483281559893e-03  1.4426857106382795e-03  2.7859216657127529e-03  1.8473833468846419e-03  1.2857595093329062e-03  3.1027675378890495e-04  1.1715217985387300e-03  1.8739067490368523e-03  2.7858012364106884e-03  1.8232656191740715e-03  1.1815632707504080e-03  7.5263930733916208e-05  1.2979552877930461e-03  6.8039012441002266e-04  4.6118238066331893e-04  1.2795790228701162e-04  1.0399158748652434e-04  7.7520755241960613e-04  1.8626056110917157e-04  4.0883682561898929e-04  1.8786912563291264e-04  1.0229903061751292e-05  1.0347117935314196e-04  -4.8148248609680896e-35  -2.9884650367132844e-19  7.7579874083071702e-03  1.0428517939947096e-02  2.1587908966067451e-02  3.6471287424971041e-03  6.1650320739790061e-03  3.1841922571943855e-02  3.1046553284550669e-02  3.8694966659208692e-02  1.0445573380893684e-02  1.2011839359969197e-02  2.0422164421276538e-02  5.0314117633040452e-02  6.8536115441491879e-02  7.0524102907544683e-02  1.1774432089732896e-01  8.3591096426951072e-03  1.0338327571637272e-02  1.0043364111754588e-01  4.8059623136245434e-02  4.8728661212762488e-02  6.1362928523887757e-02  1.5239288586091047e-02  1.0108844927631212e-02  1.8873250981546994e-02  2.4032755614523973e-02  9.3032668062985133e-03  7.3171805498390613e-02  8.7641349834454291e-02  9.1920132208564501e-02  3.2866367239776262e-02  8.2986171623273125e-02  7.4736430220727054e-02  7.8985967710736529e-02  9.7662863729360214e-02  4.3991148113511527e-02  6.1738343885592316e-02  1.2798822426813060e-03  7.7406934000459809e-02  1.4986116894502075e-01  1.7823355679517208e-01  1.9171609234515558e-01  8.3582069380087068e-02  2.1066141521501790e-02  2.3978658937448660e-02  8.3224556131502037e-02  2.5428615571574529e-02  3.1226964229701060e-02  4.3847745444245127e-02  4.0657253108629882e-03  4.8425661034609624e-03  1.7961975380792791e-02  1.2098012779824285e-03  1.6680234305609637e-02  7.6088194020552590e-03  2.6884125107808268e-02  1.0786672842593733e-02  3.9632846256796072e-03  3.8313994201366418e-04  3.6630830088586496e-03  4.8230807952360684e-03  8.1542397572821959e-03  4.1075799804585747e-03  3.3102334707866220e-03  4.1024183770533964e-03  3.1635178277741312e-03  1.1383906132924830e-03  3.2462705607738764e-03  4.8484921024689621e-04  1.5934229407138837e-03  1.4533657260702739e-03  2.3393007452879684e-03  4.9229636151699411e-04  3.1008696205869459e-04  5.4214634827321742e-04  2.0264881445917734e-03  4.6344078778768711e-03  3.7153772432055232e-03  8.2835121745637144e-04  2.4791578451089911e-03  2.4559263768695527e-03  1.3318534961984079e-03  8.6700440736941977e-04  1.5324140375208065e-03  2.6595782599436724e-04  2.9608068826129453e-03  2.3427034348869418e-03  1.4883648943358186e-03  5.3160365841305146e-05  7.3583621229534192e-04  1.2410549360110503e-03  4.7641221654366438e-05  5.6022341625641583e-04  1.1380773305213920e-04  7.1616914065020232e-04  3.2463950510216359e-04  5.4165499074698567e-04  2.6668477058371646e-04  1.7610204003912152e-04  1.1157010816989426e-05  -6.9110841622352983e-21  -1.6077386556691075e-18  4.9159267236738947e-02  4.4189768527704246e-02  5.5389365963762127e-03  5.3492785957193541e-02  4.8251071995523052e-02  7.1681383202963087e-03  2.0309978806377860e-02  5.1712084603988493e-03  3.3192837136519361e-02  5.7396034823435485e-02  9.7749852692687364e-02  8.9561526802970928e-02  2.6023025711228887e-02  3.5008515249238696e-02  3.2730282637255491e-02  8.6608794298679223e-03  1.4519205852912581e-01  3.1110661058404716e-02  4.3816924329850550e-02  3.1590147489246830e-02  8.6104459667600483e-02  7.6226544894353751e-02  1.5153442868925476e-01  1.5970032396560210e-01  1.1620119020490745e-01  5.7985903410693596e-02  5.9818608342392575e-02  6.1887760793603627e-02  1.6676567536712962e-02  7.6578282969614289e-02  6.8320963279712224e-02  8.9463606795274445e-02  1.8420483642244490e-01  7.7961815536856077e-02  2.1129840526559376e-02  8.5184230874801828e-02  5.5336487229374044e-02  5.2486772759223248e-02  1.3459597051919761e-01  1.8524641215369508e-01  1.6057575326442647e-01  1.5198337522094227e-01  6.8579038503967529e-02  6.3649940046131503e-02  6.5916354836463131e-02  3.9049202059594841e-02  9.9971213900640329e-02  1.0274373465767861e-01  5.9436550946145160e-02  6.2481433483545040e-02  3.8939431271587770e-02  4.2789621934241365e-02  3.2109368078256616e-02  6.3166525569691399e-03  7.2255975908745301e-03  2.8615602909232121e-02  1.9576879361283090e-03  6.4599665314830764e-03  7.7116975666717338e-03  5.1074269676783897e-03  3.5685440552485626e-03  3.1975211947715644e-03  3.7874952719255308e-03  6.9446328000468968e-03  5.9672877486600213e-04  3.0018589159135976e-03  1.4461397323851520e-03  3.2130545743479554e-03  1.7777916132276162e-03  8.3110252494251089e-05  2.5437284719487373e-03  1.8279560797663321e-03  6.1949504105898625e-04  4.7619440397424283e-04  3.0577509072351745e-04  3.5834069359295673e-03  5.1182686322695254e-03  9.7746560608210514e-04  1.9844892704176313e-03  2.8961003672369435e-03  1.6888833645774723e-03  1.2373692379300651e-03  2.3872628135989134e-04  1.5278561761148501e-03  2.2741613374881566e-03  3.0754440445298812e-03  1.6010699411140130e-03  1.0995713842227143e-03  3.5628142140469642e-04  1.5529125657266364e-03  6.7165845180657772e-04  7.3783048205102104e-04  1.6242290532527391e-04  3.4052083721538374e-05  1.0386884253882280e-03  1.2897329446507109e-04  5.9148200603276896e-04  2.7600796380244501e-04  1.3309324163165512e-04  1.2037062152420224e-35  -2.3337072311007817e-20  2.8962444842322157e-02  4.1168431965456489e-03  1.1541377751618105e-02  4.2497736789636045e-02  2.6968240448889413e-02  8.2528572321597998e-04  2.0940523065034914e-02  4.0443684203151177e-02  3.2261397321771065e-02  7.9635952501028243e-03  2.6341941099580116e-02  1.2587422724508423e-02  1.5702167927026969e-02  9.0273749549096019e-02  3.8488239369525036e-02  1.2028615964264854e-01  1.8061756349196545e-02  3.9005741036471100e-02  8.3359042432566685e-02  4.4491350771199908e-02  5.4245044647317726e-02  8.5494809065034774e-02  1.0937767931007229e-02  2.2643791278369629e-02  2.6642884518115587e-02  5.8770196428241436e-03  1.4949564992527456e-02  9.0496598539835785e-02  1.1711641391082990e-01  1.0136893164095874e-01  2.1622280390858221e-02  9.3791853345986581e-02  7.3285301906661368e-02  1.0407060546343015e-01  1.3736767480615233e-01  2.7113019869528413e-02  6.2893562780327039e-02  2.3671558452134059e-03  8.6727574973859370e-02  1.6626612222472575e-01  1.9464789669600110e-01  1.8958382743651084e-01  8.0149530377961187e-02  1.7291661513918415e-02  3.3191747774071183e-02  9.0388645582606703e-02  3.2369087611687844e-02  5.0163583837951851e-02  7.7683167411824752e-02  2.1000516939117361e-02  1.0593354448756385e-02  5.6514011787597313e-03  9.2958343628698429e-03  2.6869168797403319e-02  4.3569368396673396e-03  2.9860659840203894e-02  1.2263113958794954e-02  8.5557204470843289e-03  1.0200258114069409e-03  6.5740503895942029e-03  6.9989660669423420e-03  9.3062188553001794e-03  4.5199609949144199e-03  2.4296194655938096e-03  5.3598340894709237e-03  4.3101951485023668e-03  1.4557745754933944e-03  3.0076930836627248e-03  8.0452846295545955e-04  2.0502858476206202e-03  1.8740846489449558e-03  2.8215981784859541e-03  4.5726895699322939e-04  5.8138204688888858e-04  8.9541889005510323e-04  1.9645435351052639e-03  4.9365899059166879e-03  3.7784443422634695e-03  1.5313303938997724e-03  2.7625799778455595e-03  2.4564539024547459e-03  1.1628131166413235e-03  9.6217782945362518e-04  1.5662918519067728e-03  2.1571478028985775e-04  3.5439314447185690e-03  2.3847800770624406e-03  1.2468383269273902e-03  1.0117018984716011e-04  6.5773981140849396e-04  1.5268033639001977e-03  1.5974252827723954e-04  8.0865215380930902e-04  1.9518196696460114e-04  7.0536536201097535e-04  5.4329967156540497e-04  4.9913669663285271e-04  3.9273277296600416e-04  2.5153196533615789e-04  -1.2546460443306158e-20  -5.5112968789066328e-19  4.2040332065510980e-04  1.9833909241806075e-02  1.1906503356690565e-02  3.2921361884745717e-02  3.5361194643476777e-02  5.5223620245323818e-02  1.5402707559157498e-03  3.6768350445837171e-02  1.8608618424510195e-02  4.2778115693028723e-02  4.6193112254271397e-02  8.0538916719610262e-02  7.7722478265496622e-02  1.0662497778483026e-02  6.2290369979650833e-03  3.9914540901830768e-02  2.4350191501731722e-02  1.2609209960432780e-01  2.4455628873899633e-02  4.5698508642390306e-02  1.5626126604625586e-02  6.6065991106882452e-02  5.0522071774860289e-02  1.3145308675055598e-01  1.4081773576329151e-01  1.0555069950359207e-01  5.5953182173304403e-02  4.9881739718092732e-02  4.1707534082355814e-02  2.9210544034023295e-03  9.4846666222907397e-02  9.1707829613708547e-02  9.4382898544008817e-02  2.0675660296470544e-01  6.2520738240538040e-02  6.1094824390842330e-02  8.1957047838931388e-02  5.1813012758034405e-02  6.6545769519705616e-02  1.4689787862124887e-01  1.9120972279849044e-01  1.7271405315433119e-01  1.6288810154800565e-01  5.6302383066039484e-02  7.5393569027211657e-02  6.3866334004388001e-02  3.8220791404553603e-02  1.0661828027056583e-01  9.4691282334360014e-02  3.4520224018256544e-02  4.5908713849519805e-02  3.2499083786082579e-02  3.9879799482635571e-02  2.9192163846323785e-02  1.1520057016394452e-02  9.5683865891059185e-03  3.3067280948824204e-02  3.7853572443563221e-03  9.4760839322567333e-03  7.8685542546813470e-03  2.8920498640936138e-03  1.3277390746114807e-03  4.9007665478989224e-03  5.3125659131729513e-03  7.3234276936798978e-03  1.3485978235019453e-04  4.2783049495983064e-03  1.3540161613657829e-03  3.2822475989114273e-03  1.7463421997563572e-03  3.1746319978083904e-04  3.1268588744513760e-03  2.0948056653831422e-03  7.6255724892863614e-04  3.6900663123945715e-04  8.3413975767802993e-05  3.7427117333912324e-03  5.3178625783143465e-03  8.1618619207602424e-04  2.7732282980542700e-03  3.0707980857831610e-03  1.6548687751533875e-03  1.1272674008286454e-03  9.5748323583265657e-05  1.6200953673096141e-03  2.5008514595507318e-03  3.5817187320526553e-03  1.5355211534741563e-03  8.8764590672004773e-04  3.2929510792806515e-04  1.7028263027724915e-03  8.7620796749791430e-04  8.1400655575944946e-04  2.5035603265283711e-04  6.4367792917210869e-05  1.0818827872271675e-03  2.0666259525390740e-04  6.2074149487738545e-04  3.1960302989417943e-04  -4.4353830316060100e-20  -3.3478317161066096e-19  1.1966896548443184e-02  9.1206161323899582e-03  1.2814490429581301e-02  1.8151726603303924e-02  2.0093839812113243e-02  4.8522742005445998e-02  3.0560605080948173e-03  9.0690636829169648e-03  3.3246681674137413e-02  2.7109923755678073e-02  1.6600804557853721e-03  1.4255920493020364e-02  1.3042680746396071e-02  1.4522031097190800e-02  7.2292944538008150e-02  2.6042422134257344e-02 