<?xml version="1.0"?>
<VTKFile type="UnstructuredGrid"  version="0.1"  >
<UnstructuredGrid>
<Piece  NumberOfPoints="10201" NumberOfCells="20000">
<Points>
<DataArray  type="Float64"  NumberOfComponents="3"  format="ascii">0 0 0  0.01 0 0  0.02 0 0  0.03 0 0  0.04 0 0  0.05 0 0  0.06 0 0  0.07000000000000001 0 0  0.08 0 0  0.09 0 0  0.1 0 0  0.11 0 0  0.12 0 0  0.13 0 0  0.14 0 0  0.15 0 0  0.16 0 0  0.17 0 0  0.18 0 0  0.19 0 0  0.2 0 0  0.21 0 0  0.22 0 0  0.23 0 0  0.24 0 0  0.25 0 0  0.26 0 0  0.27 0 0  0.28 0 0  0.29 0 0  0.3 0 0  0.31 0 0  0.32 0 0  0.33 0 0  0.34 0 0  0.35 0 0  0.36 0 0  0.37 0 0  0.38 0 0  0.39 0 0  0.4 0 0  0.41 0 0  0.42 0 0  0.43 0 0  0.44 0 0  0.45 0 0  0.46 0 0  0.47 0 0  0.48 0 0  0.49 0 0  0.5 0 0  0.51 0 0  0.52 0 0  0.53 0 0  0.54 0 0  0.55 0 0  0.5600000000000001 0 0  0.57 0 0  0.58 0 0  0.59 0 0  0.6 0 0  0.61 0 0  0.62 0 0  0.63 0 0  0.64 0 0  0.65 0 0  0.66 0 0  0.67 0 0  0.68 0 0  0.6899999999999999 0 0  0.7 0 0  0.71 0 0  0.72 0 0  0.73 0 0  0.74 0 0  0.75 0 0  0.76 0 0  0.77 0 0  0.78 0 0  0.79 0 0  0.8 0 0  0.8100000000000001 0 0  0.82 0 0  0.83 0 0  0.84 0 0  0.85 0 0  0.86 0 0  0.87 0 0  0.88 0 0  0.89 0 0  0.9 0 0  0.91 0 0  0.92 0 0  0.93 0 0  0.9399999999999999 0 0  0.95 0 0  0.96 0 0  0.97 0 0  0.98 0 0  0.99 0 0  1 0 0  0 0.01 0  0.01 0.01 0  0.02 0.01 0  0.03 0.01 0  0.04 0.01 0  0.05 0.01 0  0.06 0.01 0  0.07000000000000001 0.01 0  0.08 0.01 0  0.09 0.01 0  0.1 0.01 0  0.11 0.01 0  0.12 0.01 0  0.13 0.01 0  0.14 0.01 0  0.15 0.01 0  0.16 0.01 0  0.17 0.01 0  0.18 0.01 0  0.19 0.01 0  0.2 0.01 0  0.21 0.01 0  0.22 0.01 0  0.23 0.01 0  0.24 0.01 0  0.25 0.01 0  0.26 0.01 0  0.27 0.01 0  0.28 0.01 0  0.29 0.01 0  0.3 0.01 0  0.31 0.01 0  0.32 0.01 0  0.33 0.01 0  0.34 0.01 0  0.35 0.01 0  0.36 0.01 0  0.37 0.01 0  0.38 0.01 0  0.39 0.01 0  0.4 0.01 0  0.41 0.01 0  0.42 0.01 0  0.43 0.01 0  0.44 0.01 0  0.45 0.01 0  0.46 0.01 0  0.47 0.01 0  0.48 0.01 0  0.49 0.01 0  0.5 0.01 0  0.51 0.01 0  0.52 0.01 0  0.53 0.01 0  0.54 0.01 0  0.55 0.01 0  0.5600000000000001 0.01 0  0.57 0.01 0  0.58 0.01 0  0.59 0.01 0  0.6 0.01 0  0.61 0.01 0  0.62 0.01 0  0.63 0.01 0  0.64 0.01 0  0.65 0.01 0  0.66 0.01 0  0.67 0.01 0  0.68 0.01 0  0.6899999999999999 0.01 0  0.7 0.01 0  0.71 0.01 0  0.72 0.01 0  0.73 0.01 0  0.74 0.01 0  0.75 0.01 0  0.76 0.01 0  0.77 0.01 0  0.78 0.01 0  0.79 0.01 0  0.8 0.01 0  0.8100000000000001 0.01 0  0.82 0.01 0  0.83 0.01 0  0.84 0.01 0  0.85 0.01 0  0.86 0.01 0  0.87 0.01 0  0.88 0.01 0  0.89 0.01 0  0.9 0.01 0  0.91 0.01 0  0.92 0.01 0  0.93 0.01 0  0.9399999999999999 0.01 0  0.95 0.01 0  0.96 0.01 0  0.97 0.01 0  0.98 0.01 0  0.99 0.01 0  1 0.01 0  0 0.02 0  0.01 0.02 0  0.02 0.02 0  0.03 0.02 0  0.04 0.02 0  0.05 0.02 0  0.06 0.02 0  0.07000000000000001 0.02 0  0.08 0.02 0  0.09 0.02 0  0.1 0.02 0  0.11 0.02 0  0.12 0.02 0  0.13 0.02 0  0.14 0.02 0  0.15 0.02 0  0.16 0.02 0  0.17 0.02 0  0.18 0.02 0  0.19 0.02 0  0.2 0.02 0  0.21 0.02 0  0.22 0.02 0  0.23 0.02 0  0.24 0.02 0  0.25 0.02 0  0.26 0.02 0  0.27 0.02 0  0.28 0.02 0  0.29 0.02 0  0.3 0.02 0  0.31 0.02 0  0.32 0.02 0  0.33 0.02 0  0.34 0.02 0  0.35 0.02 0  0.36 0.02 0  0.37 0.02 0  0.38 0.02 0  0.39 0.02 0  0.4 0.02 0  0.41 0.02 0  0.42 0.02 0  0.43 0.02 0  0.44 0.02 0  0.45 0.02 0  0.46 0.02 0  0.47 0.02 0  0.48 0.02 0  0.49 0.02 0  0.5 0.02 0  0.51 0.02 0  0.52 0.02 0  0.53 0.02 0  0.54 0.02 0  0.55 0.02 0  0.5600000000000001 0.02 0  0.57 0.02 0  0.58 0.02 0  0.59 0.02 0  0.6 0.02 0  0.61 0.02 0  0.62 0.02 0  0.63 0.02 0  0.64 0.02 0  0.65 0.02 0  0.66 0.02 0  0.67 0.02 0  0.68 0.02 0  0.6899999999999999 0.02 0  0.7 0.02 0  0.71 0.02 0  0.72 0.02 0  0.73 0.02 0  0.74 0.02 0  0.75 0.02 0  0.76 0.02 0  0.77 0.02 0  0.78 0.02 0  0.79 0.02 0  0.8 0.02 0  0.8100000000000001 0.02 0  0.82 0.02 0  0.83 0.02 0  0.84 0.02 0  0.85 0.02 0  0.86 0.02 0  0.87 0.02 0  0.88 0.02 0  0.89 0.02 0  0.9 0.02 0  0.91 0.02 0  0.92 0.02 0  0.93 0.02 0  0.9399999999999999 0.02 0  0.95 0.02 0  0.96 0.02 0  0.97 0.02 0  0.98 0.02 0  0.99 0.02 0  1 0.02 0  0 0.03 0  0.01 0.03 0  0.02 0.03 0  0.03 0.03 0  0.04 0.03 0  0.05 0.03 0  0.06 0.03 0  0.07000000000000001 0.03 0  0.08 0.03 0  0.09 0.03 0  0.1 0.03 0  0.11 0.03 0  0.12 0.03 0  0.13 0.03 0  0.14 0.03 0  0.15 0.03 0  0.16 0.03 0  0.17 0.03 0  0.18 0.03 0  0.19 0.03 0  0.2 0.03 0  0.21 0.03 0  0.22 0.03 0  0.23 0.03 0  0.24 0.03 0  0.25 0.03 0  0.26 0.03 0  0.27 0.03 0  0.28 0.03 0  0.29 0.03 0  0.3 0.03 0  0.31 0.03 0  0.32 0.03 0  0.33 0.03 0  0.34 0.03 0  0.35 0.03 0  0.36 0.03 0  0.37 0.03 0  0.38 0.03 0  0.39 0.03 0  0.4 0.03 0  0.41 0.03 0  0.42 0.03 0  0.43 0.03 0  0.44 0.03 0  0.45 0.03 0  0.46 0.03 0  0.47 0.03 0  0.48 0.03 0  0.49 0.03 0  0.5 0.03 0  0.51 0.03 0  0.52 0.03 0  0.53 0.03 0  0.54 0.03 0  0.55 0.03 0  0.5600000000000001 0.03 0  0.57 0.03 0  0.58 0.03 0  0.59 0.03 0  0.6 0.03 0  0.61 0.03 0  0.62 0.03 0  0.63 0.03 0  0.64 0.03 0  0.65 0.03 0  0.66 0.03 0  0.67 0.03 0  0.68 0.03 0  0.6899999999999999 0.03 0  0.7 0.03 0  0.71 0.03 0  0.72 0.03 0  0.73 0.03 0  0.74 0.03 0  0.75 0.03 0  0.76 0.03 0  0.77 0.03 0  0.78 0.03 0  0.79 0.03 0  0.8 0.03 0  0.8100000000000001 0.03 0  0.82 0.03 0  0.83 0.03 0  0.84 0.03 0  0.85 0.03 0  0.86 0.03 0  0.87 0.03 0  0.88 0.03 0  0.89 0.03 0  0.9 0.03 0  0.91 0.03 0  0.92 0.03 0  0.93 0.03 0  0.9399999999999999 0.03 0  0.95 0.03 0  0.96 0.03 0  0.97 0.03 0  0.98 0.03 0  0.99 0.03 0  1 0.03 0  0 0.04 0  0.01 0.04 0  0.02 0.04 0  0.03 0.04 0  0.04 0.04 0  0.05 0.04 0  0.06 0.04 0  0.07000000000000001 0.04 0  0.08 0.04 0  0.09 0.04 0  0.1 0.04 0  0.11 0.04 0  0.12 0.04 0  0.13 0.04 0  0.14 0.04 0  0.15 0.04 0  0.16 0.04 0  0.17 0.04 0  0.18 0.04 0  0.19 0.04 0  0.2 0.04 0  0.21 0.04 0  0.22 0.04 0  0.23 0.04 0  0.24 0.04 0  0.25 0.04 0  0.26 0.04 0  0.27 0.04 0  0.28 0.04 0  0.29 0.04 0  0.3 0.04 0  0.31 0.04 0  0.32 0.04 0  0.33 0.04 0  0.34 0.04 0  0.35 0.04 0  0.36 0.04 0  0.37 0.04 0  0.38 0.04 0  0.39 0.04 0  0.4 0.04 0  0.41 0.04 0  0.42 0.04 0  0.43 0.04 0  0.44 0.04 0  0.45 0.04 0  0.46 0.04 0  0.47 0.04 0  0.48 0.04 0  0.49 0.04 0  0.5 0.04 0  0.51 0.04 0  0.52 0.04 0  0.53 0.04 0  0.54 0.04 0  0.55 0.04 0  0.5600000000000001 0.04 0  0.57 0.04 0  0.58 0.04 0  0.59 0.04 0  0.6 0.04 0  0.61 0.04 0  0.62 0.04 0  0.63 0.04 0  0.64 0.04 0  0.65 0.04 0  0.66 0.04 0  0.67 0.04 0  0.68 0.04 0  0.6899999999999999 0.04 0  0.7 0.04 0  0.71 0.04 0  0.72 0.04 0  0.73 0.04 0  0.74 0.04 0  0.75 0.04 0  0.76 0.04 0  0.77 0.04 0  0.78 0.04 0  0.79 0.04 0  0.8 0.04 0  0.8100000000000001 0.04 0  0.82 0.04 0  0.83 0.04 0  0.84 0.04 0  0.85 0.04 0  0.86 0.04 0  0.87 0.04 0  0.88 0.04 0  0.89 0.04 0  0.9 0.04 0  0.91 0.04 0  0.92 0.04 0  0.93 0.04 0  0.9399999999999999 0.04 0  0.95 0.04 0  0.96 0.04 0  0.97 0.04 0  0.98 0.04 0  0.99 0.04 0  1 0.04 0  0 0.05 0  0.01 0.05 0  0.02 0.05 0  0.03 0.05 0  0.04 0.05 0  0.05 0.05 0  0.06 0.05 0  0.07000000000000001 0.05 0  0.08 0.05 0  0.09 0.05 0  0.1 0.05 0  0.11 0.05 0  0.12 0.05 0  0.13 0.05 0  0.14 0.05 0  0.15 0.05 0  0.16 0.05 0  0.17 0.05 0  0.18 0.05 0  0.19 0.05 0  0.2 0.05 0  0.21 0.05 0  0.22 0.05 0  0.23 0.05 0  0.24 0.05 0  0.25 0.05 0  0.26 0.05 0  0.27 0.05 0  0.28 0.05 0  0.29 0.05 0  0.3 0.05 0  0.31 0.05 0  0.32 0.05 0  0.33 0.05 0  0.34 0.05 0  0.35 0.05 0  0.36 0.05 0  0.37 0.05 0  0.38 0.05 0  0.39 0.05 0  0.4 0.05 0  0.41 0.05 0  0.42 0.05 0  0.43 0.05 0  0.44 0.05 0  0.45 0.05 0  0.46 0.05 0  0.47 0.05 0  0.48 0.05 0  0.49 0.05 0  0.5 0.05 0  0.51 0.05 0  0.52 0.05 0  0.53 0.05 0  0.54 0.05 0  0.55 0.05 0  0.5600000000000001 0.05 0  0.57 0.05 0  0.58 0.05 0  0.59 0.05 0  0.6 0.05 0  0.61 0.05 0  0.62 0.05 0  0.63 0.05 0  0.64 0.05 0  0.65 0.05 0  0.66 0.05 0  0.67 0.05 0  0.68 0.05 0  0.6899999999999999 0.05 0  0.7 0.05 0  0.71 0.05 0  0.72 0.05 0  0.73 0.05 0  0.74 0.05 0  0.75 0.05 0  0.76 0.05 0  0.77 0.05 0  0.78 0.05 0  0.79 0.05 0  0.8 0.05 0  0.8100000000000001 0.05 0  0.82 0.05 0  0.83 0.05 0  0.84 0.05 0  0.85 0.05 0  0.86 0.05 0  0.87 0.05 0  0.88 0.05 0  0.89 0.05 0  0.9 0.05 0  0.91 0.05 0  0.92 0.05 0  0.93 0.05 0  0.9399999999999999 0.05 0  0.95 0.05 0  0.96 0.05 0  0.97 0.05 0  0.98 0.05 0  0.99 0.05 0  1 0.05 0  0 0.06 0  0.01 0.06 0  0.02 0.06 0  0.03 0.06 0  0.04 0.06 0  0.05 0.06 0  0.06 0.06 0  0.07000000000000001 0.06 0  0.08 0.06 0  0.09 0.06 0  0.1 0.06 0  0.11 0.06 0  0.12 0.06 0  0.13 0.06 0  0.14 0.06 0  0.15 0.06 0  0.16 0.06 0  0.17 0.06 0  0.18 0.06 0  0.19 0.06 0  0.2 0.06 0  0.21 0.06 0  0.22 0.06 0  0.23 0.06 0  0.24 0.06 0  0.25 0.06 0  0.26 0.06 0  0.27 0.06 0  0.28 0.06 0  0.29 0.06 0  0.3 0.06 0  0.31 0.06 0  0.32 0.06 0  0.33 0.06 0  0.34 0.06 0  0.35 0.06 0  0.36 0.06 0  0.37 0.06 0  0.38 0.06 0  0.39 0.06 0  0.4 0.06 0  0.41 0.06 0  0.42 0.06 0  0.43 0.06 0  0.44 0.06 0  0.45 0.06 0  0.46 0.06 0  0.47 0.06 0  0.48 0.06 0  0.49 0.06 0  0.5 0.06 0  0.51 0.06 0  0.52 0.06 0  0.53 0.06 0  0.54 0.06 0  0.55 0.06 0  0.5600000000000001 0.06 0  0.57 0.06 0  0.58 0.06 0  0.59 0.06 0  0.6 0.06 0  0.61 0.06 0  0.62 0.06 0  0.63 0.06 0  0.64 0.06 0  0.65 0.06 0  0.66 0.06 0  0.67 0.06 0  0.68 0.06 0  0.6899999999999999 0.06 0  0.7 0.06 0  0.71 0.06 0  0.72 0.06 0  0.73 0.06 0  0.74 0.06 0  0.75 0.06 0  0.76 0.06 0  0.77 0.06 0  0.78 0.06 0  0.79 0.06 0  0.8 0.06 0  0.8100000000000001 0.06 0  0.82 0.06 0  0.83 0.06 0  0.84 0.06 0  0.85 0.06 0  0.86 0.06 0  0.87 0.06 0  0.88 0.06 0  0.89 0.06 0  0.9 0.06 0  0.91 0.06 0  0.92 0.06 0  0.93 0.06 0  0.9399999999999999 0.06 0  0.95 0.06 0  0.96 0.06 0  0.97 0.06 0  0.98 0.06 0  0.99 0.06 0  1 0.06 0  0 0.07000000000000001 0  0.01 0.07000000000000001 0  0.02 0.07000000000000001 0  0.03 0.07000000000000001 0  0.04 0.07000000000000001 0  0.05 0.07000000000000001 0  0.06 0.07000000000000001 0  0.07000000000000001 0.07000000000000001 0  0.08 0.07000000000000001 0  0.09 0.07000000000000001 0  0.1 0.07000000000000001 0  0.11 0.07000000000000001 0  0.12 0.07000000000000001 0  0.13 0.07000000000000001 0  0.14 0.07000000000000001 0  0.15 0.07000000000000001 0  0.16 0.07000000000000001 0  0.17 0.0700
[...]
<PointData  Scalars="Indicator Function"> 
<DataArray  type="Float64"  Name="Indicator Function"  format="ascii">-8.4859132505901705e-19  3.6845474479270598e-17  1.2068416240708393e-16  3.8111844508586857e-18  4.1023341971343658e-17  -1.7994781833724221e-18  -2.5008742088843502e-18  1.2999497979726981e-16  9.9302980532035358e-16  -1.6677926221871528e-18  4.4631685647017946e-16  9.3599242222575863e-16  -7.4185936828342281e-19  -7.1579604398067066e-18  6.1547666705557411e-16  -3.5331709908745696e-18  -1.0752671861905886e-17  1.2285100632059900e-15  -4.5677282527297265e-18  -5.6135614628285031e-18  2.9424447072518300e-15  -5.9503403571134602e-18  -6.8737697229312966e-18  2.2499757101679445e-15  -2.3260467913686987e-19  -4.5706618008852983e-18  -1.6135824268348001e-18  -6.3136728998716108e-19  1.3940759215404684e-15  -2.8352824046032117e-18  -2.9307520618466651e-18  -2.9375587210291628e-18  -2.6597911862524876e-18  -7.7529436719237950e-18  -3.7443150137245131e-17  -4.4833676387012360e-18  -6.9420424432981270e-18  -1.2126242756473309e-17  -1.1563167750298495e-17  -1.6978552599695655e-17  1.3522199928076344e-15  -2.8707154225740461e-18  -4.7796266217123389e-18  -2.4254184785638150e-18  -2.6989502089036818e-18  -2.3815448048109302e-18  2.3205005895957636e-16  -1.6202966302191982e-18  -1.1483122119456805e-18  -2.1993387290053490e-18  -1.6487493492013498e-18  -1.9259299443872359e-34  -9.2046644271516979e-19  -2.2412872229922409e-18  1.9259299443872359e-34  -1.3268174936947067e-18  6.4849687680568324e-16  -4.0837976725803650e-19  -8.4233207778170540e-19  -2.0401586817905685e-18  3.8518598887744717e-34  -1.4724270427190081e-18  -8.3996122734879569e-19  -7.6214320632452170e-21  9.6296497219361793e-35  -6.2572183229108222e-19  -2.2890667434025844e-19  -5.6002766714295748e-20  8.8148017827995865e-17  -6.7017894330882127e-19  7.2222372914521344e-35  -9.9390494886804745e-20  -8.1352187165717900e-20  -1.0210298412700858e-18  -1.8849593765944003e-18  -6.4176335529536228e-19  -3.3987428455918590e-19  -7.4604302917122128e-19  -4.5431948226343656e-19  -1.6042234378279888e-19  -1.9070330413912427e-19  3.1289087684499807e-16  -2.9173223379319004e-19  -1.1141080093676532e-18  -6.3733691694417833e-19  -3.7571884125624577e-19  9.6296497219361793e-35  -2.3605117282311101e-19  -4.4659029311115645e-19  -3.7502070040152128e-20  -4.3230831341635589e-20  2.4074124304840448e-35  -1.6732965827020117e-19  1.6845383228553530e-16  -8.0946047855088145e-20  -1.8155605776389415e-20  -1.2423190072348400e-20  -1.0839633917709461e-20  -2.0335470888434448e-20  0.0000000000000000e+00  2.4074124304840448e-35  7.7037197775489434e-34  1.5286862301302538e-02  1.0892181615602506e-01  3.1052953304174399e-02  4.5039906736080014e-02  5.1494801995180937e-02  3.2416517104389510e-02  4.5051744620928147e-02  1.3205063786670829e-01  1.3080859924720875e-01  3.0044280927253118e-02  1.9312291828524500e-01  2.6728300596500311e-02  1.3805301147536866e-01  5.9919846140100347e-02  2.2485056792173616e-01  1.8978740018389753e-01  1.6208712292220390e-01  1.6456975405538618e-01  2.0224986649772447e-01  2.4630052473411056e-02  2.1438360492019040e-01  9.2641289857799708e-02  7.7506182122395947e-02  8.3804667702835050e-03  1.6467544626642874e-01  6.7833746652961907e-02  2.2747403935360233e-02  2.2045339626903464e-02  2.3907899042879609e-02  3.9121957602004778e-02  1.0583670689124715e-01  3.9183905818365471e-02  2.8322585471977378e-02  1.2550332419161342e-01  1.3138775928624249e-01  1.5071291664958046e-02  1.2505671904331045e-01  3.1884081756672628e-01  3.2718882400978727e-01  2.1797474523404739e-01  8.3160534967473734e-02  5.1714211629564751e-02  1.1989632068038718e-01  9.7239929240881109e-02  8.5804194364103817e-02  4.2874279346116706e-02  2.4436526486994684e-02  4.3238929779150843e-02  3.2661461066062734e-02  2.3289033788608606e-02  2.9701227818762183e-02  3.3163298627352671e-02  5.6643223976341868e-02  1.2053829221021505e-02  3.1801266718687819e-02  5.9707804902154674e-02  1.4713431741191541e-02  3.0348211452959229e-02  4.1154898181799668e-02  1.6174782425454906e-02  1.0907810182070264e-02  2.1488610369247516e-02  4.3870910973510370e-03  1.3729551440024498e-04  3.8222662154617114e-03  9.3608693352439515e-03  2.0177123144495368e-03  2.2992907053179233e-03  1.0347989017459135e-02  8.5678226839474535e-03  4.3276302140672534e-03  2.9310214384424167e-03  8.7244066010010914e-03  2.6974266386464225e-02  2.8793386588852044e-02  9.6307066958218387e-03  6.1226308051742576e-03  1.2994072675070993e-02  9.2923843629096545e-03  6.8708106356744590e-03  2.0323649882149808e-03  3.8345560173714799e-03  9.4192398323961792e-03  1.6855218974639447e-02  1.2485082420361782e-02  7.0547236444629879e-03  1.8109180777805319e-03  6.7125600791009170e-03  4.6887754710202758e-03  3.0359647220271399e-04  6.2697918758306968e-04  9.4040013911626320e-04  2.5441430769766937e-03  1.6806597614384209e-03  1.2011304123517447e-03  4.4759259344464859e-04  2.7133305827250039e-04  5.9660686707395925e-04  3.4503307986955532e-04  1.7747069916733993e-21  1.9740781929969167e-33  1.6516314877492964e-02  3.1548466552706107e-02  4.6875551230190715e-02  1.8821589202763750e-02  8.9815919270350930e-02  3.7352872212993840e-02  1.2245120322889208e-01  3.6804948207275014e-02  9.9744975558993490e-02  1.6844512797218000e-01  3.8267956884256875e-02  2.3744996513502314e-02  2.6792720786418517e-01  2.1456833397579836e-01  3.4947905728574286e-01  1.1152849849594366e-01  2.3773639900455223e-01  2.3027438001342094e-02  1.3357645851330938e-01  7.2893869619652926e-02  2.6667038501065282e-01  2.3934842350947318e-02  1.3968929562198573e-01  8.0178792777074834e-02  1.7032032510427075e-02  2.8639097018911246e-02  6.1256993682735614e-02  3.2908053517358968e-02  3.6580768711758867e-02  1.7620259741345287e-01  7.4624661540557038e-02  1.5567048798263497e-01  7.5301429383408544e-02  1.9171874933813973e-01  6.9692327501192974e-02  1.2278922399699653e-01  1.1526008753069451e-01  2.4139055785692906e-01  3.0838175544670399e-01  3.9498088246514218e-01  1.5927809124732670e-01  6.8723028934897679e-02  8.3774814491939353e-02  8.8497317644189236e-02  4.0567496584472437e-02  4.2468792053610059e-02  4.2490904164061722e-03  3.6437962822165770e-02  2.1857330222291835e-02  6.6910716889320265e-02  5.2864032588944912e-02  3.1547110418779271e-03  2.8270087345971896e-02  8.8079693005702661e-02  1.8868756419449415e-03  1.4819925598875681e-02  2.9431961173942998e-02  1.4836443806513159e-03  7.3846270714969806e-03  5.7734064845779615e-02  9.5228607863597544e-03  3.1753074638679019e-02  1.1617649879444601e-02  2.1577234192193704e-03  2.1465897217127399e-03  1.2559472450255108e-02  2.3274820164031072e-03  2.6809946577625306e-03  9.8006898880300918e-03  1.1846365324023304e-02  4.9677160994760173e-03  5.2436174249210878e-03  1.5972955106833718e-03  2.1689269797600479e-02  3.5807623372369791e-02  1.9332747389050147e-02  6.9900362971188592e-05  1.2463775285835929e-02  1.2052168402421772e-02  8.3119814211253199e-03  4.6750237768056323e-03  8.6479216440155850e-03  4.5011709363356085e-03  1.7479799299701251e-02  1.5051051574183242e-02  1.1606480163713790e-02  1.7619208905015672e-03  5.8701124115832937e-03  6.7887746828136641e-03  1.5973084474315529e-03  1.5668737523929282e-03  2.6860813261585768e-04  3.6865378418273649e-03  1.2304419716342640e-03  2.4390435181363634e-03  6.9733832005472733e-04  7.6905006494922936e-05  6.6744981464261094e-04  9.0050756073040714e-04  2.2494695124868589e-19  3.8518598887744717e-33  8.6194656346893050e-02  6.7563809497463212e-02  2.0202073271937598e-01  5.5124835151904729e-02  5.3830450255899125e-03  1.1959975928303754e-01  1.5063391344937149e-01  1.0520697360348684e-01  1.9763666952609063e-01  3.5885722207209564e-01  2.1789666501431296e-01  2.7798786421968019e-01  1.9735768405262197e-01  1.3092255492899613e-01  1.1191727963156123e-01  3.8540275833241483e-01  2.0086365986976648e-01  2.1582930010410442e-01  1.3894201840625262e-01  3.9655456989043220e-01  2.8936722619726052e-01  4.3088114424398821e-01  2.6366442842230953e-01  4.6538740957072534e-02  5.2559217725229285e-02  2.4489602816948683e-01  2.6072125786079026e-01  1.2727744623771597e-01  5.0514060421624193e-02  2.9144911029214574e-02  9.1392409068320718e-02  1.4607851954009299e-01  1.1175173528933638e-01  6.6720062389378665e-02  2.0175689580311104e-01  1.5171750889118760e-01  2.6836313219701850e-03  1.6237489618046680e-01  4.0451468122872464e-01  2.9444636221686088e-01  2.1532739043818805e-01  1.1337908646570138e-01  8.1880403656026474e-02  1.5278683511160310e-01  8.9381945999144605e-02  1.7071808488754225e-01  1.5516831916815310e-01  9.8763283044787833e-02  8.8753025024364982e-02  1.4133137014019595e-02  4.3675907523768098e-02  6.3727427551923163e-02  2.3804718983368431e-02  8.8613065750422201e-02  1.7246173133269503e-02  5.9029600358920332e-02  1.0966644025201651e-01  6.5473944165936979e-02  7.2233608841511657e-02  7.7200254532702198e-02  2.2116678491789117e-03  7.9604764824014393e-03  3.4093711590584247e-02  4.8091371317874774e-03  1.2272766446107543e-03  2.6878086444264942e-03  1.4261231593809197e-02  7.7821426480832092e-03  5.2187036707360733e-03  1.3954878275425237e-02  7.6712600719058667e-03  3.7329612553033318e-03  5.2794353708147824e-03  1.1357779190123653e-02  3.3140631447089730e-02  3.0759465356866127e-02  4.8513837139713056e-03  7.0247536455596742e-03  1.4047030739965742e-02  8.0517777751802789e-03  8.0696296252813892e-03  4.0504973225370189e-03  5.6262597694758760e-03  1.4315546085822018e-02  1.8610635373647731e-02  1.0446293522081504e-02  7.9481011625537820e-03  1.0746385694632995e-04  1.0052157300780205e-02  3.5396901131723880e-03  2.0346433567843916e-03  9.2644221757393389e-05  8.3648151661338838e-04  4.2740275456413989e-03  1.2276242381466255e-03  1.7703820611203152e-03  6.3567564303288208e-04  1.6107833354433505e-04  5.1623539569741373e-04  -2.2870418089598426e-34  -9.1963154844490512e-33  8.5184361727094218e-02  6.9760673440661419e-02  9.1806762021480609e-02  5.0637456638385571e-02  5.2370032136807805e-02  1.2410518021844211e-01  8.7680049206015451e-02  1.3398241923044710e-01  2.0686046357170323e-03  2.7492624576145767e-02  1.1062853236150921e-01  1.0999769235778258e-01  1.3318445965471384e-01  3.1559679141536645e-01  4.7741712991320129e-01  2.5003814627079080e-01  6.4920854177043970e-03  2.6362321548182971e-01  4.2194814070864138e-02  2.7910666067264256e-01  3.0220718087490311e-01  1.8127313761577266e-01  2.7998810781037814e-03  2.2801793877189921e-01  1.3518584470433823e-01  8.4250109196328277e-02  1.5893743330523419e-01  4.5709487625182309e-03  3.9005745939371395e-02  1.2986364619258031e-02  2.0312864686566318e-01  1.6331430556308546e-01  2.0595853478361850e-01  2.3705050674775596e-01  1.4432496369181594e-01  1.2036003374621313e-02  1.6542201224083344e-01  1.3706835912494400e-01  2.1083796831263754e-01  3.5069066655830988e-01  4.2069660177512880e-01  7.6636892941460324e-02  8.6655505501821703e-02  3.7953723726262406e-02  1.0049030650678664e-01  6.6056002054618299e-02  1.2724454464728366e-01  7.0004763966834666e-02  5.1937390538286301e-03  3.1638765875382995e-02  6.8572331776833792e-02  6.8300455294382542e-02  1.3066236393719496e-02  4.9594236669345822e-02  1.4074470231404251e-01  5.2928953548008480e-02  1.3016162386375957e-02  6.0981415667913659e-02  3.5286137621116570e-02  4.0717469336841165e-02  9.2770647796615840e-02  3.8488709964535586e-02  4.3554146953346383e-02  1.1814418759853307e-02  9.0806840618716453e-03  6.2619640923078498e-03  1.5244396529446626e-02  2.1576361409732150e-03  6.5779412081788564e-03  1.3732553369677433e-02  1.2838925358491777e-02  2.6912464352172138e-03  6.2501855211891267e-03  2.2431947204691865e-04  2.4090846728861897e-02  3.8740338604538543e-02  1.5923359984786108e-02  3.7868971718662088e-03  1.2396864604480765e-02  1.1131823750124592e-02  6.9706809764395802e-03  5.6734506574882644e-03  1.2614509207166754e-02  6.1452623859636086e-03  2.0315621345753519e-02  1.3429150282310847e-02  9.8765375745403696e-03  5.3134641218363437e-04  6.0086218966848891e-03  8.2225619567669762e-03  4.7259720710603182e-06  2.7339984230240581e-03  1.1985426054778204e-03  4.5704535758113157e-03  1.3269876692823053e-03  2.9813959318145534e-03  8.3502024800534414e-04  4.7909613864010497e-04  2.1123793885750581e-04  9.4519325610797778e-21  -8.4268342693883533e-18  2.5467435534696276e-01  1.8319179520559381e-01  2.4950402820121273e-02  2.4254833558775873e-01  1.8986509817273492e-01  3.0326289912332452e-02  5.9196943308001751e-02  1.8424230985030121e-01  2.1830107768750004e-01  1.7231756717658034e-01  4.1540609816677876e-01  4.2544593879800108e-01  1.3924496059019348e-01  2.9897039222660005e-01  1.2750592170144476e-01  4.6240511346925667e-02  5.5702844331338675e-01  1.1303419376701136e-01  1.9609819748942103e-01  2.3677487030006755e-02  2.9221236987064247e-01  3.6808021922441025e-01  5.7837290061564883e-01  3.6210113087349788e-01  3.0745682820498194e-02  1.4420116411703160e-01  1.4584604065410414e-01  3.1635528111233641e-01  2.3251979661333211e-01  5.5352415719853547e-02  4.4078466295206342e-02  2.1199764104168470e-01  2.0996851605406303e-01  4.2269137010803315e-02  3.9482084028779979e-02  2.8739702617464102e-01  1.0514273576438442e-01  3.5153124280580747e-03  2.1315167159287321e-01  3.8890605508915760e-01  2.4518920394824917e-01  2.7497138671882404e-01  1.0122195199687252e-01  1.4448253031515512e-01  1.3419872987091050e-01  5.7583826385331022e-02  1.6619721339927174e-01  1.7375382694802435e-01  1.2382199884751294e-01  1.1031284451497607e-01  1.8026378508807679e-03  6.2156380640073797e-02  1.0007632880511798e-01  3.9406114443396078e-03  7.3997767979835677e-02  3.1630100843560473e-03  4.1926146502171087e-02  1.1732294614883511e-01  7.7405997158083314e-02  7.7610521984655748e-02  7.8019176497054657e-02  1.2123618280920826e-02  9.7068323901650759e-03  4.7868886207131936e-02  1.1194444773741407e-02  8.3417104723073590e-04  4.8356368945196867e-04  1.8748591775009291e-02  1.0947174381687413e-02  5.1948952262856184e-03  1.7308033218519800e-02  7.2173246571212053e-03  2.1050213928579986e-03  7.1984804302088817e-03  1.1128516555734895e-02  3.5889667086598867e-02  3.1983483072558279e-02  4.1065927974841206e-04  8.2397957502463089e-03  1.4088399822269866e-02  6.9011731097431781e-03  8.3370172898652693e-03  3.7294842352398119e-03  8.6688059726604486e-03  1.7649122937969736e-02  1.9855835299112556e-02  8.2254030144203478e-03  7.9714980867406898e-03  1.9858715200823354e-03  1.1827916212376761e-02  3.0900525311314733e-03  3.4435559080511226e-03  1.3079738660266000e-04  3.5917344684982311e-04  5.8034700544221888e-03  6.2641086435986752e-04  2.6217615170235826e-03  9.0136591910322408e-04  3.0685451784741123e-04  0.0000000000000000e+00  -1.0379997820374455e-18  2.1990538604651866e-01  9.7955535627917728e-02  8.3845026702021444e-02  2.1335550436475476e-01  7.3669125761020818e-02  5.6936814637810883e-02  7.3783356254043433e-02  1.8331792659817486e-01  4.7986246685416539e-02  5.0357959203927327e-02  2.2337555232589547e-02  6.8820051780241032e-02  7.4085673725140480e-02  2.4378461260029502e-01  9.5831187662415135e-02  4.8791981753144997e-01  4.5651746683131517e-02  7.6080539103109801e-02  2.9207977186272460e-01  1.2796115266736510e-01  2.0683351405545622e-01  4.8567814964849421e-01  2.9399400780629199e-02  1.1494360600800195e-01  3.5883734244974558e-01  1.6765217148917211e-01  4.9482347473926141e-03  2.2502181512491251e-01  1.7577603383422355e-01  1.0850725988205119e-02  4.0782783664024191e-03  1.2617299533571680e-01  1.4481672319401895e-01  1.8631666970249697e-01  3.1649793231446677e-01  3.5440579936996355e-02  4.3555824370458157e-02  1.8369284630019669e-01  1.3145888883660481e-01  2.3906150523720221e-01  4.1312782579088414e-01  3.6318812482207308e-01  4.2524614239616884e-02  5.3203334223192775e-02  4.2495230468067947e-02  1.2917024247767381e-01  5.0145304420408328e-02  1.8525112431074242e-01  1.5895039515972290e-01  5.1836349358800306e-02  6.2704759776503111e-02  4.7063567285871459e-02  5.2514289223603315e-02  1.2670507930781656e-02  3.6143475616491422e-02  1.5636758354513910e-01  7.6878911568902211e-02  2.8861231463790715e-02  9.1006996576294227e-02  7.0832690479731966e-02  6.8864419448067260e-02  1.1532028712339296e-01  5.1038138350535493e-02  4.2056643004441847e-02  1.8908055881706781e-02  1.6496532567138313e-02  7.4638130419948760e-03  1.4738919112776215e-02  4.9147523040687733e-03  9.8498359385322705e-03  1.6509739514008599e-02  1.4948364528704666e-02  1.4805034558946543e-03  5.8606724583935140e-03  1.8451357473995328e-03  2.5615314693708546e-02  4.0966108909609444e-02  1.4408438406826303e-02  8.2078204373934715e-03  1.2317077962534223e-02  1.0842225583628195e-02  5.8754558083656825e-03  6.5017916178165660e-03  1.3462364243235129e-02  5.9417116894966756e-03  2.3755422625652882e-02  1.3256625741758270e-02  7.7602230419948860e-03  1.1450484800146468e-03  5.1860909683943733e-03  1.0151269818350161e-02  1.4188324143331291e-03  3.9913172194658919e-03  1.6325675287591787e-03  4.5684795408662306e-03  2.4826551669197357e-03  2.7552783216846484e-03  1.3776026119101763e-03  8.3093631094727531e-04  3.0092655381050560e-35  5.3926038442842604e-33  9.4147898500532734e-02  8.8617957097467503e-02  5.2232439112260172e-02  1.9649070380717970e-01  1.2852191249009756e-01  2.4702765666529422e-01  2.9222299546595391e-03  4.4753146141311130e-02  1.0862422730208844e-01  2.3481127083286951e-01  1.3371067929183036e-01  3.1578504827967635e-01  3.6703440913995761e-01  3.9275788768929905e-02  1.4474471359491761e-01  1.9956563300773986e-01  1.8779105894259307e-01  4.9866430429665304e-01  2.3687038269144124e-02  1.4893815671911714e-01  3.7174790449146115e-02  1.1369105728969187e-01  1.6605802785082335e-01  5.1906938332168429e-01  3.0804616122426648e-01  9.3895138744119866e-02  1.6852140195356469e-01  5.8175772737696800e-02  1.8432992113056651e-01  2.0285195577849033e-01  4.2457016462772064e-02  2.3524011184275769e-02  2.3776280047557777e-01  2.9530338103630555e-01  2.5225195507889181e-02  1.1568094596927314e-01  2.6561233533032474e-01  5.9084265298135784e-02  3.0565587513809093e-03  2.3954917799240127e-01  3.4625125088080744e-01  2.8275617770334921e-01  3.0633876920495567e-01  3.4038313592899376e-02  1.6525125610820290e-01  9.4396075805733476e-02  5.6057046229264537e-02  1.3445381183472299e-01  1.0673063229604837e-01  5.7827930531592256e-02  8.0181568784711929e-02  1.3530300712136201e-02  5.3070022187595045e-02  1.0546906911025551e-01  1.0303000242543062e-02  5.9948822854664921e-02  4.0429367762806236e-02  1.6493035124652122e-03  9.2142012068681889e-02  4.9831504625044570e-02  4.6036181854554090e-02  5.1626925108810971e-02  3.6359506605640649e-02  2.9750932432640671e-02  5.5635721974068131e-02  1.1395120050894684e-02  6.1391533159837431e-03  2.6776716763568594e-03  2.0568940947601737e-02  1.0475702363376667e-02  3.4533769048861384e-03  2.0732451606751155e-02  8.0288505013763507e-03  8.4463666058628788e-04  7.8053182109442563e-03  1.0217646431805666e-02  3.7989474445303678e-02  3.3116443289983290e-02  2.9604757805270143e-03  1.1631744177411680e-02  1.3939478397311847e-02  6.6075232508429425e-03  7.7740066217441414e-03  2.8156939781680624e-03  1.0195266824063531e-02  1.9663313766203651e-02  2.2139986897814469e-02  7.3697756079683019e-03  6.5083881186026099e-03  1.7560556834546564e-03  1.2315530854740941e-02  4.3284684902216933e-03  4.5426240679947967e-03  6.6731546509854597e-04  7.7231796021946594e-05  6.3999998920902636e-03  9.9432734871068569e-04  2.9825917275371509e-03  1.1596292647206459e-03  -1.1242839214088774e-19  -7.7037197775489434e-34  4.5851090890455561e-02  1.6034705946176633e-02  7.3303524943804058e-02  1.5781715467915397e-01  4.9946360991903894e-02  2.3193332064038941e-01  3.0061436218471547e-02  7.3976604462178677e-03  1.4942223660769380e-01  4.6615732097568573e-03  9.6787241486254019e-02  4.6976144482084640e-02  1.0666956204096824e-01  2.6518147920862634e-01  1.2355093609292898e-01  3.3835549712759816e-02  2.74117