<?xml version="1.0"?>
<VTKFile type="UnstructuredGrid"  version="0.1"  >
<UnstructuredGrid>
<Piece  NumberOfPoints="10201" NumberOfCells="20000">
<Points>
<DataArray  type="Float64"  NumberOfComponents="3"  format="ascii">0 0 0  0.01 0 0  0.02 0 0  0.03 0 0  0.04 0 0  0.05 0 0  0.06 0 0  0.07000000000000001 0 0  0.08 0 0  0.09 0 0  0.1 0 0  0.11 0 0  0.12 0 0  0.13 0 0  0.14 0 0  0.15 0 0  0.16 0 0  0.17 0 0  0.18 0 0  0.19 0 0  0.2 0 0  0.21 0 0  0.22 0 0  0.23 0 0  0.24 0 0  0.25 0 0  0.26 0 0  0.27 0 0  0.28 0 0  0.29 0 0  0.3 0 0  0.31 0 0  0.32 0 0  0.33 0 0  0.34 0 0  0.35 0 0  0.36 0 0  0.37 0 0  0.38 0 0  0.39 0 0  0.4 0 0  0.41 0 0  0.42 0 0  0.43 0 0  0.44 0 0  0.45 0 0  0.46 0 0  0.47 0 0  0.48 0 0  0.49 0 0  0.5 0 0  0.51 0 0  0.52 0 0  0.53 0 0  0.54 0 0  0.55 0 0  0.5600000000000001 0 0  0.57 0 0  0.58 0 0  0.59 0 0  0.6 0 0  0.61 0 0  0.62 0 0  0.63 0 0  0.64 0 0  0.65 0 0  0.66 0 0  0.67 0 0  0.68 0 0  0.6899999999999999 0 0  0.7 0 0  0.71 0 0  0.72 0 0  0.73 0 0  0.74 0 0  0.75 0 0  0.76 0 0  0.77 0 0  0.78 0 0  0.79 0 0  0.8 0 0  0.8100000000000001 0 0  0.82 0 0  0.83 0 0  0.84 0 0  0.85 0 0  0.86 0 0  0.87 0 0  0.88 0 0  0.89 0 0  0.9 0 0  0.91 0 0  0.92 0 0  0.93 0 0  0.9399999999999999 0 0  0.95 0 0  0.96 0 0  0.97 0 0  0.98 0 0  0.99 0 0  1 0 0  0 0.01 0  0.01 0.01 0  0.02 0.01 0  0.03 0.01 0  0.04 0.01 0  0.05 0.01 0  0.06 0.01 0  0.07000000000000001 0.01 0  0.08 0.01 0  0.09 0.01 0  0.1 0.01 0  0.11 0.01 0  0.12 0.01 0  0.13 0.01 0  0.14 0.01 0  0.15 0.01 0  0.16 0.01 0  0.17 0.01 0  0.18 0.01 0  0.19 0.01 0  0.2 0.01 0  0.21 0.01 0  0.22 0.01 0  0.23 0.01 0  0.24 0.01 0  0.25 0.01 0  0.26 0.01 0  0.27 0.01 0  0.28 0.01 0  0.29 0.01 0  0.3 0.01 0  0.31 0.01 0  0.32 0.01 0  0.33 0.01 0  0.34 0.01 0  0.35 0.01 0  0.36 0.01 0  0.37 0.01 0  0.38 0.01 0  0.39 0.01 0  0.4 0.01 0  0.41 0.01 0  0.42 0.01 0  0.43 0.01 0  0.44 0.01 0  0.45 0.01 0  0.46 0.01 0  0.47 0.01 0  0.48 0.01 0  0.49 0.01 0  0.5 0.01 0  0.51 0.01 0  0.52 0.01 0  0.53 0.01 0  0.54 0.01 0  0.55 0.01 0  0.5600000000000001 0.01 0  0.57 0.01 0  0.58 0.01 0  0.59 0.01 0  0.6 0.01 0  0.61 0.01 0  0.62 0.01 0  0.63 0.01 0  0.64 0.01 0  0.65 0.01 0  0.66 0.01 0  0.67 0.01 0  0.68 0.01 0  0.6899999999999999 0.01 0  0.7 0.01 0  0.71 0.01 0  0.72 0.01 0  0.73 0.01 0  0.74 0.01 0  0.75 0.01 0  0.76 0.01 0  0.77 0.01 0  0.78 0.01 0  0.79 0.01 0  0.8 0.01 0  0.8100000000000001 0.01 0  0.82 0.01 0  0.83 0.01 0  0.84 0.01 0  0.85 0.01 0  0.86 0.01 0  0.87 0.01 0  0.88 0.01 0  0.89 0.01 0  0.9 0.01 0  0.91 0.01 0  0.92 0.01 0  0.93 0.01 0  0.9399999999999999 0.01 0  0.95 0.01 0  0.96 0.01 0  0.97 0.01 0  0.98 0.01 0  0.99 0.01 0  1 0.01 0  0 0.02 0  0.01 0.02 0  0.02 0.02 0  0.03 0.02 0  0.04 0.02 0  0.05 0.02 0  0.06 0.02 0  0.07000000000000001 0.02 0  0.08 0.02 0  0.09 0.02 0  0.1 0.02 0  0.11 0.02 0  0.12 0.02 0  0.13 0.02 0  0.14 0.02 0  0.15 0.02 0  0.16 0.02 0  0.17 0.02 0  0.18 0.02 0  0.19 0.02 0  0.2 0.02 0  0.21 0.02 0  0.22 0.02 0  0.23 0.02 0  0.24 0.02 0  0.25 0.02 0  0.26 0.02 0  0.27 0.02 0  0.28 0.02 0  0.29 0.02 0  0.3 0.02 0  0.31 0.02 0  0.32 0.02 0  0.33 0.02 0  0.34 0.02 0  0.35 0.02 0  0.36 0.02 0  0.37 0.02 0  0.38 0.02 0  0.39 0.02 0  0.4 0.02 0  0.41 0.02 0  0.42 0.02 0  0.43 0.02 0  0.44 0.02 0  0.45 0.02 0  0.46 0.02 0  0.47 0.02 0  0.48 0.02 0  0.49 0.02 0  0.5 0.02 0  0.51 0.02 0  0.52 0.02 0  0.53 0.02 0  0.54 0.02 0  0.55 0.02 0  0.5600000000000001 0.02 0  0.57 0.02 0  0.58 0.02 0  0.59 0.02 0  0.6 0.02 0  0.61 0.02 0  0.62 0.02 0  0.63 0.02 0  0.64 0.02 0  0.65 0.02 0  0.66 0.02 0  0.67 0.02 0  0.68 0.02 0  0.6899999999999999 0.02 0  0.7 0.02 0  0.71 0.02 0  0.72 0.02 0  0.73 0.02 0  0.74 0.02 0  0.75 0.02 0  0.76 0.02 0  0.77 0.02 0  0.78 0.02 0  0.79 0.02 0  0.8 0.02 0  0.8100000000000001 0.02 0  0.82 0.02 0  0.83 0.02 0  0.84 0.02 0  0.85 0.02 0  0.86 0.02 0  0.87 0.02 0  0.88 0.02 0  0.89 0.02 0  0.9 0.02 0  0.91 0.02 0  0.92 0.02 0  0.93 0.02 0  0.9399999999999999 0.02 0  0.95 0.02 0  0.96 0.02 0  0.97 0.02 0  0.98 0.02 0  0.99 0.02 0  1 0.02 0  0 0.03 0  0.01 0.03 0  0.02 0.03 0  0.03 0.03 0  0.04 0.03 0  0.05 0.03 0  0.06 0.03 0  0.07000000000000001 0.03 0  0.08 0.03 0  0.09 0.03 0  0.1 0.03 0  0.11 0.03 0  0.12 0.03 0  0.13 0.03 0  0.14 0.03 0  0.15 0.03 0  0.16 0.03 0  0.17 0.03 0  0.18 0.03 0  0.19 0.03 0  0.2 0.03 0  0.21 0.03 0  0.22 0.03 0  0.23 0.03 0  0.24 0.03 0  0.25 0.03 0  0.26 0.03 0  0.27 0.03 0  0.28 0.03 0  0.29 0.03 0  0.3 0.03 0  0.31 0.03 0  0.32 0.03 0  0.33 0.03 0  0.34 0.03 0  0.35 0.03 0  0.36 0.03 0  0.37 0.03 0  0.38 0.03 0  0.39 0.03 0  0.4 0.03 0  0.41 0.03 0  0.42 0.03 0  0.43 0.03 0  0.44 0.03 0  0.45 0.03 0  0.46 0.03 0  0.47 0.03 0  0.48 0.03 0  0.49 0.03 0  0.5 0.03 0  0.51 0.03 0  0.52 0.03 0  0.53 0.03 0  0.54 0.03 0  0.55 0.03 0  0.5600000000000001 0.03 0  0.57 0.03 0  0.58 0.03 0  0.59 0.03 0  0.6 0.03 0  0.61 0.03 0  0.62 0.03 0  0.63 0.03 0  0.64 0.03 0  0.65 0.03 0  0.66 0.03 0  0.67 0.03 0  0.68 0.03 0  0.6899999999999999 0.03 0  0.7 0.03 0  0.71 0.03 0  0.72 0.03 0  0.73 0.03 0  0.74 0.03 0  0.75 0.03 0  0.76 0.03 0  0.77 0.03 0  0.78 0.03 0  0.79 0.03 0  0.8 0.03 0  0.8100000000000001 0.03 0  0.82 0.03 0  0.83 0.03 0  0.84 0.03 0  0.85 0.03 0  0.86 0.03 0  0.87 0.03 0  0.88 0.03 0  0.89 0.03 0  0.9 0.03 0  0.91 0.03 0  0.92 0.03 0  0.93 0.03 0  0.9399999999999999 0.03 0  0.95 0.03 0  0.96 0.03 0  0.97 0.03 0  0.98 0.03 0  0.99 0.03 0  1 0.03 0  0 0.04 0  0.01 0.04 0  0.02 0.04 0  0.03 0.04 0  0.04 0.04 0  0.05 0.04 0  0.06 0.04 0  0.07000000000000001 0.04 0  0.08 0.04 0  0.09 0.04 0  0.1 0.04 0  0.11 0.04 0  0.12 0.04 0  0.13 0.04 0  0.14 0.04 0  0.15 0.04 0  0.16 0.04 0  0.17 0.04 0  0.18 0.04 0  0.19 0.04 0  0.2 0.04 0  0.21 0.04 0  0.22 0.04 0  0.23 0.04 0  0.24 0.04 0  0.25 0.04 0  0.26 0.04 0  0.27 0.04 0  0.28 0.04 0  0.29 0.04 0  0.3 0.04 0  0.31 0.04 0  0.32 0.04 0  0.33 0.04 0  0.34 0.04 0  0.35 0.04 0  0.36 0.04 0  0.37 0.04 0  0.38 0.04 0  0.39 0.04 0  0.4 0.04 0  0.41 0.04 0  0.42 0.04 0  0.43 0.04 0  0.44 0.04 0  0.45 0.04 0  0.46 0.04 0  0.47 0.04 0  0.48 0.04 0  0.49 0.04 0  0.5 0.04 0  0.51 0.04 0  0.52 0.04 0  0.53 0.04 0  0.54 0.04 0  0.55 0.04 0  0.5600000000000001 0.04 0  0.57 0.04 0  0.58 0.04 0  0.59 0.04 0  0.6 0.04 0  0.61 0.04 0  0.62 0.04 0  0.63 0.04 0  0.64 0.04 0  0.65 0.04 0  0.66 0.04 0  0.67 0.04 0  0.68 0.04 0  0.6899999999999999 0.04 0  0.7 0.04 0  0.71 0.04 0  0.72 0.04 0  0.73 0.04 0  0.74 0.04 0  0.75 0.04 0  0.76 0.04 0  0.77 0.04 0  0.78 0.04 0  0.79 0.04 0  0.8 0.04 0  0.8100000000000001 0.04 0  0.82 0.04 0  0.83 0.04 0  0.84 0.04 0  0.85 0.04 0  0.86 0.04 0  0.87 0.04 0  0.88 0.04 0  0.89 0.04 0  0.9 0.04 0  0.91 0.04 0  0.92 0.04 0  0.93 0.04 0  0.9399999999999999 0.04 0  0.95 0.04 0  0.96 0.04 0  0.97 0.04 0  0.98 0.04 0  0.99 0.04 0  1 0.04 0  0 0.05 0  0.01 0.05 0  0.02 0.05 0  0.03 0.05 0  0.04 0.05 0  0.05 0.05 0  0.06 0.05 0  0.07000000000000001 0.05 0  0.08 0.05 0  0.09 0.05 0  0.1 0.05 0  0.11 0.05 0  0.12 0.05 0  0.13 0.05 0  0.14 0.05 0  0.15 0.05 0  0.16 0.05 0  0.17 0.05 0  0.18 0.05 0  0.19 0.05 0  0.2 0.05 0  0.21 0.05 0  0.22 0.05 0  0.23 0.05 0  0.24 0.05 0  0.25 0.05 0  0.26 0.05 0  0.27 0.05 0  0.28 0.05 0  0.29 0.05 0  0.3 0.05 0  0.31 0.05 0  0.32 0.05 0  0.33 0.05 0  0.34 0.05 0  0.35 0.05 0  0.36 0.05 0  0.37 0.05 0  0.38 0.05 0  0.39 0.05 0  0.4 0.05 0  0.41 0.05 0  0.42 0.05 0  0.43 0.05 0  0.44 0.05 0  0.45 0.05 0  0.46 0.05 0  0.47 0.05 0  0.48 0.05 0  0.49 0.05 0  0.5 0.05 0  0.51 0.05 0  0.52 0.05 0  0.53 0.05 0  0.54 0.05 0  0.55 0.05 0  0.5600000000000001 0.05 0  0.57 0.05 0  0.58 0.05 0  0.59 0.05 0  0.6 0.05 0  0.61 0.05 0  0.62 0.05 0  0.63 0.05 0  0.64 0.05 0  0.65 0.05 0  0.66 0.05 0  0.67 0.05 0  0.68 0.05 0  0.6899999999999999 0.05 0  0.7 0.05 0  0.71 0.05 0  0.72 0.05 0  0.73 0.05 0  0.74 0.05 0  0.75 0.05 0  0.76 0.05 0  0.77 0.05 0  0.78 0.05 0  0.79 0.05 0  0.8 0.05 0  0.8100000000000001 0.05 0  0.82 0.05 0  0.83 0.05 0  0.84 0.05 0  0.85 0.05 0  0.86 0.05 0  0.87 0.05 0  0.88 0.05 0  0.89 0.05 0  0.9 0.05 0  0.91 0.05 0  0.92 0.05 0  0.93 0.05 0  0.9399999999999999 0.05 0  0.95 0.05 0  0.96 0.05 0  0.97 0.05 0  0.98 0.05 0  0.99 0.05 0  1 0.05 0  0 0.06 0  0.01 0.06 0  0.02 0.06 0  0.03 0.06 0  0.04 0.06 0  0.05 0.06 0  0.06 0.06 0  0.07000000000000001 0.06 0  0.08 0.06 0  0.09 0.06 0  0.1 0.06 0  0.11 0.06 0  0.12 0.06 0  0.13 0.06 0  0.14 0.06 0  0.15 0.06 0  0.16 0.06 0  0.17 0.06 0  0.18 0.06 0  0.19 0.06 0  0.2 0.06 0  0.21 0.06 0  0.22 0.06 0  0.23 0.06 0  0.24 0.06 0  0.25 0.06 0  0.26 0.06 0  0.27 0.06 0  0.28 0.06 0  0.29 0.06 0  0.3 0.06 0  0.31 0.06 0  0.32 0.06 0  0.33 0.06 0  0.34 0.06 0  0.35 0.06 0  0.36 0.06 0  0.37 0.06 0  0.38 0.06 0  0.39 0.06 0  0.4 0.06 0  0.41 0.06 0  0.42 0.06 0  0.43 0.06 0  0.44 0.06 0  0.45 0.06 0  0.46 0.06 0  0.47 0.06 0  0.48 0.06 0  0.49 0.06 0  0.5 0.06 0  0.51 0.06 0  0.52 0.06 0  0.53 0.06 0  0.54 0.06 0  0.55 0.06 0  0.5600000000000001 0.06 0  0.57 0.06 0  0.58 0.06 0  0.59 0.06 0  0.6 0.06 0  0.61 0.06 0  0.62 0.06 0  0.63 0.06 0  0.64 0.06 0  0.65 0.06 0  0.66 0.06 0  0.67 0.06 0  0.68 0.06 0  0.6899999999999999 0.06 0  0.7 0.06 0  0.71 0.06 0  0.72 0.06 0  0.73 0.06 0  0.74 0.06 0  0.75 0.06 0  0.76 0.06 0  0.77 0.06 0  0.78 0.06 0  0.79 0.06 0  0.8 0.06 0  0.8100000000000001 0.06 0  0.82 0.06 0  0.83 0.06 0  0.84 0.06 0  0.85 0.06 0  0.86 0.06 0  0.87 0.06 0  0.88 0.06 0  0.89 0.06 0  0.9 0.06 0  0.91 0.06 0  0.92 0.06 0  0.93 0.06 0  0.9399999999999999 0.06 0  0.95 0.06 0  0.96 0.06 0  0.97 0.06 0  0.98 0.06 0  0.99 0.06 0  1 0.06 0  0 0.07000000000000001 0  0.01 0.07000000000000001 0  0.02 0.07000000000000001 0  0.03 0.07000000000000001 0  0.04 0.07000000000000001 0  0.05 0.07000000000000001 0  0.06 0.07000000000000001 0  0.07000000000000001 0.07000000000000001 0  0.08 0.07000000000000001 0  0.09 0.07000000000000001 0  0.1 0.07000000000000001 0  0.11 0.07000000000000001 0  0.12 0.07000000000000001 0  0.13 0.07000000000000001 0  0.14 0.07000000000000001 0  0.15 0.07000000000000001 0  0.16 0.07000000000000001 0  0.17 0.0700
[...]
<PointData  Scalars="Indicator Function"> 
<DataArray  type="Float64"  Name="Indicator Function"  format="ascii">-1.0955091142596654e-18  1.9822480506132286e-17  8.2757039165839118e-17  2.2909505729825034e-18  1.3935865596371819e-16  -5.8591098388844443e-19  -8.5121084678700625e-19  9.0362824628578044e-17  6.1453590559929287e-16  -3.8225046623946783e-19  2.4635373221118271e-16  2.4960609443106458e-16  -4.6038385829244164e-19  -3.7152518172973685e-18  4.2045413701919712e-16  -2.0227841859609902e-18  -7.6459843951492645e-18  6.3776194767970249e-16  -2.5121765440359598e-18  -3.1034180840891109e-18  1.7655835686010301e-15  -3.6121477395552794e-18  -3.0174921951603696e-18  1.0109746142276500e-15  -3.2428711265421379e-19  -2.6559012410294189e-18  -1.5998220414249772e-18  -1.0152234085150667e-18  2.1739628956289914e-16  -2.4996088467697754e-18  -3.1932097260405705e-18  -2.1718225749842101e-18  -2.4519586224170264e-18  -4.3180093000508418e-18  6.5163454959877772e-17  -1.5114651269789659e-18  -5.9100989512810471e-18  -8.5463116707483593e-18  -9.5490099532404134e-18  -1.2143919441105473e-17  1.0915276224997015e-15  -1.3049296423626726e-18  -3.4264123267266719e-18  -3.7667469285782850e-18  -2.6775949435235073e-18  -1.3387974717617080e-18  2.2672787168226681e-16  -1.3959853513814266e-18  -4.5767289186245558e-19  -8.5357114374400145e-19  -4.1108985768707743e-19  -2.1964243948055948e-19  -3.5547922583904310e-19  -1.1702466712643903e-18  -1.0078143717208214e-18  -5.4085973647231078e-19  1.0623925275790236e-16  -2.4804450129585555e-19  -1.3073777233329327e-19  -1.0010576967857568e-19  -3.2980810762934873e-20  -3.0437013635812258e-19  -1.0697505805700972e-19  2.4074124304840448e-35  -2.4746177428508827e-20  -5.4887509763069498e-20  -9.5535046875293511e-20  -4.6643615840628368e-34  2.7977834371549944e-17  -2.9603513886034552e-19  1.2037062152420224e-35  -1.6058097238407851e-21  -4.2089368671448575e-20  -4.7855461465615893e-19  -1.0691098953801190e-18  -5.2077198899842077e-19  -1.4116461124297976e-19  -3.7744433300564387e-19  -2.7836328346424412e-19  -1.6924343877308309e-19  -9.6742592075284761e-20  3.2363434334884036e-18  -1.2224361855846154e-19  -3.6629401892219258e-19  -2.8323437352327688e-19  -1.4780514020995576e-19  -3.3866786056859109e-20  -5.0467466733816502e-20  -7.2418143228470244e-20  -2.4942157646833378e-20  -6.6448719882592155e-21  -1.1373563993309686e-20  -1.0673370620693609e-20  5.6340601238395320e-18  -2.6174186704634174e-21  0.0000000000000000e+00  -6.3862879958551222e-22  -1.0466276935090600e-21  -1.1696398743374474e-21  -1.5281426560689738e-37  2.8211864419734900e-37  7.7037197775489434e-34  1.9734937755043279e-02  8.1643895830062707e-02  2.5633752469251508e-02  2.0920510416785151e-02  1.6897249613487972e-02  1.0554833954849113e-02  1.5334051409614746e-02  7.1737253654758859e-02  7.7218605398964468e-02  6.8860122292729864e-03  1.1320765655847771e-01  1.6587076581225865e-02  8.4889204912703312e-02  2.4483424343520223e-02  1.3818147194496860e-01  1.1119957095018894e-01  8.2138024416405192e-02  9.0510698780873963e-02  1.1181242021662746e-01  2.2336334997291055e-02  1.2416643799152442e-01  6.5070668855473357e-02  2.1822972475133554e-02  1.1683674557684579e-02  9.5688926715463404e-02  5.7639663596965034e-02  3.6577278114289326e-02  9.3615043734374335e-05  1.4368594314137830e-02  3.7844652726468517e-02  7.8248154715309770e-02  4.1810445276376985e-02  2.3265337114792280e-02  6.6153671741369116e-02  5.4456270261167769e-02  1.7562089171255235e-02  9.7685833153220686e-02  2.0730378034047550e-01  2.0141356189918350e-01  1.4034537686848739e-01  6.3047153701129746e-02  2.3507522604356974e-02  8.3563845141574222e-02  4.4634042646926851e-02  4.8235262359606360e-02  4.1890935730163399e-02  1.1951058093705575e-02  2.5147836433184256e-02  8.2447018609973308e-03  1.5376570739598770e-02  7.4055365195812494e-03  1.2807488872213340e-02  7.2949111773165116e-03  1.7433834301893224e-02  1.5594727170811243e-02  9.7432628305458638e-03  8.9367449888585158e-03  4.7103246621077463e-03  3.6066904561765614e-03  1.1882589364986429e-03  2.4857023087171831e-03  4.2401937763820001e-03  1.6967169667383118e-03  1.2284634005405013e-03  1.1073122563047576e-04  1.2651750987822347e-03  1.0884188566424612e-03  1.6376217260953055e-03  4.1976812953949593e-03  3.2340543165426199e-03  1.0408741120461805e-03  1.5164293205199612e-03  3.2119767340855702e-03  1.2322999625823325e-02  1.4236771879051128e-02  5.5115330088566930e-03  2.5429955623671378e-03  5.5279348487257242e-03  5.1158405705584980e-03  3.5316982033570111e-03  1.8170895340188153e-03  1.4857340952499404e-03  4.0460752089452523e-03  5.5450668928347380e-03  4.5589358695481254e-03  2.7382031866089430e-03  1.4882305517819174e-03  1.3144475283072428e-03  8.9810158948065732e-04  2.7395280057642448e-04  1.1970337204099530e-04  2.3434898209946894e-04  2.8414423096604659e-04  2.0232979056502602e-04  1.1208763004980273e-04  2.7050258299102664e-05  1.1504513695365518e-05  2.4195462299710074e-05  3.8650030330895033e-05  5.6210866477683367e-22  -8.7607827139020335e-19  1.3308605956187479e-02  2.0953780558694769e-02  3.3418965005830928e-02  3.2980206986193715e-02  6.6339888116634702e-02  1.2615390760304847e-02  6.8126794593498075e-02  3.3805619695322022e-03  6.5995914442491713e-02  1.1593098351320674e-01  6.6879669443520737e-02  1.9448374873999107e-02  1.5017022177286657e-01  1.4901634041359887e-01  2.0009808975839219e-01  5.6166064659552872e-02  1.6053681584759699e-01  1.0778915768787124e-02  5.9287994994186750e-02  3.1821886966302469e-02  1.5427825810412071e-01  4.7383628074592669e-02  3.0897710994667326e-02  2.8942188250216012e-02  1.3097773102545184e-02  1.2978515152775110e-02  3.2136955044449224e-02  2.0473868939414535e-02  1.1157755829785775e-02  1.2091238591608895e-01  6.6347869828320347e-02  8.0067484560584698e-02  6.5764987653346707e-02  1.0419579912036764e-01  4.9412384273253042e-02  1.7656739474559043e-02  9.7983848792560169e-02  1.6482714388332856e-01  2.1394789516191559e-01  2.5856198559065424e-01  1.0857914810962700e-01  3.7608578642851116e-02  4.5587931788405311e-02  6.9532982214005432e-02  2.7584823638258683e-03  8.2455908422774116e-03  1.0549769658376855e-02  4.7251561260222008e-02  2.4939627765930176e-02  2.7865862930155503e-02  1.0029771006538716e-02  6.7949799565867632e-04  2.0449210634680515e-02  3.3928139469320578e-02  1.3473364305583027e-02  6.7678534980063893e-04  1.9510258388791657e-03  7.3753758417454442e-03  6.0015808094510429e-03  5.7282069187789969e-03  3.0765882365491035e-03  7.2540074746971963e-03  2.0805674911513711e-03  1.6982044317921596e-03  7.2248066191059020e-04  7.4300620363214884e-04  1.9286354475103358e-03  7.7791119627667552e-04  3.9992827080552783e-03  5.1968985209771704e-03  1.4058795245746045e-03  1.7469493389435707e-03  2.2430325266977597e-04  1.0179481370942971e-02  1.7890965730047885e-02  1.0905202886029974e-02  1.4880803579970692e-04  5.3658607403758518e-03  6.1491963243798841e-03  5.0354595878868815e-03  3.0573164653385741e-03  1.4587878738897869e-03  3.1511082518111510e-03  6.4398388900331156e-03  5.7924843968167293e-03  4.1503934396297142e-03  2.0406328901847394e-03  1.6528499637530527e-03  1.3456006512907494e-03  5.8228588958742541e-04  4.6763543720043218e-05  2.1643655541852974e-04  3.3023507285387594e-04  3.0511148081615154e-04  1.8569461186452368e-04  8.9115456938417066e-05  1.7456543089746447e-05  4.4322409046735816e-06  2.8007437727123304e-05  -2.2325474032263879e-21  1.9259299443872359e-33  6.0066877693574973e-02  4.6118206656701188e-02  1.4422244254038868e-01  4.5863543837355893e-02  1.1788229224725742e-02  3.3956827055066870e-02  6.3945787997551989e-02  4.0815228421487562e-02  1.1394832042638832e-01  2.2549830103315366e-01  1.2606854178672486e-01  1.6343743442617051e-01  1.1634125383590659e-01  8.7226943618145689e-02  6.7879692787753798e-02  2.6206070336582604e-01  1.0771741245825399e-01  1.1361624275978285e-01  9.0937479248918332e-02  2.2789829937371070e-01  1.7047618929032213e-01  2.6702883422270957e-01  2.0104747038828233e-01  2.4354542460606286e-02  1.2042024058179198e-02  1.5375429607324953e-01  1.9093579306444311e-01  1.1914451923829575e-01  1.6451312290157692e-02  8.6137719920400379e-03  8.6950591452711515e-02  1.4033144877750545e-01  1.1287753587733711e-01  2.7263026269348813e-02  1.0409883683426886e-01  7.1945335614662972e-02  3.4126914368072379e-02  1.3861623037716886e-01  2.7476505436017284e-01  1.8980356751883734e-01  1.5414144564449273e-01  8.2586427818558086e-02  5.2561568201485546e-02  1.1284736149682334e-01  2.8101160232733260e-02  9.9675961920590916e-02  1.2701811729445409e-01  7.0535078696066469e-02  6.5096741749061562e-02  3.8435909993154944e-02  4.3168215429564623e-02  2.6880606482127988e-02  9.8204477742555429e-03  1.2502971926630520e-02  2.4774432585556862e-02  1.5080967878700358e-02  2.2014813950013531e-02  2.3633881074641958e-02  1.3057652514708307e-02  7.5278140806067520e-03  2.6615383014280056e-03  3.2834984404000187e-03  6.3463175058192664e-03  2.4200544515298774e-04  1.7131752430304212e-03  9.4925265480176352e-05  1.7841255382256137e-03  1.1191977941433140e-03  1.7372317706579909e-03  6.0872284312898130e-03  3.4054387861261557e-03  2.9357850232481923e-04  3.0040863317935310e-03  4.5523053425398684e-03  1.6913747082659872e-02  1.6465214548562132e-02  3.0220989191494219e-03  4.1421184476690097e-03  5.8065818039733904e-03  5.4164981682747202e-03  3.9680344145893495e-03  1.9386813195955556e-03  1.7423063922718204e-03  5.4940166366038382e-03  6.8333651108083687e-03  4.7865211040609658e-03  2.8842663981136960e-03  1.5961227546097167e-03  1.7930368478417103e-03  9.9774303523296015e-04  1.7336779965698265e-04  1.7482073863850034e-04  2.2632384903027703e-04  3.3920731069664588e-04  2.2040507197996150e-04  1.3000351832059178e-04  3.7585970758473464e-05  9.0539622793339454e-06  9.2624092899080877e-06  -1.2854175071447494e-21  -4.3092478329352914e-19  5.1496109197283174e-02  4.9005497362220464e-02  6.7854921341555061e-02  3.0583479329460091e-02  5.4207936269256782e-02  6.5890484490757448e-02  6.2169735441929365e-02  8.1334827660285658e-02  2.2031851293823443e-02  1.4925330064942541e-02  7.7584716002087759e-02  1.2178328632017295e-01  1.4115472010847582e-01  1.5757990236962835e-01  3.1220293895780271e-01  1.2646996556661616e-01  1.4993288511482643e-02  1.8766849716844228e-01  4.0875916267192154e-03  1.4008121400692408e-01  1.5261081352800429e-01  1.0431567413634882e-01  2.5281226680084645e-02  8.5839936913560053e-02  4.8413571116231215e-02  4.5638874354769404e-02  1.0175524463528814e-01  2.8645066502861517e-02  3.8788339171003716e-02  1.8655411769188401e-02  1.3586360153085342e-01  1.1833335389842796e-01  1.2368072518105139e-01  1.7981545648634448e-01  7.5711735596950255e-02  2.0060732382125218e-02  2.4992706338804589e-02  9.9504787486712806e-02  1.5257005380984814e-01  2.5462731300446756e-01  2.7025800665110661e-01  5.6485515751134689e-02  5.1255491914194366e-02  1.9384903099031486e-02  8.9893309880845679e-02  1.1669595062811051e-02  2.8576921759634943e-02  3.3169911253007958e-02  3.2315363209649083e-02  2.8634086513098421e-02  2.8739394099428491e-02  5.0656538213752194e-03  5.9101981649983849e-03  2.7161191662253833e-02  5.1196909906651954e-02  6.9664415133933793e-03  7.7180460387301047e-04  8.6076710552299863e-03  1.8917935902053571e-02  1.5049923410313994e-02  1.1432565956938428e-02  6.7364076595699523e-03  1.0060487474490605e-02  1.4607406508110156e-03  9.5859911957757395e-04  9.0129522706078194e-04  9.5302975087500799e-04  2.2914015371868937e-03  1.2541056871676290e-04  4.4769400756849900e-03  6.1930373513869640e-03  4.4479524291850118e-04  1.8288650629505125e-03  1.7257621399520871e-03  1.1770534968353187e-02  2.0417731443580750e-02  9.7261551111494354e-03  3.1016910672065057e-03  5.7211881646376120e-03  5.4394615605297802e-03  4.6773631297100157e-03  2.8516982699881214e-03  1.0528733365137211e-03  3.3249470378139533e-03  7.3306691094969529e-03  5.7866860311457735e-03  3.7965585676252747e-03  1.7364343910494496e-03  1.7465459212760894e-03  1.5995530756126755e-03  5.2676005625184143e-04  1.1924052340738768e-04  1.5880844087819596e-04  2.6892710200957561e-04  2.7678335684424963e-04  1.3825929957627165e-04  6.1652022334550820e-05  6.0148797280045256e-06  5.8571209808851042e-06  1.3582898252299198e-21  -4.3901763529388343e-18  1.5555979198418074e-01  1.1565835647609081e-01  1.6311418532536637e-02  1.6835020427690450e-01  1.3884757719211913e-01  2.2110119343869614e-02  7.4392103661290654e-03  6.5847906723125307e-02  1.0605118314100001e-01  1.0008417965372250e-01  2.5511276064287353e-01  2.5781245294456168e-01  6.6283180131433569e-02  1.4940405965448506e-01  5.1218054853126305e-02  1.6227780130158007e-02  3.5203533204745679e-01  4.3759620898607965e-02  1.2019320782944162e-01  2.9551673272039655e-02  1.8462676716035528e-01  2.1519526351800286e-01  3.4825717585144056e-01  2.7597388305881171e-01  6.3817998069423551e-02  4.1944621403554372e-02  1.0209605910825129e-01  2.2255495662898445e-01  1.7976331948980800e-01  6.1191988613734276e-03  1.9291961749115356e-03  1.6273021502866358e-01  2.0221806167953060e-01  8.5476711307132858e-02  6.3488730835750129e-03  1.4671950727218866e-01  6.1576854931623334e-02  5.3413740343096865e-02  1.6562794301596651e-01  2.6099897950526757e-01  1.6639879623005502e-01  1.9436207604487665e-01  6.8781306627819186e-02  9.7940985059733962e-02  9.9010898680717149e-02  1.2419256870125866e-02  1.1216761893660497e-01  1.5481780531593919e-01  9.7674492365667248e-02  9.1816760578747700e-02  6.6529795557744117e-02  6.3706948152451537e-02  4.0193335165411931e-02  5.2746049504499700e-03  6.0306312210952158e-03  3.8636359509032700e-02  7.9405384020805585e-03  2.7347435825582338e-02  2.7666226682597550e-02  1.2063896523408012e-02  4.8534218850035957e-03  5.9337975126877939e-04  1.4339718691628403e-03  8.5365771085060514e-03  1.1894634070537186e-03  1.7566695185856718e-03  1.9012785325684618e-04  2.0058072298278088e-03  1.2920968563290326e-03  1.2197059830280474e-03  7.0669074965875470e-03  3.6862377717415853e-03  7.4091782277923679e-04  3.9320202325640440e-03  3.9389969747226734e-03  1.8928954353222165e-02  1.7771822691037956e-02  9.1261714046915422e-04  5.8275962715323513e-03  5.5472871186356054e-03  4.9100548340853204e-03  3.9078802963037826e-03  1.7369803018781856e-03  1.4485987363541900e-03  5.9018499979089359e-03  7.3699000737696444e-03  4.4749388384540800e-03  2.6305511058949608e-03  1.3669319003984765e-03  1.9722850192092482e-03  1.0697735135660436e-03  6.3880708627334510e-05  2.1801326810841375e-04  1.7378161387056478e-04  3.1508236081183620e-04  1.9058196208310532e-04  9.2943497857017948e-05  9.4184345288218466e-06  1.5967455383269435e-05  -8.8637183055902963e-22  -1.4402985649282244e-18  1.2588045681821411e-01  4.9884858662792429e-02  4.4391957908877976e-02  1.4438840897050412e-01  5.7990324965866993e-02  4.6834721536094755e-02  2.7717658890797008e-02  1.0199475547250202e-01  4.4125982351244111e-02  6.6155567856952737e-04  1.7513199095362239e-02  3.2636210769454874e-02  4.4358325530057816e-03  2.0886957190560396e-01  3.4724845354048253e-02  3.1762909734995437e-01  1.1612003444650149e-02  7.0037931825956787e-02  1.8637534493018373e-01  4.2986678144698871e-02  1.1261903595070162e-01  2.5337619336953759e-01  4.3087236076687881e-03  5.3381725135558868e-02  1.9017030570366983e-01  8.5990103818613509e-02  3.7492852990931498e-03  1.4639396670876956e-01  1.4052303295946683e-01  7.8987662370138489e-02  2.7011946661999311e-02  9.8040682591840664e-02  9.8171633054833091e-02  1.3975529371488679e-01  2.4660310856335385e-01  1.5454079099386706e-02  2.5863396723763303e-02  4.2427898677096058e-02  9.5047016871845358e-02  1.7645232527560814e-01  2.9453017067919302e-01  2.3105784222343265e-01  4.0946343966179459e-02  3.3516316827596433e-02  2.9882161206905566e-02  1.0860476768966697e-01  3.1301214648594693e-02  6.3312479283758077e-02  9.6707659553880554e-02  1.1913819146349374e-02  3.8315156334466655e-03  6.7045048748804797e-03  1.4476236079000414e-02  2.1907058677876162e-02  2.3166416784855967e-02  5.3881946191786156e-02  1.0156995293405512e-02  5.5350704513705221e-03  1.4558700501128822e-02  2.7564397419107923e-02  2.0128765487191787e-02  1.3269398870640721e-02  7.6929947116817143e-03  1.0393096192123783e-02  2.0377360778513318e-03  2.3778573327586043e-04  1.1059353626475120e-03  1.2454755427156853e-03  2.4972349593228283e-03  3.7000358764635267e-05  4.4714479913418393e-03  7.2012198537483706e-03  1.1250146068485134e-04  1.2924076257974342e-03  2.8398180896395901e-03  1.2482009429726390e-02  2.2461262124657658e-02  9.4794019443789224e-03  5.6446827001996611e-03  6.2997352981921549e-03  4.7914221291185735e-03  4.2981488931172771e-03  2.9169365166325460e-03  8.9856215549065962e-04  3.5057640889436361e-03  7.9390554178754326e-03  5.9669548586922918e-03  3.3939754942286147e-03  1.5476702475246105e-03  1.6809969251454634e-03  1.7913418506472240e-03  4.6123141526062541e-04  2.5063160858802581e-04  1.9158959672785692e-04  2.6365045427640684e-04  2.9841884008963881e-04  1.4119079442161708e-04  6.4405915232622034e-05  2.6895181167784905e-06  -1.4929824691969600e-22  3.2740809054583010e-33  5.6828822236261907e-02  5.8238909161453564e-02  1.9181274979088760e-02  1.1773915462571413e-01  8.6405211327199652e-02  1.7040695282159277e-01  5.3345362240973743e-03  5.6899924420688711e-02  2.7018012959641100e-02  1.2227717971946560e-01  7.4146865414999596e-02  1.9106343613017973e-01  2.1812885509343380e-01  3.5481674975052320e-03  4.0766634471920270e-02  7.9642900663793398e-02  1.1729832019975067e-01  3.0186984923346388e-01  8.1598481866426188e-03  1.0213146319314252e-01  2.0628378987046760e-02  9.3369889475306084e-02  1.1240323050637491e-01  3.1081252910536322e-01  2.3161511789601044e-01  2.4575907539024031e-02  4.7943255930357601e-02  5.6089861182911767e-02  1.3727977084580678e-01  1.5093034249559753e-01  1.7321658312571851e-02  5.6273938366030195e-02  1.7330360301886746e-01  2.5098927609326505e-01  3.4613977233035595e-02  9.3167575908383135e-02  1.3707788984987510e-01  3.6637310309959537e-02  6.9538854118432455e-02  1.7147111601464618e-01  2.3813208148835843e-01  1.9805534701526331e-01  2.0961121766895463e-01  2.6897497742577877e-02  1.1257241096727758e-01  7.6779513174178693e-02  1.7558587693136892e-02  1.1049090285788084e-01  1.2489238486238997e-01  5.7099760213504332e-02  7.2817622711720209e-02  6.2961529252743606e-02  5.9979501459618910e-02  3.3946804113656914e-02  1.2133166656913025e-02  4.5160188663150918e-03  4.8998014540127553e-02  2.5611910683387817e-03  2.9414487742367188e-02  2.3833804595083673e-02  4.9208281011081326e-03  7.4610802712012320e-04  2.2829958192149011e-03  3.4153210785815039e-04  9.6984198860726716e-03  1.6993689645582765e-03  1.1342736551847288e-03  1.9653558118437630e-04  2.3359718776235039e-03  1.5296068406741642e-03  1.0219361059095131e-03  7.4924149794660510e-03  4.2955912184903869e-03  1.3957275840520238e-03  3.9406368775352129e-03  3.1556312950925675e-03  2.0403085997534817e-02  1.9281796507915179e-02  3.7487860180070111e-04  8.0981795505101050e-03  5.5908244343513625e-03  4.2726930726431798e-03  3.6687336048684890e-03  1.6924763613393571e-03  1.3467034293238259e-03  6.3998091796529854e-03  7.9365210337112302e-03  4.4383717538498089e-03  2.2981453838528021e-03  1.2171189491194067e-03  2.0131379132546194e-03  1.1991124059574239e-03  5.4061565212094667e-05  3.2042131281549306e-04  2.0158746236818051e-04  3.3736483471018258e-04  2.3087577392629169e-04  1.2132725704441318e-04  4.4498825954567781e-05  4.2563726951289397e-22  5.7777898331617076e-34  1.1988957990595916e-02  1.8335107289679190e-02  5.0691455264132067e-02  8.7963419505186713e-02  4.5252497969907546e-02  1.4828744026113283e-01  1.7637831409196471e-02  8.0540449523718687e-03  8.3422588577874199e-02  2.1222821043585551e-02  2.3639534031493457e-02  2.4939805471635077e-02  4.9158626627527291e-02  1.1487208628806612e-01  1.2618968572323763e-01  1.7053095380648871e-02  2.