<?xml version="1.0"?>
<VTKFile type="UnstructuredGrid"  version="0.1"  >
<UnstructuredGrid>
<Piece  NumberOfPoints="10201" NumberOfCells="20000">
<Points>
<DataArray  type="Float64"  NumberOfComponents="3"  format="ascii">0 0 0  0.01 0 0  0.02 0 0  0.03 0 0  0.04 0 0  0.05 0 0  0.06 0 0  0.07000000000000001 0 0  0.08 0 0  0.09 0 0  0.1 0 0  0.11 0 0  0.12 0 0  0.13 0 0  0.14 0 0  0.15 0 0  0.16 0 0  0.17 0 0  0.18 0 0  0.19 0 0  0.2 0 0  0.21 0 0  0.22 0 0  0.23 0 0  0.24 0 0  0.25 0 0  0.26 0 0  0.27 0 0  0.28 0 0  0.29 0 0  0.3 0 0  0.31 0 0  0.32 0 0  0.33 0 0  0.34 0 0  0.35 0 0  0.36 0 0  0.37 0 0  0.38 0 0  0.39 0 0  0.4 0 0  0.41 0 0  0.42 0 0  0.43 0 0  0.44 0 0  0.45 0 0  0.46 0 0  0.47 0 0  0.48 0 0  0.49 0 0  0.5 0 0  0.51 0 0  0.52 0 0  0.53 0 0  0.54 0 0  0.55 0 0  0.5600000000000001 0 0  0.57 0 0  0.58 0 0  0.59 0 0  0.6 0 0  0.61 0 0  0.62 0 0  0.63 0 0  0.64 0 0  0.65 0 0  0.66 0 0  0.67 0 0  0.68 0 0  0.6899999999999999 0 0  0.7 0 0  0.71 0 0  0.72 0 0  0.73 0 0  0.74 0 0  0.75 0 0  0.76 0 0  0.77 0 0  0.78 0 0  0.79 0 0  0.8 0 0  0.8100000000000001 0 0  0.82 0 0  0.83 0 0  0.84 0 0  0.85 0 0  0.86 0 0  0.87 0 0  0.88 0 0  0.89 0 0  0.9 0 0  0.91 0 0  0.92 0 0  0.93 0 0  0.9399999999999999 0 0  0.95 0 0  0.96 0 0  0.97 0 0  0.98 0 0  0.99 0 0  1 0 0  0 0.01 0  0.01 0.01 0  0.02 0.01 0  0.03 0.01 0  0.04 0.01 0  0.05 0.01 0  0.06 0.01 0  0.07000000000000001 0.01 0  0.08 0.01 0  0.09 0.01 0  0.1 0.01 0  0.11 0.01 0  0.12 0.01 0  0.13 0.01 0  0.14 0.01 0  0.15 0.01 0  0.16 0.01 0  0.17 0.01 0  0.18 0.01 0  0.19 0.01 0  0.2 0.01 0  0.21 0.01 0  0.22 0.01 0  0.23 0.01 0  0.24 0.01 0  0.25 0.01 0  0.26 0.01 0  0.27 0.01 0  0.28 0.01 0  0.29 0.01 0  0.3 0.01 0  0.31 0.01 0  0.32 0.01 0  0.33 0.01 0  0.34 0.01 0  0.35 0.01 0  0.36 0.01 0  0.37 0.01 0  0.38 0.01 0  0.39 0.01 0  0.4 0.01 0  0.41 0.01 0  0.42 0.01 0  0.43 0.01 0  0.44 0.01 0  0.45 0.01 0  0.46 0.01 0  0.47 0.01 0  0.48 0.01 0  0.49 0.01 0  0.5 0.01 0  0.51 0.01 0  0.52 0.01 0  0.53 0.01 0  0.54 0.01 0  0.55 0.01 0  0.5600000000000001 0.01 0  0.57 0.01 0  0.58 0.01 0  0.59 0.01 0  0.6 0.01 0  0.61 0.01 0  0.62 0.01 0  0.63 0.01 0  0.64 0.01 0  0.65 0.01 0  0.66 0.01 0  0.67 0.01 0  0.68 0.01 0  0.6899999999999999 0.01 0  0.7 0.01 0  0.71 0.01 0  0.72 0.01 0  0.73 0.01 0  0.74 0.01 0  0.75 0.01 0  0.76 0.01 0  0.77 0.01 0  0.78 0.01 0  0.79 0.01 0  0.8 0.01 0  0.8100000000000001 0.01 0  0.82 0.01 0  0.83 0.01 0  0.84 0.01 0  0.85 0.01 0  0.86 0.01 0  0.87 0.01 0  0.88 0.01 0  0.89 0.01 0  0.9 0.01 0  0.91 0.01 0  0.92 0.01 0  0.93 0.01 0  0.9399999999999999 0.01 0  0.95 0.01 0  0.96 0.01 0  0.97 0.01 0  0.98 0.01 0  0.99 0.01 0  1 0.01 0  0 0.02 0  0.01 0.02 0  0.02 0.02 0  0.03 0.02 0  0.04 0.02 0  0.05 0.02 0  0.06 0.02 0  0.07000000000000001 0.02 0  0.08 0.02 0  0.09 0.02 0  0.1 0.02 0  0.11 0.02 0  0.12 0.02 0  0.13 0.02 0  0.14 0.02 0  0.15 0.02 0  0.16 0.02 0  0.17 0.02 0  0.18 0.02 0  0.19 0.02 0  0.2 0.02 0  0.21 0.02 0  0.22 0.02 0  0.23 0.02 0  0.24 0.02 0  0.25 0.02 0  0.26 0.02 0  0.27 0.02 0  0.28 0.02 0  0.29 0.02 0  0.3 0.02 0  0.31 0.02 0  0.32 0.02 0  0.33 0.02 0  0.34 0.02 0  0.35 0.02 0  0.36 0.02 0  0.37 0.02 0  0.38 0.02 0  0.39 0.02 0  0.4 0.02 0  0.41 0.02 0  0.42 0.02 0  0.43 0.02 0  0.44 0.02 0  0.45 0.02 0  0.46 0.02 0  0.47 0.02 0  0.48 0.02 0  0.49 0.02 0  0.5 0.02 0  0.51 0.02 0  0.52 0.02 0  0.53 0.02 0  0.54 0.02 0  0.55 0.02 0  0.5600000000000001 0.02 0  0.57 0.02 0  0.58 0.02 0  0.59 0.02 0  0.6 0.02 0  0.61 0.02 0  0.62 0.02 0  0.63 0.02 0  0.64 0.02 0  0.65 0.02 0  0.66 0.02 0  0.67 0.02 0  0.68 0.02 0  0.6899999999999999 0.02 0  0.7 0.02 0  0.71 0.02 0  0.72 0.02 0  0.73 0.02 0  0.74 0.02 0  0.75 0.02 0  0.76 0.02 0  0.77 0.02 0  0.78 0.02 0  0.79 0.02 0  0.8 0.02 0  0.8100000000000001 0.02 0  0.82 0.02 0  0.83 0.02 0  0.84 0.02 0  0.85 0.02 0  0.86 0.02 0  0.87 0.02 0  0.88 0.02 0  0.89 0.02 0  0.9 0.02 0  0.91 0.02 0  0.92 0.02 0  0.93 0.02 0  0.9399999999999999 0.02 0  0.95 0.02 0  0.96 0.02 0  0.97 0.02 0  0.98 0.02 0  0.99 0.02 0  1 0.02 0  0 0.03 0  0.01 0.03 0  0.02 0.03 0  0.03 0.03 0  0.04 0.03 0  0.05 0.03 0  0.06 0.03 0  0.07000000000000001 0.03 0  0.08 0.03 0  0.09 0.03 0  0.1 0.03 0  0.11 0.03 0  0.12 0.03 0  0.13 0.03 0  0.14 0.03 0  0.15 0.03 0  0.16 0.03 0  0.17 0.03 0  0.18 0.03 0  0.19 0.03 0  0.2 0.03 0  0.21 0.03 0  0.22 0.03 0  0.23 0.03 0  0.24 0.03 0  0.25 0.03 0  0.26 0.03 0  0.27 0.03 0  0.28 0.03 0  0.29 0.03 0  0.3 0.03 0  0.31 0.03 0  0.32 0.03 0  0.33 0.03 0  0.34 0.03 0  0.35 0.03 0  0.36 0.03 0  0.37 0.03 0  0.38 0.03 0  0.39 0.03 0  0.4 0.03 0  0.41 0.03 0  0.42 0.03 0  0.43 0.03 0  0.44 0.03 0  0.45 0.03 0  0.46 0.03 0  0.47 0.03 0  0.48 0.03 0  0.49 0.03 0  0.5 0.03 0  0.51 0.03 0  0.52 0.03 0  0.53 0.03 0  0.54 0.03 0  0.55 0.03 0  0.5600000000000001 0.03 0  0.57 0.03 0  0.58 0.03 0  0.59 0.03 0  0.6 0.03 0  0.61 0.03 0  0.62 0.03 0  0.63 0.03 0  0.64 0.03 0  0.65 0.03 0  0.66 0.03 0  0.67 0.03 0  0.68 0.03 0  0.6899999999999999 0.03 0  0.7 0.03 0  0.71 0.03 0  0.72 0.03 0  0.73 0.03 0  0.74 0.03 0  0.75 0.03 0  0.76 0.03 0  0.77 0.03 0  0.78 0.03 0  0.79 0.03 0  0.8 0.03 0  0.8100000000000001 0.03 0  0.82 0.03 0  0.83 0.03 0  0.84 0.03 0  0.85 0.03 0  0.86 0.03 0  0.87 0.03 0  0.88 0.03 0  0.89 0.03 0  0.9 0.03 0  0.91 0.03 0  0.92 0.03 0  0.93 0.03 0  0.9399999999999999 0.03 0  0.95 0.03 0  0.96 0.03 0  0.97 0.03 0  0.98 0.03 0  0.99 0.03 0  1 0.03 0  0 0.04 0  0.01 0.04 0  0.02 0.04 0  0.03 0.04 0  0.04 0.04 0  0.05 0.04 0  0.06 0.04 0  0.07000000000000001 0.04 0  0.08 0.04 0  0.09 0.04 0  0.1 0.04 0  0.11 0.04 0  0.12 0.04 0  0.13 0.04 0  0.14 0.04 0  0.15 0.04 0  0.16 0.04 0  0.17 0.04 0  0.18 0.04 0  0.19 0.04 0  0.2 0.04 0  0.21 0.04 0  0.22 0.04 0  0.23 0.04 0  0.24 0.04 0  0.25 0.04 0  0.26 0.04 0  0.27 0.04 0  0.28 0.04 0  0.29 0.04 0  0.3 0.04 0  0.31 0.04 0  0.32 0.04 0  0.33 0.04 0  0.34 0.04 0  0.35 0.04 0  0.36 0.04 0  0.37 0.04 0  0.38 0.04 0  0.39 0.04 0  0.4 0.04 0  0.41 0.04 0  0.42 0.04 0  0.43 0.04 0  0.44 0.04 0  0.45 0.04 0  0.46 0.04 0  0.47 0.04 0  0.48 0.04 0  0.49 0.04 0  0.5 0.04 0  0.51 0.04 0  0.52 0.04 0  0.53 0.04 0  0.54 0.04 0  0.55 0.04 0  0.5600000000000001 0.04 0  0.57 0.04 0  0.58 0.04 0  0.59 0.04 0  0.6 0.04 0  0.61 0.04 0  0.62 0.04 0  0.63 0.04 0  0.64 0.04 0  0.65 0.04 0  0.66 0.04 0  0.67 0.04 0  0.68 0.04 0  0.6899999999999999 0.04 0  0.7 0.04 0  0.71 0.04 0  0.72 0.04 0  0.73 0.04 0  0.74 0.04 0  0.75 0.04 0  0.76 0.04 0  0.77 0.04 0  0.78 0.04 0  0.79 0.04 0  0.8 0.04 0  0.8100000000000001 0.04 0  0.82 0.04 0  0.83 0.04 0  0.84 0.04 0  0.85 0.04 0  0.86 0.04 0  0.87 0.04 0  0.88 0.04 0  0.89 0.04 0  0.9 0.04 0  0.91 0.04 0  0.92 0.04 0  0.93 0.04 0  0.9399999999999999 0.04 0  0.95 0.04 0  0.96 0.04 0  0.97 0.04 0  0.98 0.04 0  0.99 0.04 0  1 0.04 0  0 0.05 0  0.01 0.05 0  0.02 0.05 0  0.03 0.05 0  0.04 0.05 0  0.05 0.05 0  0.06 0.05 0  0.07000000000000001 0.05 0  0.08 0.05 0  0.09 0.05 0  0.1 0.05 0  0.11 0.05 0  0.12 0.05 0  0.13 0.05 0  0.14 0.05 0  0.15 0.05 0  0.16 0.05 0  0.17 0.05 0  0.18 0.05 0  0.19 0.05 0  0.2 0.05 0  0.21 0.05 0  0.22 0.05 0  0.23 0.05 0  0.24 0.05 0  0.25 0.05 0  0.26 0.05 0  0.27 0.05 0  0.28 0.05 0  0.29 0.05 0  0.3 0.05 0  0.31 0.05 0  0.32 0.05 0  0.33 0.05 0  0.34 0.05 0  0.35 0.05 0  0.36 0.05 0  0.37 0.05 0  0.38 0.05 0  0.39 0.05 0  0.4 0.05 0  0.41 0.05 0  0.42 0.05 0  0.43 0.05 0  0.44 0.05 0  0.45 0.05 0  0.46 0.05 0  0.47 0.05 0  0.48 0.05 0  0.49 0.05 0  0.5 0.05 0  0.51 0.05 0  0.52 0.05 0  0.53 0.05 0  0.54 0.05 0  0.55 0.05 0  0.5600000000000001 0.05 0  0.57 0.05 0  0.58 0.05 0  0.59 0.05 0  0.6 0.05 0  0.61 0.05 0  0.62 0.05 0  0.63 0.05 0  0.64 0.05 0  0.65 0.05 0  0.66 0.05 0  0.67 0.05 0  0.68 0.05 0  0.6899999999999999 0.05 0  0.7 0.05 0  0.71 0.05 0  0.72 0.05 0  0.73 0.05 0  0.74 0.05 0  0.75 0.05 0  0.76 0.05 0  0.77 0.05 0  0.78 0.05 0  0.79 0.05 0  0.8 0.05 0  0.8100000000000001 0.05 0  0.82 0.05 0  0.83 0.05 0  0.84 0.05 0  0.85 0.05 0  0.86 0.05 0  0.87 0.05 0  0.88 0.05 0  0.89 0.05 0  0.9 0.05 0  0.91 0.05 0  0.92 0.05 0  0.93 0.05 0  0.9399999999999999 0.05 0  0.95 0.05 0  0.96 0.05 0  0.97 0.05 0  0.98 0.05 0  0.99 0.05 0  1 0.05 0  0 0.06 0  0.01 0.06 0  0.02 0.06 0  0.03 0.06 0  0.04 0.06 0  0.05 0.06 0  0.06 0.06 0  0.07000000000000001 0.06 0  0.08 0.06 0  0.09 0.06 0  0.1 0.06 0  0.11 0.06 0  0.12 0.06 0  0.13 0.06 0  0.14 0.06 0  0.15 0.06 0  0.16 0.06 0  0.17 0.06 0  0.18 0.06 0  0.19 0.06 0  0.2 0.06 0  0.21 0.06 0  0.22 0.06 0  0.23 0.06 0  0.24 0.06 0  0.25 0.06 0  0.26 0.06 0  0.27 0.06 0  0.28 0.06 0  0.29 0.06 0  0.3 0.06 0  0.31 0.06 0  0.32 0.06 0  0.33 0.06 0  0.34 0.06 0  0.35 0.06 0  0.36 0.06 0  0.37 0.06 0  0.38 0.06 0  0.39 0.06 0  0.4 0.06 0  0.41 0.06 0  0.42 0.06 0  0.43 0.06 0  0.44 0.06 0  0.45 0.06 0  0.46 0.06 0  0.47 0.06 0  0.48 0.06 0  0.49 0.06 0  0.5 0.06 0  0.51 0.06 0  0.52 0.06 0  0.53 0.06 0  0.54 0.06 0  0.55 0.06 0  0.5600000000000001 0.06 0  0.57 0.06 0  0.58 0.06 0  0.59 0.06 0  0.6 0.06 0  0.61 0.06 0  0.62 0.06 0  0.63 0.06 0  0.64 0.06 0  0.65 0.06 0  0.66 0.06 0  0.67 0.06 0  0.68 0.06 0  0.6899999999999999 0.06 0  0.7 0.06 0  0.71 0.06 0  0.72 0.06 0  0.73 0.06 0  0.74 0.06 0  0.75 0.06 0  0.76 0.06 0  0.77 0.06 0  0.78 0.06 0  0.79 0.06 0  0.8 0.06 0  0.8100000000000001 0.06 0  0.82 0.06 0  0.83 0.06 0  0.84 0.06 0  0.85 0.06 0  0.86 0.06 0  0.87 0.06 0  0.88 0.06 0  0.89 0.06 0  0.9 0.06 0  0.91 0.06 0  0.92 0.06 0  0.93 0.06 0  0.9399999999999999 0.06 0  0.95 0.06 0  0.96 0.06 0  0.97 0.06 0  0.98 0.06 0  0.99 0.06 0  1 0.06 0  0 0.07000000000000001 0  0.01 0.07000000000000001 0  0.02 0.07000000000000001 0  0.03 0.07000000000000001 0  0.04 0.07000000000000001 0  0.05 0.07000000000000001 0  0.06 0.07000000000000001 0  0.07000000000000001 0.07000000000000001 0  0.08 0.07000000000000001 0  0.09 0.07000000000000001 0  0.1 0.07000000000000001 0  0.11 0.07000000000000001 0  0.12 0.07000000000000001 0  0.13 0.07000000000000001 0  0.14 0.07000000000000001 0  0.15 0.07000000000000001 0  0.16 0.07000000000000001 0  0.17 0.0700
[...]
<PointData  Scalars="u"> 
<DataArray  type="Float64"  Name="u"  format="ascii">0.0000000000000000e+00  0.0000000000000000e+00  0.0000000000000000e+00  0.0000000000000000e+00  0.0000000000000000e+00  0.0000000000000000e+00  0.0000000000000000e+00  0.0000000000000000e+00  0.0000000000000000e+00  0.0000000000000000e+00  0.0000000000000000e+00  0.0000000000000000e+00  0.0000000000000000e+00  0.0000000000000000e+00  0.0000000000000000e+00  0.0000000000000000e+00  0.0000000000000000e+00  0.0000000000000000e+00  0.0000000000000000e+00  0.0000000000000000e+00  0.0000000000000000e+00  0.0000000000000000e+00  0.0000000000000000e+00  0.0000000000000000e+00  0.0000000000000000e+00  0.0000000000000000e+00  0.0000000000000000e+00  0.0000000000000000e+00  0.0000000000000000e+00  0.0000000000000000e+00  0.0000000000000000e+00  0.0000000000000000e+00  0.0000000000000000e+00  0.0000000000000000e+00  0.0000000000000000e+00  0.0000000000000000e+00  0.0000000000000000e+00  0.0000000000000000e+00  0.0000000000000000e+00  0.0000000000000000e+00  0.0000000000000000e+00  0.0000000000000000e+00  0.0000000000000000e+00  0.0000000000000000e+00  0.0000000000000000e+00  0.0000000000000000e+00  0.0000000000000000e+00  0.0000000000000000e+00  0.0000000000000000e+00  0.0000000000000000e+00  0.0000000000000000e+00  0.0000000000000000e+00  0.0000000000000000e+00  0.0000000000000000e+00  0.0000000000000000e+00  0.0000000000000000e+00  0.0000000000000000e+00  0.0000000000000000e+00  0.0000000000000000e+00  0.0000000000000000e+00  0.0000000000000000e+00  0.0000000000000000e+00  0.0000000000000000e+00  0.0000000000000000e+00  0.0000000000000000e+00  0.0000000000000000e+00  0.0000000000000000e+00  0.0000000000000000e+00  0.0000000000000000e+00  0.0000000000000000e+00  0.0000000000000000e+00  0.0000000000000000e+00  0.0000000000000000e+00  0.0000000000000000e+00  0.0000000000000000e+00  0.0000000000000000e+00  0.0000000000000000e+00  0.0000000000000000e+00  0.0000000000000000e+00  0.0000000000000000e+00  0.0000000000000000e+00  0.0000000000000000e+00  0.0000000000000000e+00  0.0000000000000000e+00  0.0000000000000000e+00  0.0000000000000000e+00  0.0000000000000000e+00  0.0000000000000000e+00  0.0000000000000000e+00  0.0000000000000000e+00  0.0000000000000000e+00  0.0000000000000000e+00  0.0000000000000000e+00  0.0000000000000000e+00  0.0000000000000000e+00  0.0000000000000000e+00  0.0000000000000000e+00  0.0000000000000000e+00  0.0000000000000000e+00  0.0000000000000000e+00  0.0000000000000000e+00  0.0000000000000000e+00  -1.7203596474317438e-02  -6.1880875962067018e-02  -1.9448685499549385e-02  -1.8465674078303910e-02  1.6190097542699119e-02  -1.4276321251882235e-02  -1.4544913328387143e-02  3.3992822199195666e-02  -5.4011296957668251e-02  -2.6131112449124818e-03  6.5375189763917235e-02  -2.1716104956402738e-02  -8.0159605714182666e-02  4.2731641107943114e-02  -1.9725762309107147e-02  -3.5587005525913313e-03  1.2549336134376128e-02  -3.4009457260455442e-02  8.7687261826978433e-02  -5.7869786038032577e-02  4.9757322853652662e-02  -6.0811552915562395e-02  2.0370195656186120e-02  -1.0706108745882060e-02  5.5424680320530127e-02  -6.1839196782386287e-02  3.5579340649642445e-02  -1.6843390536948943e-02  -9.7444184639814066e-03  5.3521988496862995e-03  4.9378525907963051e-02  -6.9591460976374198e-02  1.4030719684889495e-02  6.0798238317681457e-04  1.7819455309906415e-03  1.7954757789324999e-02  1.4066971964905150e-02  3.8632415168720013e-02  3.2021184737810911e-03  -2.7219719638488848e-02  -1.8219354506778591e-02  -8.9128864148766262e-03  -1.9534343892583787e-02  1.0631765137948328e-02  3.5467767602441538e-02  -4.2820506116387075e-02  2.0287349335512170e-02  -6.3375386933434133e-03  9.3021435917792876e-03  -9.4793646693276962e-03  9.5674045195202721e-03  2.0912519013736074e-03  -8.2299513253923807e-03  -2.4024654720554133e-03  3.8834893471024336e-03  5.2048732076823822e-03  -5.0137474287783026e-03  3.3730654141488248e-03  -1.4334510470786778e-03  9.8488764532855063e-04  -7.0837406055109268e-04  -3.6142896862710827e-04  2.3485274010421128e-04  -1.0806414251794158e-04  2.9347842419800616e-04  3.9013281761790118e-04  -1.3755539882209892e-04  2.2794584412497927e-04  1.0820814200625541e-03  -4.8333054174048127e-04  -6.0032257173206927e-04  7.9765370558026473e-04  -1.3462910033576487e-03  -3.0934988729224783e-03  -3.6319780642735333e-04  2.8253265373355822e-03  1.7658353291869903e-03  2.8904278930030170e-04  -1.2958604997648725e-04  -1.3163993342751176e-04  -2.8810909718348808e-04  2.6671899619165281e-04  7.3208166499654631e-04  4.1633133651497586e-04  -1.0445644549933934e-04  -2.2311888231817627e-04  -1.7687366961068924e-04  7.5816819040460813e-05  -3.3633587484514542e-05  -1.0302594840312375e-04  -6.3476281412684768e-05  -2.5771008607716598e-05  -1.6918301237227043e-05  4.5823684414831744e-06  1.0619553421467996e-05  1.2416488117842940e-05  1.3232409931858461e-05  1.2758115488569351e-05  1.0419889102084616e-05  0.0000000000000000e+00  0.0000000000000000e+00  -1.0562802408529056e-02  -1.6662979085855737e-02  4.6559265041816650e-02  -3.0794687370136988e-02  -5.9055914787085113e-02  -1.0032424390735355e-02  4.5560185957440560e-02  -3.3798276713855636e-02  -7.5090175188522137e-02  1.2229249197790655e-01  -8.9031620824399207e-02  -2.3883068426684573e-02  1.0283202242254404e-01  -1.0475489903889419e-01  -8.6302525644234296e-02  7.4177323995522321e-02  -4.3761988641803688e-02  6.6050117802691849e-02  -1.6513433553938552e-02  -1.4039387497198057e-02  9.2917662981252327e-02  -1.0564565774701933e-01  1.1842485904942225e-02  4.5404055447315524e-02  -2.2347115645630362e-02  -2.3342869232759710e-02  3.1613259307967351e-02  1.2121311622373137e-02  -3.9677110704688014e-03  -8.8558310816908459e-02  9.2969827707358565e-02  2.1710546255183226e-02  -5.8632950460321534e-02  -3.6966740440712020e-02  1.7940690848794929e-02  2.7928534669375563e-02  5.4265496675467401e-02  2.8993375213180746e-02  1.1896955314241989e-03  4.3818345721792322e-02  -4.4393782721974730e-02  -7.3658160883143614e-02  5.2432902053392279e-04  2.7319123156043833e-03  4.0947412333699744e-02  -3.0759834765933997e-02  1.9362733950870611e-02  -3.2236073070011459e-02  4.1308943144301308e-02  -2.6427372713601217e-02  1.5325308320917641e-02  2.8755394437484429e-04  7.2916382453592013e-03  -2.4130512328698058e-02  8.3741332750707168e-03  8.7293607324032581e-03  -2.3639662890600983e-04  -3.3744032904446356e-03  3.9933065555079221e-03  -2.1685105190847823e-03  1.7965346072872067e-03  -2.1548304401020507e-03  5.5209098051766834e-04  -1.4755014037245285e-04  1.6743342278942099e-04  6.1992994383010312e-04  5.1562509305278306e-04  -5.1640528221082226e-04  1.6132992699525576e-03  1.0674577238920077e-03  -1.8981010348625542e-03  4.4925964640884776e-04  4.9345412181581031e-04  -4.6583727362253949e-03  -4.4222214542036301e-03  2.7844676350259204e-03  4.9447592157800457e-03  1.5620955680414436e-03  -1.4825859580439111e-04  -1.9619063178866970e-04  -3.7919213977134829e-04  -1.9138897716430067e-04  1.0634328775153232e-03  1.2706515625124045e-03  2.3643591710185101e-04  -2.7728182705699477e-04  -4.3754480653564800e-04  -3.1837580837297462e-05  1.2689019489972372e-04  -1.3932777184923561e-04  -1.5853696476472785e-04  -7.3085801376230548e-05  -4.4294103073840837e-05  -2.4260949131912101e-05  6.4985769675568419e-06  4.3403474034982551e-06  8.9371121206914130e-06  1.1184848348490374e-05  1.8492559573285113e-05  0.0000000000000000e+00  0.0000000000000000e+00  4.7762414558966973e-02  4.4673718373382028e-02  -1.2415104287127904e-01  5.4064618919066672e-02  1.2427030817174925e-02  2.8889183358384616e-02  -5.7468893987757994e-02  1.1061375688570940e-02  7.1432009127761820e-02  -2.0180902872882731e-01  1.1671075141012985e-01  1.1501479063841828e-01  -1.4724656742365827e-01  -9.6743867298637001e-02  1.1935139648472537e-01  -1.3463228240758571e-01  2.0457725295447302e-02  -1.2421441818979689e-05  -2.6956739262544136e-02  2.1120494317515895e-01  -1.9957846153739683e-01  1.8803076621579917e-01  -2.1584761039713635e-01  7.0294815688895132e-02  1.6801992133920748e-02  1.1630361442955783e-01  -1.9958489272270741e-01  1.1947419648175922e-01  -2.9889581519913635e-02  9.8070734285203619e-04  -4.5723008203882975e-02  1.3613613063905239e-01  -1.5279545387523746e-01  5.0015449582228436e-02  -2.9681599421762701e-02  -2.8151250049735150e-03  5.0771063948274929e-02  6.4109430179346713e-02  1.0207660419016196e-01  -2.5590502136179666e-02  -3.4895196900109011e-02  -3.1085089798893191e-02  -5.4626559839155320e-02  -4.6593502262715698e-02  3.9973777906862899e-02  1.0176013558270904e-01  -1.3387507507764546e-01  7.8330814173802582e-02  -4.1269537936392237e-02  4.5434564955098053e-02  -3.8915284732159550e-02  3.2863021101618935e-02  -4.5144213480492425e-05  -1.3720177779598979e-02  -1.5363187629852202e-02  1.3439115630642231e-02  1.4334448119371511e-02  -1.2541438195354132e-02  6.9259094825065929e-03  -2.3067245328156800e-03  1.5324591978311862e-03  -9.3076168705279823e-04  -1.4886827207108242e-03  8.6746459932270819e-04  -3.9389491909031866e-04  6.9303448866591831e-04  1.0330922309746212e-03  -1.7849185487674895e-04  2.2863258091173534e-04  3.0481436549488683e-03  -7.7238489195935651e-04  -2.1617312813184352e-03  2.1362982002381828e-03  -2.6897140382789275e-03  -8.4011038572008364e-03  -2.0965342215015074e-03  7.5200244727358697e-03  5.2414134784401385e-03  5.9850297539604247e-04  -6.5052867666897795e-04  -4.4261353850183520e-04  -7.6558333304942085e-04  5.5428986879521016e-04  1.9964482234367024e-03  1.2842130396479271e-03  -2.2671577440527266e-04  -5.4828494232888486e-04  -4.9003031926712643e-04  2.2706213098308540e-04  1.5489884600793610e-05  -2.3717551776687970e-04  -1.5935972343033677e-04  -6.3092318446265070e-05  -5.1884694645268993e-05  -9.4044166956164242e-06  7.0002877205388697e-06  2.1812202500116733e-06  -1.5309398913127119e-08  -1.5013148728916863e-06  0.0000000000000000e+00  0.0000000000000000e+00  -5.6532126833811133e-02  -5.1317994504225264e-02  6.4017616330511118e-02  3.8905186103410816e-02  -4.4666291488016700e-02  -5.9700461430016664e-02  6.1849643337321271e-02  6.4152444065288555e-02  -5.4572971201588834e-02  -2.9845887381965974e-02  8.1294020855455507e-02  -1.2825920273513866e-01  9.9555165783860422e-02  9.9311804628691019e-02  -2.8113158671041627e-01  -3.3172659992182010e-02  9.7858465498742983e-02  -6.8093772918764811e-02  8.7071352933467266e-02  -7.7786775049170281e-02  1.1338020247628583e-01  4.8534703609855082e-02  -8.4211121413051648e-02  -6.2564964085160893e-02  6.9891307412365794e-02  -4.0632738566841360e-02  6.2831337076109342e-02  -4.0250714522983809e-02  4.5836217113445384e-02  -3.7255398547097279e-02  -1.1801186411724417e-01  1.5044075443323240e-01  8.1727259170752270e-02  -1.8806046878705526e-01  -2.3124139200363769e-02  4.1264944986202083e-02  4.0006867491596675e-02  8.3491217968514789e-02  5.0754518695013663e-02  6.1573162638959129e-02  6.1203385675073121e-02  -1.0873266278794322e-01  -1.1457614110403881e-01  3.6525725466810600e-03  -2.1830367147893378e-02  6.9408945360483948e-02  1.0640651031647106e-02  -3.2070944039588600e-02  -1.6599920125428422e-02  5.0147037902571141e-02  -2.4704395037886143e-02  8.2605647758415730e-03  1.3074217435548286e-02  1.0765460353865062e-02  -4.3092130092673604e-02  8.7366825606460859e-03  1.7512689245127552e-02  4.4712326749959605e-03  -9.8042869531557997e-03  8.6000935988904889e-03  -4.5224556750866974e-03  3.3138961944276821e-03  -3.7538216936885901e-03  5.0462695799026425e-04  2.4346980839304752e-05  8.0086602249503745e-05  1.1358772101213437e-03  1.0911376441801865e-03  -9.7272752474951245e-04  2.4759808491506474e-03  2.6309107226447229e-03  -3.2588198262392598e-03  -6.7072760863183395e-05  1.6330727050111917e-03  -7.9051231953276915e-03  -9.4863575678909798e-03  3.7451736412328065e-03  1.0221293198277723e-02  3.9429497842150300e-03  -2.9974793633649158e-04  -7.3882227980269651e-04  -9.0298881947998200e-04  -6.6694491346213595e-04  1.7337887355520969e-03  2.5083817781034303e-03  6.8361300822490396e-04  -5.7530464504058183e-04  -8.5732100283144133e-04  -2.1814925259720850e-04  2.7529017829185088e-04  -1.8543094938654756e-04  -2.8606610226757751e-04  -1.3294989909683858e-04  -6.6450831909753408e-05  -4.1968497545081797e-05  9.3027369468315922e-06  5.5359514267153894e-06  4.5495091672606068e-06  -8.3853056400640083e-07  0.0000000000000000e+00  0.0000000000000000e+00  1.2964774521294731e-01  9.3842422792584423e-02  -1.6857255901007357e-02  -1.5059901105235324e-01  1.3952274970567008e-01  2.2511549568723491e-02  -1.2779405587889803e-02  -5.1258071945873736e-02  7.7123538413267037e-02  5.7531781019153773e-02  -2.3705843676579638e-01  2.4362471187574727e-01  3.5236503488228994e-02  -1.7047374904302753e-01  1.3430310293607287e-02  4.1522101011259249e-02  -2.3097508106040110e-01  7.9009269358475923e-02  -7.6407078313600312e-03  3.9330069903457519e-02  1.9402538508992398e-01  -2.2910687365178986e-01  2.6947568602331134e-01  -3.0527053136064297e-01  9.8707294154275829e-02  5.0779399867642697e-02  8.1965258471718525e-02  -2.3273341200710992e-01  1.6950345447191056e-01  -9.3661309425263784e-03  -1.9383933139481498e-02  -1.2822929612835693e-01  2.2012473077278658e-01  -1.3022042906513159e-01  7.1271080831502766e-03  -7.5981909714533544e-02  7.2652306265551360e-03  9.2882070830079905e-02  1.2031393101370537e-01  1.2268359505626192e-01  -3.1725201949771936e-02  5.7061336851481686e-03  -7.0323507964462129e-02  -1.2621132193411730e-01  -4.8963486626235384e-02  5.5139231758961023e-02  1.3652837408605181e-01  -1.6472785097866727e-01  9.9328019076110760e-02  -6.6331182054388232e-02  7.9914159576958438e-02  -6.0032859037728613e-02  4.6495049033058976e-02  1.4057257536399337e-03  -1.1273732437008830e-02  -3.4627082357754815e-02  2.1100955405864430e-02  2.2014423777238879e-02  -1.4075415436554037e-02  5.7607178022703754e-03  -4.6333115518916684e-04  5.0000097007133469e-04  -2.3059336644663551e-04  -3.0049545971080494e-03  1.2628854328074254e-03  -5.8874459231352048e-04  8.0502255090160251e-04  1.5805093810056733e-03  6.0939651319657273e-05  -9.2246954558500031e-05  4.5094009908213870e-03  -1.6802419055828580e-04  -3.8272684512053101e-03  2.5967422145864792e-03  -2.7626756557958890e-03  -1.2755999267122857e-02  -5.5153613735601020e-03  1.0507176596123042e-02  9.6255237931150844e-03  1.8875133012326178e-03  -8.8295404950337040e-04  -7.9570022062994919e-04  -1.2714409329102490e-03  3.9884656494009775e-04  2.9166766526924435e-03  2.2461257009793604e-03  -1.3474120858163072e-04  -8.9340343367177186e-04  -8.8148729317930378e-04  1.6080039316658176e-04  7.0766763107438262e-05  -3.5367169216770142e-04  -2.7778876187543921e-04  -1.1415268547386059e-04  -7.7795598889745734e-05  -1.8613941616806821e-05  1.6035892654446327e-05  7.7547572442975527e-06  2.4550083067578265e-06  0.0000000000000000e+00  0.0000000000000000e+00  -1.1513155794262840e-01  -5.2671927195486336e-02  2.9569202732996739e-02  1.3285368170116260e-01  -4.8275247084736905e-02  -3.1787468447419254e-02  -2.5959304758862198e-02  9.5519942156420151e-02  3.6459577509741332e-02  -2.7701398727386455e-02  -2.6047917389029696e-03  -3.0550161385141342e-02  -7.9493166151597197e-03  1.7114979392574894e-01  -1.4195250647941747e-02  -3.0559492055416165e-01  4.7653125525755270e-02  2.9524216281893747e-02  -6.0540054240901496e-02  6.1152154054418220e-02  -4.6173497159266136e-02  2.2621475076825828e-01  -4.6703531664510460e-02  -8.5952252374799293e-04  -1.8857886655342862e-01  1.0694517145174738e-01  5.5308120667168477e-03  1.1359916564095257e-01  -1.5517763412401614e-01  9.1730296811530693e-02  -4.2953106018041240e-02  -9.7366144507332802e-02  1.2682646110609838e-01  1.2843766127965447e-01  -2.6723599964740197e-01  1.3098567052468153e-02  3.0468290144097895e-02  3.2653708356885539e-02  1.0538242428326934e-01  1.0361740258067484e-01  1.2645402525927302e-01  3.3379385545516428e-02  -1.2826126794940496e-01  -1.2797118081129777e-01  -3.3332832926476492e-02  -4.9100091649269310e-02  9.8088069183246182e-02  6.0944036943831437e-02  -1.0306466067255812e-01  2.5720510318013121e-02  2.7855807993450856e-02  2.5991924159087364e-03  -1.3536482923660206e-02  3.2900949850172563e-02  8.4089133915096533e-03  -4.8880072584471801e-02  -1.9364430778652042e-03  2.7849308778160997e-02  9.4409477683936229e-03  -1.3815500045877427e-02  1.0518199088821120e-02  -4.8100348782786290e-03  3.5437512493681064e-03  -4.1239555903734735e-03  -2.0554521447180787e-04  3.7597371804861806e-04  -1.1885365938506877e-04  1.4072138293506485e-03  1.6057567316960567e-03  -1.1520511424943705e-03  2.7095062013921807e-03  4.1368465499869054e-03  -3.6631652267423297e-03  -1.2675632632373796e-03  2.4323427425667729e-03  -9.6696049715782433e-03  -1.4138464309902204e-02  2.7487839254774511e-03  1.4484475477684425e-02  7.0829168329445275e-03  2.8765341719637009e-05  -1.0909178992497086e-03  -1.2482901147807038e-03  -1.0231844356798239e-03  2.0745827950736468e-03  3.5892747838277192e-03  1.3145819895523994e-03  -7.3302726511318805e-04  -1.2230027339472751e-03  -4.9578908910542763e-04  2.9091316339285476e-04  -2.1018541009152830e-04  -4.2698080105115220e-04  -2.3323275829071260e-04  -1.1581548687755284e-04  -7.3079585180555132e-05  -2.1954930714483419e-07  1.1348910439117833e-05  9.0534124361331496e-06  0.0000000000000000e+00  0.0000000000000000e+00  5.2591319716581333e-02  4.3147284423215082e-02  -2.3930103119777901e-02  -1.1116168022980735e-01  -7.5489126182795629e-02  1.6365845977442825e-01  2.7997728552126813e-03  -5.9303747646469174e-02  -1.2113332814571299e-02  9.6763619606524423e-02  3.6225009389108033e-02  -1.8241001577744223e-01  2.0161925151141588e-01  -9.1033017114617899e-03  -6.1579160566136028e-02  3.0114000639077102e-02  -1.0378275392092605e-01  -1.9950702786381311e-01  9.8932061854787701e-02  8.8245159064087985e-03  6.2082832868958500e-02  1.2588764620156917e-01  -1.1876989649147608e-01  2.3628479258210117e-01  -2.6513902121689498e-01  4.0665018266081938e-02  6.2407949396512633e-02  5.1207545331364297e-02  -1.5122889325173489e-01  1.2933827281325147e-01  2.7050293355252913e-02  -7.4174911092779197e-02  -1.5192093473091800e-01  2.7488988298440215e-01  -6.5672067377740062e-02  -1.0737021202706967e-01  -7.9418432352984833e-02  2.5491157497888453e-02  1.2362761326947642e-01  1.5244513952826644e-01  1.3267524438082753e-01  1.8016293298210556e-02  2.4894963917251964e-02  -1.2507390689831696e-01  -1.6929258215770795e-01  -4.9680984987149873e-02  4.4777610356392897e-02  1.5381139684085487e-01  -1.2990655295325554e-01  5.0812074093230200e-02  -4.7184057273554174e-02  8.1417765725192381e-02  -5.4133511308920745e-02  3.8271007707553727e-02  1.4621441775741241e-02  -1.2299940397854875e-02  -4.8020775064488347e-02  2.0554951549201173e-02  3.0841258194934131e-02  -1.1817065030111925e-02  2.6382700292227482e-03  1.8667302972069678e-03  -3.8190171498823482e-04  3.7457743564274520e-04  -3.8901633448379198e-03  1.2649365813810136e-03  -4.2112402560537729e-04  7.9482566878517804e-04  1.9983348959365615e-03  4.8901282881625319e-04  -3.9689992085274538e-04  5.2991155113656027e-03  9.2192596673161856e-04  -4.8959378237482054e-03  2.1118291897444593e-03  -2.3245132166370987e-03  -1.5795296510121154e-02  -9.5594820711513168e-03  1.1599614240050396e-02  1.4128807655652409e-02  3.9978102636422739e-03  -9.9291777972519918e-04  -1.2137693588657043e-03  -1.7076396742839815e-03  2.0031015607881303e-04  3.6121756286577101e-03  3.2921663895697701e-03  2.4233695991519822e-04  -1.1636150106754510e-03  -1.2151586265067664e-03  -1.8110150142860229e-05  1.0607402490945087e-04  -4.2326462946782651e-04  -4.0496795570711566e-04  -1.9223195162386913e-04  -1.2059796956343740e-04  -4.8019525310446823e-05  4.4621010558790213e-06  5.1794193596301878e-06  0.0000000000000000e+00  0.0000000000000000e+00  -1.1205658309459255e-02  1.9603654055168129e-02  3.5434341657339552e-02  6.6679972310698707e-02  4.1536441915637337e-02  -1.3097688622713555e-01  -2.8640052457230458