<?xml version="1.0"?>
<VTKFile type="UnstructuredGrid"  version="0.1"  >
<UnstructuredGrid>
<Piece  NumberOfPoints="10201" NumberOfCells="20000">
<Points>
<DataArray  type="Float64"  NumberOfComponents="3"  format="ascii">0 0 0  0.01 0 0  0.02 0 0  0.03 0 0  0.04 0 0  0.05 0 0  0.06 0 0  0.07000000000000001 0 0  0.08 0 0  0.09 0 0  0.1 0 0  0.11 0 0  0.12 0 0  0.13 0 0  0.14 0 0  0.15 0 0  0.16 0 0  0.17 0 0  0.18 0 0  0.19 0 0  0.2 0 0  0.21 0 0  0.22 0 0  0.23 0 0  0.24 0 0  0.25 0 0  0.26 0 0  0.27 0 0  0.28 0 0  0.29 0 0  0.3 0 0  0.31 0 0  0.32 0 0  0.33 0 0  0.34 0 0  0.35 0 0  0.36 0 0  0.37 0 0  0.38 0 0  0.39 0 0  0.4 0 0  0.41 0 0  0.42 0 0  0.43 0 0  0.44 0 0  0.45 0 0  0.46 0 0  0.47 0 0  0.48 0 0  0.49 0 0  0.5 0 0  0.51 0 0  0.52 0 0  0.53 0 0  0.54 0 0  0.55 0 0  0.5600000000000001 0 0  0.57 0 0  0.58 0 0  0.59 0 0  0.6 0 0  0.61 0 0  0.62 0 0  0.63 0 0  0.64 0 0  0.65 0 0  0.66 0 0  0.67 0 0  0.68 0 0  0.6899999999999999 0 0  0.7 0 0  0.71 0 0  0.72 0 0  0.73 0 0  0.74 0 0  0.75 0 0  0.76 0 0  0.77 0 0  0.78 0 0  0.79 0 0  0.8 0 0  0.8100000000000001 0 0  0.82 0 0  0.83 0 0  0.84 0 0  0.85 0 0  0.86 0 0  0.87 0 0  0.88 0 0  0.89 0 0  0.9 0 0  0.91 0 0  0.92 0 0  0.93 0 0  0.9399999999999999 0 0  0.95 0 0  0.96 0 0  0.97 0 0  0.98 0 0  0.99 0 0  1 0 0  0 0.01 0  0.01 0.01 0  0.02 0.01 0  0.03 0.01 0  0.04 0.01 0  0.05 0.01 0  0.06 0.01 0  0.07000000000000001 0.01 0  0.08 0.01 0  0.09 0.01 0  0.1 0.01 0  0.11 0.01 0  0.12 0.01 0  0.13 0.01 0  0.14 0.01 0  0.15 0.01 0  0.16 0.01 0  0.17 0.01 0  0.18 0.01 0  0.19 0.01 0  0.2 0.01 0  0.21 0.01 0  0.22 0.01 0  0.23 0.01 0  0.24 0.01 0  0.25 0.01 0  0.26 0.01 0  0.27 0.01 0  0.28 0.01 0  0.29 0.01 0  0.3 0.01 0  0.31 0.01 0  0.32 0.01 0  0.33 0.01 0  0.34 0.01 0  0.35 0.01 0  0.36 0.01 0  0.37 0.01 0  0.38 0.01 0  0.39 0.01 0  0.4 0.01 0  0.41 0.01 0  0.42 0.01 0  0.43 0.01 0  0.44 0.01 0  0.45 0.01 0  0.46 0.01 0  0.47 0.01 0  0.48 0.01 0  0.49 0.01 0  0.5 0.01 0  0.51 0.01 0  0.52 0.01 0  0.53 0.01 0  0.54 0.01 0  0.55 0.01 0  0.5600000000000001 0.01 0  0.57 0.01 0  0.58 0.01 0  0.59 0.01 0  0.6 0.01 0  0.61 0.01 0  0.62 0.01 0  0.63 0.01 0  0.64 0.01 0  0.65 0.01 0  0.66 0.01 0  0.67 0.01 0  0.68 0.01 0  0.6899999999999999 0.01 0  0.7 0.01 0  0.71 0.01 0  0.72 0.01 0  0.73 0.01 0  0.74 0.01 0  0.75 0.01 0  0.76 0.01 0  0.77 0.01 0  0.78 0.01 0  0.79 0.01 0  0.8 0.01 0  0.8100000000000001 0.01 0  0.82 0.01 0  0.83 0.01 0  0.84 0.01 0  0.85 0.01 0  0.86 0.01 0  0.87 0.01 0  0.88 0.01 0  0.89 0.01 0  0.9 0.01 0  0.91 0.01 0  0.92 0.01 0  0.93 0.01 0  0.9399999999999999 0.01 0  0.95 0.01 0  0.96 0.01 0  0.97 0.01 0  0.98 0.01 0  0.99 0.01 0  1 0.01 0  0 0.02 0  0.01 0.02 0  0.02 0.02 0  0.03 0.02 0  0.04 0.02 0  0.05 0.02 0  0.06 0.02 0  0.07000000000000001 0.02 0  0.08 0.02 0  0.09 0.02 0  0.1 0.02 0  0.11 0.02 0  0.12 0.02 0  0.13 0.02 0  0.14 0.02 0  0.15 0.02 0  0.16 0.02 0  0.17 0.02 0  0.18 0.02 0  0.19 0.02 0  0.2 0.02 0  0.21 0.02 0  0.22 0.02 0  0.23 0.02 0  0.24 0.02 0  0.25 0.02 0  0.26 0.02 0  0.27 0.02 0  0.28 0.02 0  0.29 0.02 0  0.3 0.02 0  0.31 0.02 0  0.32 0.02 0  0.33 0.02 0  0.34 0.02 0  0.35 0.02 0  0.36 0.02 0  0.37 0.02 0  0.38 0.02 0  0.39 0.02 0  0.4 0.02 0  0.41 0.02 0  0.42 0.02 0  0.43 0.02 0  0.44 0.02 0  0.45 0.02 0  0.46 0.02 0  0.47 0.02 0  0.48 0.02 0  0.49 0.02 0  0.5 0.02 0  0.51 0.02 0  0.52 0.02 0  0.53 0.02 0  0.54 0.02 0  0.55 0.02 0  0.5600000000000001 0.02 0  0.57 0.02 0  0.58 0.02 0  0.59 0.02 0  0.6 0.02 0  0.61 0.02 0  0.62 0.02 0  0.63 0.02 0  0.64 0.02 0  0.65 0.02 0  0.66 0.02 0  0.67 0.02 0  0.68 0.02 0  0.6899999999999999 0.02 0  0.7 0.02 0  0.71 0.02 0  0.72 0.02 0  0.73 0.02 0  0.74 0.02 0  0.75 0.02 0  0.76 0.02 0  0.77 0.02 0  0.78 0.02 0  0.79 0.02 0  0.8 0.02 0  0.8100000000000001 0.02 0  0.82 0.02 0  0.83 0.02 0  0.84 0.02 0  0.85 0.02 0  0.86 0.02 0  0.87 0.02 0  0.88 0.02 0  0.89 0.02 0  0.9 0.02 0  0.91 0.02 0  0.92 0.02 0  0.93 0.02 0  0.9399999999999999 0.02 0  0.95 0.02 0  0.96 0.02 0  0.97 0.02 0  0.98 0.02 0  0.99 0.02 0  1 0.02 0  0 0.03 0  0.01 0.03 0  0.02 0.03 0  0.03 0.03 0  0.04 0.03 0  0.05 0.03 0  0.06 0.03 0  0.07000000000000001 0.03 0  0.08 0.03 0  0.09 0.03 0  0.1 0.03 0  0.11 0.03 0  0.12 0.03 0  0.13 0.03 0  0.14 0.03 0  0.15 0.03 0  0.16 0.03 0  0.17 0.03 0  0.18 0.03 0  0.19 0.03 0  0.2 0.03 0  0.21 0.03 0  0.22 0.03 0  0.23 0.03 0  0.24 0.03 0  0.25 0.03 0  0.26 0.03 0  0.27 0.03 0  0.28 0.03 0  0.29 0.03 0  0.3 0.03 0  0.31 0.03 0  0.32 0.03 0  0.33 0.03 0  0.34 0.03 0  0.35 0.03 0  0.36 0.03 0  0.37 0.03 0  0.38 0.03 0  0.39 0.03 0  0.4 0.03 0  0.41 0.03 0  0.42 0.03 0  0.43 0.03 0  0.44 0.03 0  0.45 0.03 0  0.46 0.03 0  0.47 0.03 0  0.48 0.03 0  0.49 0.03 0  0.5 0.03 0  0.51 0.03 0  0.52 0.03 0  0.53 0.03 0  0.54 0.03 0  0.55 0.03 0  0.5600000000000001 0.03 0  0.57 0.03 0  0.58 0.03 0  0.59 0.03 0  0.6 0.03 0  0.61 0.03 0  0.62 0.03 0  0.63 0.03 0  0.64 0.03 0  0.65 0.03 0  0.66 0.03 0  0.67 0.03 0  0.68 0.03 0  0.6899999999999999 0.03 0  0.7 0.03 0  0.71 0.03 0  0.72 0.03 0  0.73 0.03 0  0.74 0.03 0  0.75 0.03 0  0.76 0.03 0  0.77 0.03 0  0.78 0.03 0  0.79 0.03 0  0.8 0.03 0  0.8100000000000001 0.03 0  0.82 0.03 0  0.83 0.03 0  0.84 0.03 0  0.85 0.03 0  0.86 0.03 0  0.87 0.03 0  0.88 0.03 0  0.89 0.03 0  0.9 0.03 0  0.91 0.03 0  0.92 0.03 0  0.93 0.03 0  0.9399999999999999 0.03 0  0.95 0.03 0  0.96 0.03 0  0.97 0.03 0  0.98 0.03 0  0.99 0.03 0  1 0.03 0  0 0.04 0  0.01 0.04 0  0.02 0.04 0  0.03 0.04 0  0.04 0.04 0  0.05 0.04 0  0.06 0.04 0  0.07000000000000001 0.04 0  0.08 0.04 0  0.09 0.04 0  0.1 0.04 0  0.11 0.04 0  0.12 0.04 0  0.13 0.04 0  0.14 0.04 0  0.15 0.04 0  0.16 0.04 0  0.17 0.04 0  0.18 0.04 0  0.19 0.04 0  0.2 0.04 0  0.21 0.04 0  0.22 0.04 0  0.23 0.04 0  0.24 0.04 0  0.25 0.04 0  0.26 0.04 0  0.27 0.04 0  0.28 0.04 0  0.29 0.04 0  0.3 0.04 0  0.31 0.04 0  0.32 0.04 0  0.33 0.04 0  0.34 0.04 0  0.35 0.04 0  0.36 0.04 0  0.37 0.04 0  0.38 0.04 0  0.39 0.04 0  0.4 0.04 0  0.41 0.04 0  0.42 0.04 0  0.43 0.04 0  0.44 0.04 0  0.45 0.04 0  0.46 0.04 0  0.47 0.04 0  0.48 0.04 0  0.49 0.04 0  0.5 0.04 0  0.51 0.04 0  0.52 0.04 0  0.53 0.04 0  0.54 0.04 0  0.55 0.04 0  0.5600000000000001 0.04 0  0.57 0.04 0  0.58 0.04 0  0.59 0.04 0  0.6 0.04 0  0.61 0.04 0  0.62 0.04 0  0.63 0.04 0  0.64 0.04 0  0.65 0.04 0  0.66 0.04 0  0.67 0.04 0  0.68 0.04 0  0.6899999999999999 0.04 0  0.7 0.04 0  0.71 0.04 0  0.72 0.04 0  0.73 0.04 0  0.74 0.04 0  0.75 0.04 0  0.76 0.04 0  0.77 0.04 0  0.78 0.04 0  0.79 0.04 0  0.8 0.04 0  0.8100000000000001 0.04 0  0.82 0.04 0  0.83 0.04 0  0.84 0.04 0  0.85 0.04 0  0.86 0.04 0  0.87 0.04 0  0.88 0.04 0  0.89 0.04 0  0.9 0.04 0  0.91 0.04 0  0.92 0.04 0  0.93 0.04 0  0.9399999999999999 0.04 0  0.95 0.04 0  0.96 0.04 0  0.97 0.04 0  0.98 0.04 0  0.99 0.04 0  1 0.04 0  0 0.05 0  0.01 0.05 0  0.02 0.05 0  0.03 0.05 0  0.04 0.05 0  0.05 0.05 0  0.06 0.05 0  0.07000000000000001 0.05 0  0.08 0.05 0  0.09 0.05 0  0.1 0.05 0  0.11 0.05 0  0.12 0.05 0  0.13 0.05 0  0.14 0.05 0  0.15 0.05 0  0.16 0.05 0  0.17 0.05 0  0.18 0.05 0  0.19 0.05 0  0.2 0.05 0  0.21 0.05 0  0.22 0.05 0  0.23 0.05 0  0.24 0.05 0  0.25 0.05 0  0.26 0.05 0  0.27 0.05 0  0.28 0.05 0  0.29 0.05 0  0.3 0.05 0  0.31 0.05 0  0.32 0.05 0  0.33 0.05 0  0.34 0.05 0  0.35 0.05 0  0.36 0.05 0  0.37 0.05 0  0.38 0.05 0  0.39 0.05 0  0.4 0.05 0  0.41 0.05 0  0.42 0.05 0  0.43 0.05 0  0.44 0.05 0  0.45 0.05 0  0.46 0.05 0  0.47 0.05 0  0.48 0.05 0  0.49 0.05 0  0.5 0.05 0  0.51 0.05 0  0.52 0.05 0  0.53 0.05 0  0.54 0.05 0  0.55 0.05 0  0.5600000000000001 0.05 0  0.57 0.05 0  0.58 0.05 0  0.59 0.05 0  0.6 0.05 0  0.61 0.05 0  0.62 0.05 0  0.63 0.05 0  0.64 0.05 0  0.65 0.05 0  0.66 0.05 0  0.67 0.05 0  0.68 0.05 0  0.6899999999999999 0.05 0  0.7 0.05 0  0.71 0.05 0  0.72 0.05 0  0.73 0.05 0  0.74 0.05 0  0.75 0.05 0  0.76 0.05 0  0.77 0.05 0  0.78 0.05 0  0.79 0.05 0  0.8 0.05 0  0.8100000000000001 0.05 0  0.82 0.05 0  0.83 0.05 0  0.84 0.05 0  0.85 0.05 0  0.86 0.05 0  0.87 0.05 0  0.88 0.05 0  0.89 0.05 0  0.9 0.05 0  0.91 0.05 0  0.92 0.05 0  0.93 0.05 0  0.9399999999999999 0.05 0  0.95 0.05 0  0.96 0.05 0  0.97 0.05 0  0.98 0.05 0  0.99 0.05 0  1 0.05 0  0 0.06 0  0.01 0.06 0  0.02 0.06 0  0.03 0.06 0  0.04 0.06 0  0.05 0.06 0  0.06 0.06 0  0.07000000000000001 0.06 0  0.08 0.06 0  0.09 0.06 0  0.1 0.06 0  0.11 0.06 0  0.12 0.06 0  0.13 0.06 0  0.14 0.06 0  0.15 0.06 0  0.16 0.06 0  0.17 0.06 0  0.18 0.06 0  0.19 0.06 0  0.2 0.06 0  0.21 0.06 0  0.22 0.06 0  0.23 0.06 0  0.24 0.06 0  0.25 0.06 0  0.26 0.06 0  0.27 0.06 0  0.28 0.06 0  0.29 0.06 0  0.3 0.06 0  0.31 0.06 0  0.32 0.06 0  0.33 0.06 0  0.34 0.06 0  0.35 0.06 0  0.36 0.06 0  0.37 0.06 0  0.38 0.06 0  0.39 0.06 0  0.4 0.06 0  0.41 0.06 0  0.42 0.06 0  0.43 0.06 0  0.44 0.06 0  0.45 0.06 0  0.46 0.06 0  0.47 0.06 0  0.48 0.06 0  0.49 0.06 0  0.5 0.06 0  0.51 0.06 0  0.52 0.06 0  0.53 0.06 0  0.54 0.06 0  0.55 0.06 0  0.5600000000000001 0.06 0  0.57 0.06 0  0.58 0.06 0  0.59 0.06 0  0.6 0.06 0  0.61 0.06 0  0.62 0.06 0  0.63 0.06 0  0.64 0.06 0  0.65 0.06 0  0.66 0.06 0  0.67 0.06 0  0.68 0.06 0  0.6899999999999999 0.06 0  0.7 0.06 0  0.71 0.06 0  0.72 0.06 0  0.73 0.06 0  0.74 0.06 0  0.75 0.06 0  0.76 0.06 0  0.77 0.06 0  0.78 0.06 0  0.79 0.06 0  0.8 0.06 0  0.8100000000000001 0.06 0  0.82 0.06 0  0.83 0.06 0  0.84 0.06 0  0.85 0.06 0  0.86 0.06 0  0.87 0.06 0  0.88 0.06 0  0.89 0.06 0  0.9 0.06 0  0.91 0.06 0  0.92 0.06 0  0.93 0.06 0  0.9399999999999999 0.06 0  0.95 0.06 0  0.96 0.06 0  0.97 0.06 0  0.98 0.06 0  0.99 0.06 0  1 0.06 0  0 0.07000000000000001 0  0.01 0.07000000000000001 0  0.02 0.07000000000000001 0  0.03 0.07000000000000001 0  0.04 0.07000000000000001 0  0.05 0.07000000000000001 0  0.06 0.07000000000000001 0  0.07000000000000001 0.07000000000000001 0  0.08 0.07000000000000001 0  0.09 0.07000000000000001 0  0.1 0.07000000000000001 0  0.11 0.07000000000000001 0  0.12 0.07000000000000001 0  0.13 0.07000000000000001 0  0.14 0.07000000000000001 0  0.15 0.07000000000000001 0  0.16 0.07000000000000001 0  0.17 0.0700
[...]
<PointData  Scalars="Indicator Function"> 
<DataArray  type="Float64"  Name="Indicator Function"  format="ascii">-5.4352017781666104e-19  1.0918821369487236e-18  3.5902172061374674e-17  1.4523633719478163e-18  8.9228765167715463e-17  -1.4639486543863739e-19  -5.2364829436767643e-19  4.3747731438578269e-17  1.8490164278952719e-16  -2.7950744042021541e-19  6.2171239659377361e-17  4.6501729738806503e-17  -2.9113383707379074e-19  -5.4190188075181042e-19  4.9220776143984615e-16  7.7037197775489434e-34  -1.4683317519127081e-18  4.4574514296662442e-16  -9.3995737316575917e-19  -1.2994338693731553e-18  1.0060968268920392e-15  -2.3564178705586418e-18  -9.7358005938068892e-19  4.7705422909654409e-17  -3.8490276309155779e-19  -1.0360478829125426e-18  -8.2569563035936517e-19  -1.4108884274042936e-18  1.2112358169716725e-15  -2.6039803917959075e-18  -4.0880679268385260e-18  -2.0440339634192634e-18  -2.0376087073777596e-18  -2.7789516397206802e-18  9.5593497368635532e-17  -1.1615516230971057e-18  -4.8176240459619348e-18  -7.4776703210613262e-18  -6.8086180995746470e-18  -8.0727857605185245e-18  6.3751522644239600e-16  -7.5349274646217276e-19  -2.2087097207107431e-18  -3.5136486139913697e-18  -2.1839001230256481e-18  -1.0919500615127874e-18  1.9139683650964577e-16  -1.2310935801436839e-18  -2.0873306864779794e-19  -7.3799620459836760e-19  -3.6899810229918404e-19  -7.3025397305032824e-19  -2.3193954919234658e-19  -1.0182789675242421e-18  -7.4785589091157344e-19  -1.1780446061451530e-19  2.3106720091354425e-17  -3.7432833855364443e-20  -4.5735698371337835e-20  -2.2067365590007713e-19  0.0000000000000000e+00  -6.6791286789757806e-20  -1.6956012864590476e-19  -6.8362535118544488e-20  -1.1763382159288550e-19  -1.7131874563034337e-19  -2.9401350869216688e-20  -2.0917274963491670e-20  4.6661898000200609e-17  -1.1526593565149811e-19  -1.4522783981392414e-20  6.0185310762101120e-36  -2.2584973352107880e-21  -9.0006433010784617e-20  -2.4218003443342047e-19  -2.0140522478577937e-19  -4.6238776703903702e-20  -1.5245279295807655e-19  -1.2817343310511298e-19  -3.5534953819443830e-20  -3.2531954912520933e-20  5.6614823648686782e-17  -1.8546470050780031e-20  -1.6433418510763913e-19  -1.3773361910346099e-19  -7.7641653511413161e-20  -3.0092655381050560e-36  -3.1091592600623200e-20  -6.9948119362976530e-20  -2.1270895341629184e-20  -7.4589653374578495e-21  -3.0092655381050560e-36  -2.9525701696071221e-20  4.6464503809081932e-17  -2.0525204317959657e-20  -6.9587702957799852e-21  -4.0950991523839570e-21  -9.4407468454917514e-22  -7.9101267969299894e-21  7.5231638452626401e-37  9.0277966143151681e-36  0.0000000000000000e+00  1.8261133396692317e-02  3.7137161494534693e-02  8.2784671206786280e-03  8.4941576364248039e-03  3.2725821049900763e-04  4.8004056266383582e-03  7.0330062402306909e-03  3.8207739685268333e-02  3.0637348135340726e-02  5.0351584180950279e-03  4.3614515539252073e-02  1.0489201921283733e-02  1.9524072865801184e-02  9.4495173036116334e-03  6.3812155387845446e-02  3.2039089280172774e-02  1.0431568682994967e-02  3.3865533404267699e-02  4.6817039119211763e-02  2.0538404492766883e-02  6.1767455036235014e-02  4.2449450575108308e-02  1.7538459170569089e-02  1.3867583523464105e-02  3.7327558875383332e-02  2.9748820265663091e-02  1.1106030771307999e-02  1.9863290998023107e-02  2.1161342205175890e-02  3.6328469386100563e-02  7.3644084767901033e-02  2.4532085622675417e-02  2.4440252449755711e-02  5.6091636219100682e-02  3.9422068314745297e-02  2.0924653827806880e-02  9.2754991277853735e-02  1.4707834720380922e-01  1.4972985038730602e-01  1.1556580820336286e-01  5.8789042719011780e-02  1.3573718608773646e-02  5.5625047008967553e-02  3.5483742850245789e-02  3.9341647121090749e-02  3.5082632578394356e-02  1.1699826156535410e-02  2.2177410355173215e-02  3.7602006807284927e-03  1.3294557728120196e-02  9.5971662902801305e-03  8.3565029385210612e-03  4.7945436442853205e-03  1.5946411292662898e-02  5.5717926890418252e-03  2.1221764997044826e-03  1.3486599728195279e-03  1.6478021931414903e-03  3.3070353315387342e-03  2.3217855121589223e-03  2.9177636073334873e-04  3.6793376115781223e-03  1.2148549229572978e-03  1.2315099507439176e-03  2.2083546653673593e-03  2.2551258611882737e-03  4.8385406623197090e-04  1.3488509380877345e-04  1.2703240797178595e-03  1.4412844595354639e-03  2.3251384851176920e-04  8.1370942058180679e-05  7.4508876693236341e-04  2.5856106670834049e-03  3.8566421658408913e-03  1.6998728982623812e-03  8.3296375013507291e-04  2.3298634911628033e-03  1.8758859861310127e-03  1.1720872001733324e-03  1.2761337187618769e-04  6.6820700487784778e-04  1.1443638671858115e-03  2.3881995656670849e-03  1.9303431045472781e-03  1.0790930378580135e-03  2.0929737911509370e-04  9.8741705303657663e-04  7.6636477067518357e-04  9.9956422372362200e-05  8.4390562871197389e-05  9.7045186591831182e-05  4.8336516332919373e-04  3.1610550791815405e-04  2.5309538508235067e-04  1.4754149613377301e-04  1.1980622221686713e-05  1.2744864429644869e-04  8.9712079149630600e-05  2.4900103964728570e-21  -1.0730061900704137e-18  4.1417815762812378e-03  7.8756619780673658e-03  5.3312834373405739e-04  1.0462239492118906e-02  3.4836905305253373e-02  4.5506143782163702e-03  3.1037738373731381e-02  2.4494157284349802e-03  1.2862534409018762e-02  4.1908979726901691e-02  3.2988070930937266e-02  2.4228183515293645e-02  7.0202498509690611e-02  6.7451050488328612e-02  4.9488639134805813e-02  1.2266447872667141e-03  8.3284898391476070e-02  1.9570165310852889e-02  1.5949189765182750e-02  2.3855751639165892e-02  4.5184300941575321e-02  3.5985800905326576e-02  4.0534089795171376e-02  2.4733432388822699e-02  1.5573309823098543e-03  3.5457272057134469e-02  4.4875559821653560e-02  6.4132999203703453e-02  2.1775638993079667e-02  7.0093911159236647e-02  6.0993889617273984e-02  4.5548796100910997e-02  4.7463165890623840e-02  5.7444883410567485e-02  6.1022328572615463e-02  7.7508766092444564e-04  7.5641028730652940e-02  1.4433818268922657e-01  1.6677122018664703e-01  1.8490223652522930e-01  1.0081027614129538e-01  1.0299713913577467e-02  2.7815460434371563e-02  6.7280718800281358e-02  1.5024037709270955e-02  3.6048637295499927e-03  9.3012612960989526e-03  2.3992763471592033e-02  9.3117850941725842e-03  2.0781975635227413e-02  5.7651198735424389e-03  9.5570615826837922e-03  6.4127772563370234e-03  2.0645817849243731e-02  1.0201148358094830e-02  7.8991285061274076e-04  5.3338554504045155e-05  6.6651396009915066e-04  9.1870397357904495e-04  6.2861757747030610e-03  1.5549588003767546e-03  3.3458439882450394e-03  3.8753107965743606e-03  1.5788343087138057e-03  1.6003560462912716e-03  3.3953008348925921e-03  5.3938589654440661e-04  8.8911099132388868e-04  1.1495286490627961e-03  1.9730072097947494e-03  6.4698615028588346e-04  3.1993695756239585e-05  4.5064473119508192e-05  2.1175115074220396e-03  4.2355721550825275e-03  3.4757215179797708e-03  7.1078728612426631e-05  2.1812486804280002e-03  2.4497702393314990e-03  1.5738972583453777e-03  8.5315025223460820e-04  1.1904646059396503e-03  4.0815408533457814e-04  2.5392442273457212e-03  2.3752666297341810e-03  1.8727815268998018e-03  1.0667940791202783e-04  9.2165210032094081e-04  1.0952444771012157e-03  2.1854477638193816e-04  3.5577069242302565e-04  1.7440926181651179e-04  8.4039815756511624e-04  1.3412553065060171e-04  5.9153482771775524e-04  2.0114254821145116e-04  9.2712403615181644e-05  1.1879333861520837e-04  2.3729894087287434e-04  5.9277318272151694e-20  7.7037197775489434e-34  2.7539574861160737e-02  9.2110777719245848e-03  5.1245673269855657e-02  2.3437319562094269e-02  2.1738583420388134e-03  2.8441418869502907e-03  3.0299956956302554e-03  1.1088377154013014e-02  6.1242727268237998e-02  9.0152113919317559e-02  5.2492793998817872e-02  5.9596369387611807e-02  3.2382734089234776e-02  1.1464865654912716e-02  3.6622362787510562e-02  1.2965094866500951e-01  1.2019883363106902e-03  1.8542669583997407e-02  5.1761170385005321e-02  9.3015270956188931e-02  7.3280723968666903e-02  1.3489381807861181e-01  1.2679189700917870e-01  7.8374692911609312e-02  3.7534304010815034e-02  6.5210087113290724e-02  6.8992404212199543e-02  2.7475952600996407e-02  4.3609202947850402e-02  4.2908901719202079e-02  6.3887720875183157e-02  1.4478969255402085e-01  8.1274121384963996e-02  8.9111196837778003e-03  7.5456967566677677e-02  4.9119315817280351e-02  4.1508945174552926e-02  1.2636880269682985e-01  1.8554358308076044e-01  1.6533046069694207e-01  1.3597861499313454e-01  7.2267377956995796e-02  3.6932816961959263e-02  6.8491591494328152e-02  3.4897794373199717e-02  8.1718828488714729e-02  9.4020300664445083e-02  5.3447708345892818e-02  5.2664888571384801e-02  2.5402101782477215e-02  3.2308996037589910e-02  2.5575529590564163e-02  5.6735484986731874e-03  9.1434017954877735e-03  2.2686374505295381e-02  2.8938472902771765e-04  4.2856802347820324e-03  5.6267120900348857e-03  4.4347069930056370e-03  5.4124133087555164e-03  2.6231778700265946e-03  1.7265627045579825e-03  6.5899123137362287e-03  1.0245847059266064e-04  2.4425203906146263e-03  2.0936062756018478e-03  3.0366185817594636e-03  1.6339021946094265e-03  3.9368608542751958e-04  2.1739833741776194e-03  1.6054304014134978e-03  2.8934109975756200e-04  4.1645811083394530e-04  8.6532653522669145e-04  3.5339014030533254e-03  4.8346620078405468e-03  1.0618238176726728e-03  1.4507828241701233e-03  2.7443687258765187e-03  1.7375962719275826e-03  1.2297600826785080e-03  3.0961692879864528e-04  1.0811481340927663e-03  2.0498592771347030e-03  2.9484173738499797e-03  1.6639163744455051e-03  1.1921885905964386e-03  1.6837680642165271e-04  1.6482313371931165e-03  6.2484395256933985e-04  5.8308131701413754e-04  2.7771811189076572e-05  1.6425661737457615e-05  1.0446526777117726e-03  2.2606683784469087e-04  4.5127763108846782e-04  2.6054072053278103e-04  5.8027078098533186e-05  8.5214947144262936e-05  -7.2222372914521344e-35  -3.2791541827318515e-19  8.9036172164896482e-03  1.1382360011718795e-02  2.2780344211233393e-02  2.9064053598498846e-03  6.3677749698311144e-03  3.3783455139539918e-02  3.3714687911622694e-02  4.0536669211534780e-02  1.2458130463140558e-02  1.1464084869181875e-02  2.4348568139094359e-02  5.1161773447876022e-02  7.1261005595624094e-02  7.1837510573867169e-02  1.2550585720999355e-01  7.7252549882268979e-03  8.5742390073993979e-03  1.0472480091841677e-01  5.1156803216984244e-02  5.1010712296850148e-02  6.3235025004005435e-02  1.5635305095374998e-02  1.3230585414676251e-02  2.2484065957408362e-02  2.4129911972488444e-02  9.3166149978061996e-03  7.5444930250452139e-02  9.2235179754422192e-02  9.8542331261417898e-02  3.8660619354291687e-02  8.5557320918148647e-02  8.5292554802597301e-02  7.6637091509081642e-02  1.0828056071766722e-01  4.3351025251745230e-02  6.1194792585430681e-02  5.8026717339690372e-03  8.2896399035379043e-02  1.5527676210302213e-01  1.8311460744666244e-01  1.9749774813174789e-01  8.4024916429693328e-02  2.2792477417528968e-02  2.0408190488168537e-02  8.1403523225377125e-02  3.0266221070552605e-02  2.6993904259699011e-02  4.7979359775210235e-02  3.4384881700382178e-03  5.7957205945647879e-03  1.9298149207387160e-02  2.3243867808926248e-03  1.7604008022940883e-02  5.4702545694544739e-03  2.8792711813695099e-02  8.8680832998423373e-03  6.0255846413288560e-03  9.3543041084238430e-06  3.7452564412814022e-03  3.8885974960852581e-03  9.3400650018988264e-03  4.0611636403374745e-03  3.6062988182575095e-03  5.5656708078216134e-03  3.6117091755066446e-03  1.5861534295148496e-03  3.5717969808296375e-03  3.5150039509068953e-04  1.6612383853008528e-03  2.0179311857101813e-03  2.4827045694623771e-03  3.5477573707899250e-04  2.1321302018292867e-04  4.9071460711651684e-04  2.2850316900773948e-03  4.7720621790373766e-03  3.6371317402698424e-03  1.0846515131199797e-03  2.4562222374327172e-03  2.3703057908014882e-03  1.2399779867939156e-03  9.1823416958540288e-04  1.7161519738377454e-03  5.3248792841392614e-04  3.2249637917859983e-03  2.2735618822222643e-03  1.5006745097747886e-03  2.2758491294676939e-04  9.9033127440463606e-04  1.4371990921042651e-03  7.3537449477086163e-05  7.2568877335238435e-04  3.6811521009158125e-04  1.0513525043770670e-03  1.9690846806899012e-04  7.8867111863725617e-04  2.6785949468006819e-04  2.4796927356435391e-04  4.1444786060270387e-05  -1.3465269186241808e-20  -1.6881258530631212e-18  5.0898658772847293e-02  4.5576365798699614e-02  5.9429176107183368e-03  5.6171847785124525e-02  5.1645254578146622e-02  6.9729292240648050e-03  2.1155229813552411e-02  6.2189873296540198e-03  3.3953052874628818e-02  5.8951799182245093e-02  1.0277110664389184e-01  9.7335799016926197e-02  2.7882183207584670e-02  3.8138438357810694e-02  3.1748731150198321e-02  8.6974819270186354e-03  1.5107418331101655e-01  3.4572470552737836e-02  4.5368479325147364e-02  3.2780120307470642e-02  9.0695889274654953e-02  8.1909533181241570e-02  1.5889238686410753e-01  1.6947904913823753e-01  1.2526481637999642e-01  6.1146078861537889e-02  6.3777322420610003e-02  6.7518889291315887e-02  1.9846023860679948e-02  7.9683347673491639e-02  7.5172628051548784e-02  8.9060974726056147e-02  1.9692929463610401e-01  9.0239334162048115e-02  2.4216910918319019e-02  8.6546340896206927e-02  5.3960402966837864e-02  5.8671049139820165e-02  1.4112713048833134e-01  1.9139094658072436e-01  1.6436461233188196e-01  1.5560993484733787e-01  6.8513396685238592e-02  6.5357426324671841e-02  6.3813128667078500e-02  3.5063969230549184e-02  1.0529661066039246e-01  1.1359805586423277e-01  6.2617402057195751e-02  6.5169706510370629e-02  4.1567821637909196e-02  4.5324080131131518e-02  3.5073019059105572e-02  5.5019202005079822e-03  9.7100210383864512e-03  2.9574642050930047e-02  5.3576647479952845e-03  7.1635413982676184e-03  7.9553789532644473e-03  4.5634612359147396e-03  4.6956810848093802e-03  4.3556518045502731e-03  4.5987447846137569e-03  8.3828416205729943e-03  1.8657026019884784e-04  4.0153254616263146e-03  1.6464587395408267e-03  3.5792248415494540e-03  2.3379083053605095e-03  3.6827717815630587e-04  3.0007383298600370e-03  1.8181228184303991e-03  7.0613275277105734e-04  5.7287937852927183e-04  4.6062722318255709e-04  3.8412053321080658e-03  5.2310736508233875e-03  7.0335152628211940e-04  2.1517628855966886e-03  2.8888575889090828e-03  1.5174964114814855e-03  1.1240018865756507e-03  2.1257445304957704e-04  1.5737578910232088e-03  2.5612184047691558e-03  3.3671601952461453e-03  1.3562780304573175e-03  1.1211522457624135e-03  6.3405004325111129e-04  2.0471639227604113e-03  6.3479624665086669e-04  8.9772367663952469e-04  5.9244469580764190e-05  1.6486279610453320e-04  1.4796132796428066e-03  2.2760813331787060e-05  6.9573957200035790e-04  3.4203899641188071e-04  1.8812001423216724e-04  -1.5046327690525280e-36  -6.3415717495411647e-20  3.0410571851238310e-02  4.7018924730714761e-03  1.1502405414898458e-02  4.4740981961453236e-02  2.8213843307670218e-02  8.4450361788049422e-05  2.2811921837965415e-02  4.2998329042717116e-02  3.4236438757432507e-02  9.8178236120837013e-03  2.6602744826683632e-02  1.2228322878731566e-02  1.3651678801906875e-02  9.4788853981654889e-02  3.8374370780074919e-02  1.2876881198896911e-01  1.9874630248751083e-02  3.9515881571908225e-02  8.5774956194808308e-02  4.7399518053371482e-02  5.7112542688781229e-02  8.9776986637129907e-02  1.3227995972921852e-02  2.2672789486349234e-02  2.8184139164444486e-02  9.1914100673834657e-03  1.6321407697540445e-02  9.5161774244828981e-02  1.2480944147346025e-01  1.0910382807865394e-01  2.5033637008474642e-02  9.9747322127603608e-02  8.3108352405795158e-02  1.0799928570944749e-01  1.5222321543375053e-01  2.7534246834648508e-02  6.3257274020293311e-02  1.4956043210393219e-03  9.3386163303436590e-02  1.7291893339057443e-01  2.0042708895661143e-01  1.9490841042666060e-01  8.0180061439544037e-02  2.0248717157038791e-02  3.1544118035919652e-02  8.9067985619203108e-02  3.8905928496186661e-02  4.9798909103245810e-02  8.6037660617374986e-02  2.3151863740654820e-02  1.0880273164879946e-02  5.5024714882557025e-03  9.5255196623613946e-03  2.9148381497173050e-02  2.2433803095011384e-03  3.2599719287713158e-02  1.0955413410007189e-02  1.1786101980590101e-02  8.7326471951753172e-04  6.9898122258215253e-03  6.0258803475827377e-03  1.0623433425408580e-02  4.3976792909341022e-03  2.1539778965694984e-03  7.3822279422039276e-03  4.8085620502982132e-03  2.3239440216425056e-03  3.2448937181667236e-03  6.6822463961854349e-04  2.3740672946350812e-03  2.5934962504879952e-03  3.1173951674877730e-03  3.1084379498877380e-04  5.4196633375967545e-04  8.9102473419777736e-04  2.1698797432551497e-03  5.1629558709206146e-03  3.7777442026088025e-03  1.8954672140773638e-03  2.8594001579388215e-03  2.3858530933464225e-03  9.8421797200786689e-04  9.3513903723306850e-04  1.7660527190434231e-03  4.1448357475139925e-04  3.9253073391946943e-03  2.4273327840464974e-03  1.1208062945096886e-03  1.5210043892476783e-04  8.1641059447983824e-04  1.8942686962046208e-03  2.7183425191609051e-04  1.0621351533069937e-03  4.9682619435816836e-04  9.1957784423689077e-04  5.1268601248564603e-04  6.6907208940100054e-04  3.7184079592481322e-04  2.9939787224791904e-04  -1.6619920564671039e-20  -5.8054050562726221e-19  1.1423960067270924e-03  2.0396850001636255e-02  1.1924386095122320e-02  3.4828578320452080e-02  3.6891325263923767e-02  5.8503530282436357e-02  1.7447015102402005e-03  3.9330132549608030e-02  2.0374656865557551e-02  4.4707090305874109e-02  4.7002064394943269e-02  8.5192491870090578e-02  8.3966806816641745e-02  1.2636036318127533e-02  6.8778216600941843e-03  3.9581492367948695e-02  2.7554552692454111e-02  1.3080214670655776e-01  2.7393334061508616e-02  4.7103223776640071e-02  1.5284143003269506e-02  6.8991323869996110e-02  5.3727221945237359e-02  1.3697534345999446e-01  1.4962887914625142e-01  1.1271133216157889e-01  5.7414054398934843e-02  5.2628341370563290e-02  4.4939806180277091e-02  2.8302274384846729e-03  1.0117514700213702e-01  9.9539288343036880e-02  9.7194220731631101e-02  2.2263822551313289e-01  7.0638687091469129e-02  7.0125923976490923e-02  8.3884546012583480e-02  5.1193017452251473e-02  7.3331013177601975e-02  1.5492790786705657e-01  1.9816569909508255e-01  1.7713141618912209e-01  1.6713478694866615e-01  5.5195670629506442e-02  7.9448231465372707e-02  6.2459403181604901e-02  3.4253165522140888e-02  1.1480559470029360e-01  1.0373259089771183e-01  3.3673952009938536e-02  4.7286843925149195e-02  3.4621055560261037e-02  4.1981333979996399e-02  3.1712616632858223e-02  1.1845043583961086e-02  1.2448098933737200e-02  3.5067946038922715e-02  7.1349574044396197e-03  1.1371168373998009e-02  8.1709052266455140e-03  1.9930087853716138e-03  2.4951158691985578e-03  6.1952886541783358e-03  6.3472883799947999e-03  8.5457032431766559e-03  1.2050557464040610e-03  5.6610168073074263e-03  1.7462012332344482e-03  3.5868544322830783e-03  2.4019613201939753e-03  2.4167028525287314e-05  3.8014790068880270e-03  2.1843652505001017e-03  8.9224270682680066e-04  4.3683646152011045e-04  1.1706945445986165e-05  3.9760026687577126e-03  5.5163169356691371e-03  5.7744419760662430e-04  3.1017949277270156e-03  3.1363388358775558e-03  1.4795063840534453e-03  9.6549380098375447e-04  1.0396441603001634e-04  1.7561221496585340e-03  2.8105816530423406e-03  3.9496240531341400e-03  1.3323751072881411e-03  8.1022198249257359e-04  6.6198779932198735e-04  2.2437687367931080e-03  9.9997606819773291e-04  1.0508291976261139e-03  2.0614694026965826e-04  2.6662642283386200e-04  1.5534955062805325e-03  6.0278821253675939e-05  7.3266819729767821e-04  3.0953183741086579e-04  -4.2956171593509271e-20  -3.3941466080200247e-19  1.2132704873565122e-02  9.9403261473738295e-03  1.3037591035439765e-02  1.8298627290241707e-02  2.1044189138971089e-02  5.0996985147904142e-02  4.3133984755805909e-03  1.0130089833489925e-02  3.4545273234538910e-02  2.9256623026594469e-02  2.5843151438289511e-03  1.3971650345539125e-02  1.4094915212928341e-02  1.8447346235895154e-02  7.6409497445747154e-02  2.5839691051269740e-02  