<?xml version="1.0"?>
<VTKFile type="UnstructuredGrid"  version="0.1"  >
<UnstructuredGrid>
<Piece  NumberOfPoints="2601" NumberOfCells="5000">
<Points>
<DataArray  type="Float64"  NumberOfComponents="3"  format="ascii">0 0 0  0.02 0 0  0.04 0 0  0.06 0 0  0.08 0 0  0.1 0 0  0.12 0 0  0.14 0 0  0.16 0 0  0.18 0 0  0.2 0 0  0.22 0 0  0.24 0 0  0.26 0 0  0.28 0 0  0.3 0 0  0.32 0 0  0.34 0 0  0.36 0 0  0.38 0 0  0.4 0 0  0.42 0 0  0.44 0 0  0.46 0 0  0.48 0 0  0.5 0 0  0.52 0 0  0.54 0 0  0.5600000000000001 0 0  0.58 0 0  0.6 0 0  0.62 0 0  0.64 0 0  0.66 0 0  0.68 0 0  0.7 0 0  0.72 0 0  0.74 0 0  0.76 0 0  0.78 0 0  0.8 0 0  0.82 0 0  0.84 0 0  0.86 0 0  0.88 0 0  0.9 0 0  0.92 0 0  0.9399999999999999 0 0  0.96 0 0  0.98 0 0  1 0 0  0 0.02 0  0.02 0.02 0  0.04 0.02 0  0.06 0.02 0  0.08 0.02 0  0.1 0.02 0  0.12 0.02 0  0.14 0.02 0  0.16 0.02 0  0.18 0.02 0  0.2 0.02 0  0.22 0.02 0  0.24 0.02 0  0.26 0.02 0  0.28 0.02 0  0.3 0.02 0  0.32 0.02 0  0.34 0.02 0  0.36 0.02 0  0.38 0.02 0  0.4 0.02 0  0.42 0.02 0  0.44 0.02 0  0.46 0.02 0  0.48 0.02 0  0.5 0.02 0  0.52 0.02 0  0.54 0.02 0  0.5600000000000001 0.02 0  0.58 0.02 0  0.6 0.02 0  0.62 0.02 0  0.64 0.02 0  0.66 0.02 0  0.68 0.02 0  0.7 0.02 0  0.72 0.02 0  0.74 0.02 0  0.76 0.02 0  0.78 0.02 0  0.8 0.02 0  0.82 0.02 0  0.84 0.02 0  0.86 0.02 0  0.88 0.02 0  0.9 0.02 0  0.92 0.02 0  0.9399999999999999 0.02 0  0.96 0.02 0  0.98 0.02 0  1 0.02 0  0 0.04 0  0.02 0.04 0  0.04 0.04 0  0.06 0.04 0  0.08 0.04 0  0.1 0.04 0  0.12 0.04 0  0.14 0.04 0  0.16 0.04 0  0.18 0.04 0  0.2 0.04 0  0.22 0.04 0  0.24 0.04 0  0.26 0.04 0  0.28 0.04 0  0.3 0.04 0  0.32 0.04 0  0.34 0.04 0  0.36 0.04 0  0.38 0.04 0  0.4 0.04 0  0.42 0.04 0  0.44 0.04 0  0.46 0.04 0  0.48 0.04 0  0.5 0.04 0  0.52 0.04 0  0.54 0.04 0  0.5600000000000001 0.04 0  0.58 0.04 0  0.6 0.04 0  0.62 0.04 0  0.64 0.04 0  0.66 0.04 0  0.68 0.04 0  0.7 0.04 0  0.72 0.04 0  0.74 0.04 0  0.76 0.04 0  0.78 0.04 0  0.8 0.04 0  0.82 0.04 0  0.84 0.04 0  0.86 0.04 0  0.88 0.04 0  0.9 0.04 0  0.92 0.04 0  0.9399999999999999 0.04 0  0.96 0.04 0  0.98 0.04 0  1 0.04 0  0 0.06 0  0.02 0.06 0  0.04 0.06 0  0.06 0.06 0  0.08 0.06 0  0.1 0.06 0  0.12 0.06 0  0.14 0.06 0  0.16 0.06 0  0.18 0.06 0  0.2 0.06 0  0.22 0.06 0  0.24 0.06 0  0.26 0.06 0  0.28 0.06 0  0.3 0.06 0  0.32 0.06 0  0.34 0.06 0  0.36 0.06 0  0.38 0.06 0  0.4 0.06 0  0.42 0.06 0  0.44 0.06 0  0.46 0.06 0  0.48 0.06 0  0.5 0.06 0  0.52 0.06 0  0.54 0.06 0  0.5600000000000001 0.06 0  0.58 0.06 0  0.6 0.06 0  0.62 0.06 0  0.64 0.06 0  0.66 0.06 0  0.68 0.06 0  0.7 0.06 0  0.72 0.06 0  0.74 0.06 0  0.76 0.06 0  0.78 0.06 0  0.8 0.06 0  0.82 0.06 0  0.84 0.06 0  0.86 0.06 0  0.88 0.06 0  0.9 0.06 0  0.92 0.06 0  0.9399999999999999 0.06 0  0.96 0.06 0  0.98 0.06 0  1 0.06 0  0 0.08 0  0.02 0.08 0  0.04 0.08 0  0.06 0.08 0  0.08 0.08 0  0.1 0.08 0  0.12 0.08 0  0.14 0.08 0  0.16 0.08 0  0.18 0.08 0  0.2 0.08 0  0.22 0.08 0  0.24 0.08 0  0.26 0.08 0  0.28 0.08 0  0.3 0.08 0  0.32 0.08 0  0.34 0.08 0  0.36 0.08 0  0.38 0.08 0  0.4 0.08 0  0.42 0.08 0  0.44 0.08 0  0.46 0.08 0  0.48 0.08 0  0.5 0.08 0  0.52 0.08 0  0.54 0.08 0  0.5600000000000001 0.08 0  0.58 0.08 0  0.6 0.08 0  0.62 0.08 0  0.64 0.08 0  0.66 0.08 0  0.68 0.08 0  0.7 0.08 0  0.72 0.08 0  0.74 0.08 0  0.76 0.08 0  0.78 0.08 0  0.8 0.08 0  0.82 0.08 0  0.84 0.08 0  0.86 0.08 0  0.88 0.08 0  0.9 0.08 0  0.92 0.08 0  0.9399999999999999 0.08 0  0.96 0.08 0  0.98 0.08 0  1 0.08 0  0 0.1 0  0.02 0.1 0  0.04 0.1 0  0.06 0.1 0  0.08 0.1 0  0.1 0.1 0  0.12 0.1 0  0.14 0.1 0  0.16 0.1 0  0.18 0.1 0  0.2 0.1 0  0.22 0.1 0  0.24 0.1 0  0.26 0.1 0  0.28 0.1 0  0.3 0.1 0  0.32 0.1 0  0.34 0.1 0  0.36 0.1 0  0.38 0.1 0  0.4 0.1 0  0.42 0.1 0  0.44 0.1 0  0.46 0.1 0  0.48 0.1 0  0.5 0.1 0  0.52 0.1 0  0.54 0.1 0  0.5600000000000001 0.1 0  0.58 0.1 0  0.6 0.1 0  0.62 0.1 0  0.64 0.1 0  0.66 0.1 0  0.68 0.1 0  0.7 0.1 0  0.72 0.1 0  0.74 0.1 0  0.76 0.1 0  0.78 0.1 0  0.8 0.1 0  0.82 0.1 0  0.84 0.1 0  0.86 0.1 0  0.88 0.1 0  0.9 0.1 0  0.92 0.1 0  0.9399999999999999 0.1 0  0.96 0.1 0  0.98 0.1 0  1 0.1 0  0 0.12 0  0.02 0.12 0  0.04 0.12 0  0.06 0.12 0  0.08 0.12 0  0.1 0.12 0  0.12 0.12 0  0.14 0.12 0  0.16 0.12 0  0.18 0.12 0  0.2 0.12 0  0.22 0.12 0  0.24 0.12 0  0.26 0.12 0  0.28 0.12 0  0.3 0.12 0  0.32 0.12 0  0.34 0.12 0  0.36 0.12 0  0.38 0.12 0  0.4 0.12 0  0.42 0.12 0  0.44 0.12 0  0.46 0.12 0  0.48 0.12 0  0.5 0.12 0  0.52 0.12 0  0.54 0.12 0  0.5600000000000001 0.12 0  0.58 0.12 0  0.6 0.12 0  0.62 0.12 0  0.64 0.12 0  0.66 0.12 0  0.68 0.12 0  0.7 0.12 0  0.72 0.12 0  0.74 0.12 0  0.76 0.12 0  0.78 0.12 0  0.8 0.12 0  0.82 0.12 0  0.84 0.12 0  0.86 0.12 0  0.88 0.12 0  0.9 0.12 0  0.92 0.12 0  0.9399999999999999 0.12 0  0.96 0.12 0  0.98 0.12 0  1 0.12 0  0 0.14 0  0.02 0.14 0  0.04 0.14 0  0.06 0.14 0  0.08 0.14 0  0.1 0.14 0  0.12 0.14 0  0.14 0.14 0  0.16 0.14 0  0.18 0.14 0  0.2 0.14 0  0.22 0.14 0  0.24 0.14 0  0.26 0.14 0  0.28 0.14 0  0.3 0.14 0  0.32 0.14 0  0.34 0.14 0  0.36 0.14 0  0.38 0.14 0  0.4 0.14 0  0.42 0.14 0  0.44 0.14 0  0.46 0.14 0  0.48 0.14 0  0.5 0.14 0  0.52 0.14 0  0.54 0.14 0  0.5600000000000001 0.14 0  0.58 0.14 0  0.6 0.14 0  0.62 0.14 0  0.64 0.14 0  0.66 0.14 0  0.68 0.14 0  0.7 0.14 0  0.72 0.14 0  0.74 0.14 0  0.76 0.14 0  0.78 0.14 0  0.8 0.14 0  0.82 0.14 0  0.84 0.14 0  0.86 0.14 0  0.88 0.14 0  0.9 0.14 0  0.92 0.14 0  0.9399999999999999 0.14 0  0.96 0.14 0  0.98 0.14 0  1 0.14 0  0 0.16 0  0.02 0.16 0  0.04 0.16 0  0.06 0.16 0  0.08 0.16 0  0.1 0.16 0  0.12 0.16 0  0.14 0.16 0  0.16 0.16 0  0.18 0.16 0  0.2 0.16 0  0.22 0.16 0  0.24 0.16 0  0.26 0.16 0  0.28 0.16 0  0.3 0.16 0  0.32 0.16 0  0.34 0.16 0  0.36 0.16 0  0.38 0.16 0  0.4 0.16 0  0.42 0.16 0  0.44 0.16 0  0.46 0.16 0  0.48 0.16 0  0.5 0.16 0  0.52 0.16 0  0.54 0.16 0  0.5600000000000001 0.16 0  0.58 0.16 0  0.6 0.16 0  0.62 0.16 0  0.64 0.16 0  0.66 0.16 0  0.68 0.16 0  0.7 0.16 0  0.72 0.16 0  0.74 0.16 0  0.76 0.16 0  0.78 0.16 0  0.8 0.16 0  0.82 0.16 0  0.84 0.16 0  0.86 0.16 0  0.88 0.16 0  0.9 0.16 0  0.92 0.16 0  0.9399999999999999 0.16 0  0.96 0.16 0  0.98 0.16 0  1 0.16 0  0 0.18 0  0.02 0.18 0  0.04 0.18 0  0.06 0.18 0  0.08 0.18 0  0.1 0.18 0  0.12 0.18 0  0.14 0.18 0  0.16 0.18 0  0.18 0.18 0  0.2 0.18 0  0.22 0.18 0  0.24 0.18 0  0.26 0.18 0  0.28 0.18 0  0.3 0.18 0  0.32 0.18 0  0.34 0.18 0  0.36 0.18 0  0.38 0.18 0  0.4 0.18 0  0.42 0.18 0  0.44 0.18 0  0.46 0.18 0  0.48 0.18 0  0.5 0.18 0  0.52 0.18 0  0.54 0.18 0  0.5600000000000001 0.18 0  0.58 0.18 0  0.6 0.18 0  0.62 0.18 0  0.64 0.18 0  0.66 0.18 0  0.68 0.18 0  0.7 0.18 0  0.72 0.18 0  0.74 0.18 0  0.76 0.18 0  0.78 0.18 0  0.8 0.18 0  0.82 0.18 0  0.84 0.18 0  0.86 0.18 0  0.88 0.18 0  0.9 0.18 0  0.92 0.18 0  0.9399999999999999 0.18 0  0.96 0.18 0  0.98 0.18 0  1 0.18 0  0 0.2 0  0.02 0.2 0  0.04 0.2 0  0.06 0.2 0  0.08 0.2 0  0.1 0.2 0  0.12 0.2 0  0.14 0.2 0  0.16 0.2 0  0.18 0.2 0  0.2 0.2 0  0.22 0.2 0  0.24 0.2 0  0.26 0.2 0  0.28 0.2 0  0.3 0.2 0  0.32 0.2 0  0.34 0.2 0  0.36 0.2 0  0.38 0.2 0  0.4 0.2 0  0.42 0.2 0  0.44 0.2 0  0.46 0.2 0  0.48 0.2 0  0.5 0.2 0  0.52 0.2 0  0.54 0.2 0  0.5600000000000001 0.2 0  0.58 0.2 0  0.6 0.2 0  0.62 0.2 0  0.64 0.2 0  0.66 0.2 0  0.68 0.2 0  0.7 0.2 0  0.72 0.2 0  0.74 0.2 0  0.76 0.2 0  0.78 0.2 0  0.8 0.2 0  0.82 0.2 0  0.84 0.2 0  0.86 0.2 0  0.88 0.2 0  0.9 0.2 0  0.92 0.2 0  0.9399999999999999 0.2 0  0.96 0.2 0  0.98 0.2 0  1 0.2 0  0 0.22 0  0.02 0.22 0  0.04 0.22 0  0.06 0.22 0  0.08 0.22 0  0.1 0.22 0  0.12 0.22 0  0.14 0.22 0  0.16 0.22 0  0.18 0.22 0  0.2 0.22 0  0.22 0.22 0  0.24 0.22 0  0.26 0.22 0  0.28 0.22 0  0.3 0.22 0  0.32 0.22 0  0.34 0.22 0  0.36 0.22 0  0.38 0.22 0  0.4 0.22 0  0.42 0.22 0  0.44 0.22 0  0.46 0.22 0  0.48 0.22 0  0.5 0.22 0  0.52 0.22 0  0.54 0.22 0  0.5600000000000001 0.22 0  0.58 0.22 0  0.6 0.22 0  0.62 0.22 0  0.64 0.22 0  0.66 0.22 0  0.68 0.22 0  0.7 0.22 0  0.72 0.22 0  0.74 0.22 0  0.76 0.22 0  0.78 0.22 0  0.8 0.22 0  0.82 0.22 0  0.84 0.22 0  0.86 0.22 0  0.88 0.22 0  0.9 0.22 0  0.92 0.22 0  0.9399999999999999 0.22 0  0.96 0.22 0  0.98 0.22 0  1 0.22 0  0 0.24 0  0.02 0.24 0  0.04 0.24 0  0.06 0.24 0  0.08 0.24 0  0.1 0.24 0  0.12 0.24 0  0.14 0.24 0  0.16 0.24 0  0.18 0.24 0  0.2 0.24 0  0.22 0.24 0  0.24 0.24 0  0.26 0.24 0  0.28 0.24 0  0.3 0.24 0  0.32 0.24 0  0.34 0.24 0  0.36 0.24 0  0.38 0.24 0  0.4 0.24 0  0.42 0.24 0  0.44 0.24 0  0.46 0.24 0  0.48 0.24 0  0.5 0.24 0  0.52 0.24 0  0.54 0.24 0  0.5600000000000001 0.24 0  0.58 0.24 0  0.6 0.24 0  0.62 0.24 0  0.64 0.24 0  0.66 0.24 0  0.68 0.24 0  0.7 0.24 0  0.72 0.24 0  0.74 0.24 0  0.76 0.24 0  0.78 0.24 0  0.8 0.24 0  0.82 0.24 0  0.84 0.24 0  0.86 0.24 0  0.88 0.24 0  0.9 0.24 0  0.92 0.24 0  0.9399999999999999 0.24 0  0.96 0.24 0  0.98 0.24 0  1 0.24 0  0 0.26 0  0.02 0.26 0  0.04 0.26 0  0.06 0.26 0  0.08 0.26 0  0.1 0.26 0  0.12 0.26 0  0.14 0.26 0  0.16 0.26 0  0.18 0.26 0  0.2 0.26 0  0.22 0.26 0  0.24 0.26 0  0.26 0.26 0  0.28 0.26 0  0.3 0.26 0  0.32 0.26 0  0.34 0.26 0  0.36 0.26 0  0.38 0.26 0  0.4 0.26 0  0.42 0.26 0  0.44 0.26 0  0.46 0.26 0  0.48 0.26 0  0.5 0.26 0  0.52 0.26 0  0.54 0.26 0  0.5600000000000001 0.26 0  0.58 0.26 0  0.6 0.26 0  0.62 0.26 0  0.64 0.26 0  0.66 0.26 0  0.68 0.26 0  0.7 0.26 0  0.72 0.26 0  0.74 0.26 0  0.76 0.26 0  0.78 0.26 0  0.8 0.26 0  0.82 0.26 0  0.84 0.26 0  0.86 0.26 0  0.88 0.26 0  0.9 0.26 0  0.92 0.26 0  0.9399999999999999 0.26 0  0.96 0.26 0  0.98 0.26 0  1 0.26 0  0 0.28 0  0.02 0.28 0  0.04 0.28 0  0.06 0.28 0  0.08 0.28 0  0.1 0.28 0  0.12 0.28 0  0.14 0.28 0  0.16 0.28 0  0.18 0.28 0  0.2 0.28 0  0.22 0.28 0  0.24 0.28 0  0.26 0.28 0  0.28 0.28 0  0.3 0.28 0  0.32 0.28 0  0.34 0.28 0  0.36 0.28 0  0.38 0.28 0  0.4 0.28 0  0.42 0.28 0  0.44 0.28 0  0.46 0.28 0  0.48 0.28 0  0.5 0.28 0  0.52 0.28 0  0.54 0.28 0  0.5600000000000001 0.28 0  0.58 0.28 0  0.6 0.28 0  0.62 0.28 0  0.64 0.28 0  0.66 0.28 0  0.68 0.28 0  0.7 0.28 0  0.72 0.28 0  0.74 0.28 0  0.76 0.28 0  0.78 0.28 0  0.8 0.28 0  0.82 0.28 0  0.84 0.28 0  0.86 0.28
[...]
<PointData  Scalars="Indicator Function"> 
<DataArray  type="Float64"  Name="Indicator Function"  format="ascii">-2.9566935269704505e-21  1.5406891966714758e-17  -1.6283650788418674e-18  3.0204165193994250e-17  9.4204481414333610e-18  -4.3994779908554802e-19  -1.9608498143886301e-18  4.2477928606462982e-16  2.1611608942567506e-16  -9.9820356829001458e-19  1.8155769572952876e-16  4.7733191305610361e-16  -3.1110337346715300e-19  -1.0251876302533246e-32  -5.3225275139824996e-17  -2.0889501233735673e-18  -7.7258796077842601e-19  2.4304240907039828e-16  -9.1506757749157869e-19  -1.3854028534647905e-18  1.3604071580254575e-16  -1.0826544879587461e-18  -9.8971372953460546e-19  4.8083470367192812e-16  2.3211795401962065e-34  -6.5397292980137639e-19  -3.0251034239220714e-19  -1.5495391416622206e-19  1.5832485549309037e-16  -2.3243203297294969e-21  -3.9386969331697320e-20  -1.9488119047439901e-20  -8.1870837689134617e-20  -1.0551492991330378e-19  -6.4649074836080198e-20  -5.8486329216921351e-20  0.0000000000000000e+00  -2.2507091581821545e-20  -6.7401854348524809e-20  -7.5177792949436986e-20  3.8722792330810419e-17  -3.2271348955984372e-20  -6.2401033024642096e-20  -6.8872717829748801e-20  -5.8660616575070421e-20  -3.2841826620907461e-20  1.4788882819636266e-18  -9.8876420077770412e-21  -4.0686541531604386e-21  -2.6729799611762511e-21  1.9343162834968389e-35  -8.4529282805772698e-19  8.1115628317257188e-03  2.6792520622095730e-03  1.8583573625730863e-03  1.0913788387820757e-02  1.5850789952193148e-02  6.9855213988577057e-04  3.5323529973640522e-02  1.5772208064992275e-02  3.2478301898409896e-02  1.7982036872763212e-02  3.3004950955510173e-03  1.1208680294562996e-02  1.0440613956544369e-02  1.8782172668748084e-02  1.9591530341402378e-02  2.7835414818181803e-02  3.6654507251004456e-02  2.2604621408319009e-02  8.9915401702857223e-03  2.0461429013345311e-02  3.4904479524857965e-02  2.0511296317390366e-03  1.7829097534142094e-02  1.5591799286172414e-02  1.7636904993387158e-03  1.0899083722186119e-02  5.5828031207886377e-03  7.8282543594174908e-04  5.4146160645584969e-05  1.4798152360645103e-05  7.0213348544161797e-04  4.5495793179859420e-04  1.2473749305378908e-03  1.2771005308893676e-03  1.2770854186344594e-03  4.1505333255315057e-04  1.8448673946225107e-04  4.0545171704434044e-04  1.0114780059902167e-03  8.4854371825936810e-04  3.4463523083239772e-04  4.0903132511545904e-04  9.1960141375151865e-04  7.8089987854044064e-04  6.6628578452502228e-04  2.5848286026582834e-04  6.3062417645216100e-05  1.4658871462458204e-04  9.6304252456977339e-05  -4.9237732610847571e-21  1.5474530267974710e-33  2.0618542825188713e-02  2.3692262827364464e-02  8.8046976349850006e-03  1.1373534998049309e-02  1.3491517691917879e-02  2.9783741256625973e-02  3.4421788993491985e-02  1.0154439283512577e-02  3.4830788115449596e-02  2.3473936327387750e-02  5.2187200581900559e-02  8.5863320332810397e-02  6.2971306018191536e-02  7.1832018776091053e-03  4.6177134304055581e-02  5.8502540992203290e-02  2.9805001529808698e-03  6.1656822094945767e-02  6.2568320214285893e-03  3.7337520282320819e-02  1.8023456694290410e-02  6.6956258873249588e-02  6.2185501688757673e-02  4.6920782760542415e-02  1.9967709639833537e-02  2.6048235548239117e-02  2.1597128182149583e-03  6.0632638019054363e-03  4.5830615981118927e-03  3.6390901720255995e-04  2.1961160215225529e-04  4.8406773230003487e-04  1.9095898040446008e-03  2.1189445019451523e-03  1.5030673621368505e-03  1.7864873119693972e-03  2.1432049232886655e-04  4.3598785556349254e-04  1.0425978617919181e-03  1.4357691248719356e-03  1.8383292996403624e-04  9.5155077249440092e-04  6.7690341764080916e-04  1.5063010923091990e-03  8.4532464973402488e-04  5.0304194990990570e-04  1.5321871065271563e-05  4.0743985189890981e-04  3.1362903088096592e-04  7.8344588536857899e-20  -1.7017208816552891e-19  1.1213841459840253e-02  4.0089322369066954e-03  8.4769784521517011e-03  1.7071995446875852e-02  1.9355107397587730e-02  3.1200909454841202e-02  4.6739742460222330e-03  7.8162511607251739e-02  5.5401251154397806e-02  7.9356344885866639e-02  6.0158896331730209e-02  2.5885361313806501e-02  3.0147076428944093e-03  1.2637703302503802e-02  2.5536778379109774e-02  3.6914320288631099e-02  5.5335942525442952e-02  8.7073114357294618e-02  4.0261187590392197e-02  4.3287575075598378e-03  4.2702023210531390e-02  5.7476171745501972e-02  7.1920118655923772e-03  5.6177930117123347e-02  5.8171378025475881e-02  1.1804317654602171e-02  2.5951915330866934e-02  1.8516015695799262e-02  2.9544494116058129e-03  2.8904032312734198e-03  3.5997197467163599e-04  9.6962538570965942e-04  1.2664095841887777e-03  2.6695994502106265e-03  2.1344116311198579e-03  1.9174015612277594e-03  7.6685374264043207e-04  2.7320733800010244e-04  1.3855660610649309e-04  1.3647933146980985e-03  8.8888210769110811e-04  1.7119474349644682e-03  9.9088452785575719e-04  1.5562022539239450e-03  1.3142555133524125e-03  9.9050373348137525e-04  2.2900444131036124e-04  2.4191138145228061e-04  3.8369719275708515e-04  -5.3248682235369014e-20  -5.1350490632339668e-19  3.4250804366202502e-02  3.1250314734511818e-03  2.6490250218007574e-02  1.1717494809947873e-03  2.0189523358448210e-02  2.1876746895261714e-02  5.9287676278960824e-02  3.6605783950072537e-02  7.7459469774542001e-03  3.2679641907158011e-02  1.7930724458823783e-02  5.9506797226441650e-02  1.2721151383678614e-01  1.1678415045077190e-01  2.5524993968265155e-02  8.5629901515312024e-02  1.0748144946881648e-01  8.6372293105073331e-03  1.1305051626627144e-01  7.1912498559533623e-03  3.9933722431267762e-02  2.0989913916910741e-02  1.0097867417981730e-01  1.0360474597544227e-01  6.0599234896623243e-02  1.8989609646331517e-02  3.6266075823890659e-02  7.2788303266665402e-04  1.6286222669000695e-02  9.7174379553685956e-03  8.3858612161572233e-06  1.3555608617824390e-04  8.7800657356989901e-04  3.0865418258744846e-03  2.8731025388750884e-03  1.6041343827564608e-03  2.3204290126427976e-03  6.3281516732629388e-04  1.0586694940452259e-03  1.0107917481156779e-03  1.4848111180249509e-03  9.2253662646852024e-04  2.3041583657638894e-03  1.0307475150503208e-03  2.3815431077388411e-03  1.1485847186780726e-03  9.0620596080949023e-04  1.8265771143333444e-04  2.5151185986090519e-04  5.1007668972223889e-20  -3.0361611573403580e-19  2.2392215512254794e-02  1.9969855480978092e-02  2.3598749314514632e-02  1.0812223399882262e-02  2.2730082295995321e-02  3.4580785618315249e-02  2.6529197404498939e-02  4.0861367955023885e-03  1.0565470688620038e-01  8.0431433282729448e-02  1.0333859707082396e-01  8.2123277500576838e-02  4.6173423041542441e-02  3.1918633875485353e-02  4.7925423187549308e-03  2.7650154017739736e-02  3.4964711628388608e-02  7.9129959430108449e-02  1.1685763573360736e-01  5.7808041690739637e-02  1.8738613964436830e-02  5.8559667876951202e-02  7.3744084536703780e-02  1.4241413422727228e-02  9.3254411870551501e-02  8.8747089472817814e-02  2.3277438252030092e-02  3.9080645475322501e-02  2.6067255188755595e-02  5.4801679227040978e-04  7.6971748776857056e-03  6.7944475712797769e-04  9.1836619011664573e-04  1.2092198444180920e-03  3.6494886230987802e-03  2.4626959505670803e-03  1.7780316413104874e-03  1.0567694121144983e-03  2.3274581148814954e-04  4.2579889115766547e-04  1.5003025379136448e-03  8.0992938244541716e-04  2.8671176376135758e-03  1.8870445204374705e-03  1.9344584163524495e-03  2.1087334294717370e-03  1.4101929567774721e-03  6.9720004559965549e-04  1.7910576626112179e-04  5.8029488504905161e-35  -4.6360529935707772e-19  9.6659240551066773e-03  2.5889771443690947e-02  2.9211230979545994e-02  4.1099753618426722e-02  3.8828293341693805e-03  2.6428583817108241e-02  2.4562714179386474e-02  7.8541228204642363e-02  4.1992533627145001e-02  7.1141694663779337e-03  2.9502786185839333e-02  1.0366336015380196e-02  5.7254406897077580e-02  1.4736169286100465e-01  1.4429035535605964e-01  3.3445233575069677e-02  1.1883966300963178e-01  1.5098104461211931e-01  2.5679753565288430e-02  1.6216627394986116e-01  2.0785276044076918e-02  2.9986133115419911e-02  2.6775898571348582e-02  1.2752310887771759e-01  1.2919772513686037e-01  6.0848093060800086e-02  5.5211483363491552e-03  3.6056639088734126e-02  5.7029497042806769e-03  2.5827366357601647e-02  1.2220281074401247e-02  3.2169958455968888e-03  2.1575325925405076e-05  1.4004416380575086e-03  3.3859528084747687e-03  3.3465192038277486e-03  1.5705603171477362e-03  2.2034145175190215e-03  7.9551714387515607e-04  8.9720105195128142e-04  9.0589498535893753e-04  1.7320640481378194e-03  1.1549352496809870e-03  3.4791959632538526e-03  1.4903358735801841e-03  2.9174361193146790e-03  1.6394915704802976e-03  1.3573796800710101e-03  5.2876249592661185e-04  1.2693950610448006e-35  -4.8255481251085487e-19  1.3761234283966733e-02  1.3961962305005309e-02  1.4025860133738717e-02  3.4327872238288704e-02  3.3436968013480790e-02  4.3721049308991525e-02  4.3658590953569651e-02  1.9741420581230355e-02  2.0130279921321187e-02  1.3248600274517011e-01  8.8717816960632107e-02  1.0740345026742715e-01  8.3739538120226581e-02  4.3117430320996603e-02  3.6985817296151788e-02  6.8314872006121847e-03  2.2582088062398472e-02  3.4474246876834883e-02  8.6931098132168094e-02  1.3657598187008685e-01  6.8550431416461263e-02  1.8334683247632079e-02  7.0658223684300456e-02  9.9754813528804359e-02  9.4918536414621401e-03  1.1587084829545352e-01  9.8394462950312220e-02  1.0880347364098776e-02  4.3029773513771130e-02  2.6054540299922480e-02  4.9182053179158388e-03  1.1972236005557928e-02  5.0796897458567922e-04  1.3306807515153566e-03  4.0045421290005301e-04  3.9921088463080621e-03  2.3892482486907495e-03  1.3503434168581649e-03  9.2626868093851418e-04  8.9203780808078505e-04  5.4998487440382484e-04  1.7860919585504476e-03  1.0300623017654338e-03  3.2272436478026933e-03  2.7017494902097532e-03  2.0252308081211263e-03  2.6252752491405826e-03  1.5945153091740894e-03  9.5340113524057318e-04  -1.3231098650598095e-19  -3.6484872165224987e-19  8.8728991061809096e-03  4.7866751880354793e-03  2.4423732910436501e-02  4.4652900878403984e-02  3.7314881788818276e-02  1.6920921787456855e-02  2.5653779919628805e-02  4.7102549635050072e-03  9.9356000178887210e-02  6.1636445502234329e-02  1.7203881857094806e-02  5.0111338999891453e-02  1.6181775772523960e-02  6.9591830494067849e-02  1.7678680180684603e-01  1.7227925798764201e-01  4.0332073943691746e-02  1.5213097405240844e-01  2.0155452969725807e-01  3.7221739293538517e-02  2.1626625066242236e-01  4.5684097752849998e-02  2.1063491730397423e-02  2.8279467879527318e-02  1.5909780215596553e-01  1.4786334822923386e-01  6.9608665695011951e-02  5.9926737827447566e-03  4.4270785902691130e-02  1.2115535231977172e-02  2.9281513232559550e-02  1.1467704636970487e-02  8.6158573088301257e-03  6.0913938489572876e-04  2.0394870782315779e-03  2.6390760635357389e-03  3.3735193725691506e-03  1.1061887790729172e-03  1.3595357500570519e-03  1.0973210955202465e-03  1.2882566994880878e-04  9.5114580746644367e-04  2.2537450540300510e-03  9.9536298715531069e-04  4.0122778714789080e-03  1.8931023776596583e-03  2.7892863462894131e-03  1.8265794034341639e-03  1.0757039420133529e-03  2.9856782102580855e-20  -2.8609806905802656e-19  1.3726243576484486e-02  1.3490462475734466e-02  1.0944467275534123e-02  4.9361419795206588e-03  4.4164358582110756e-02  5.0842937277106114e-02  5.3474195163014555e-02  7.2248291753790175e-02  7.9426699040559250e-03  4.5022470606861813e-02  1.8733907013795412e-01  8.3000761122453914e-02  1.1279561974664881e-01  7.4165612784686002e-02  3.6368298909053978e-02  2.1156564674917482e-02  1.2163279352688634e-02  3.6297431382277456e-03  3.5351926682523870e-02  6.9881029540899142e-02  1.4963943087130982e-01  6.2594796780982148e-02  6.4451619689536643e-03  9.7433047044642077e-02  1.3999469413368398e-01  9.6870384313419988e-03  1.1976279601392943e-01  1.0422737142466075e-01  1.8808053223903019e-02  4.0604822054712601e-02  1.9354467448857347e-02  7.8639252240348713e-03  1.5129886220868818e-02  5.3616621937618699e-03  2.6255082444623106e-03  8.2627704393846467e-04  3.3724686867969921e-03  1.8801133625687282e-03  5.6357500289916341e-04  1.0278347391266682e-04  1.6675843904107547e-03  5.1847172679820067e-04  2.4054015955702018e-03  1.7484125179121279e-03  2.8371159059534801e-03  3.1993817608177411e-03  2.0311749366678706e-03  2.5134783415833055e-03  1.3402199989866999e-03  -7.4397155046906911e-20  -7.7372651339873556e-35  1.6231016716428619e-02  1.6980588777018198e-02  1.2693994865168305e-02  5.4514845787635652e-03  7.0108669082261071e-02  3.2193443879543031e-02  4.1824100636596098e-02  2.9835046328429631e-02  1.1413596690779827e-02  8.9191446624888204e-02  5.5429987705045425e-02  3.9273742869943243e-02  1.1502284854450061e-01  9.4533420210173736e-03  1.2022778664621152e-01  2.0335082846317884e-01  2.3258379862154474e-01  5.5844277833070714e-02  1.8063977685567420e-01  2.6589612083628472e-01  1.5756232741051115e-02  3.0226536519830566e-01  8.3862097006539946e-02  1.8107654689786947e-02  3.4628496218176909e-02  2.2065904255897142e-01  1.5151623890750124e-01  1.0376324323287177e-01  2.0227707881118794e-02  7.8521330196283060e-02  1.8869283488357962e-02  2.1280137021995597e-02  9.8824803266815524e-03  1.4738469180855779e-02  4.0042503914712946e-03  3.8873227226204187e-03  7.0447256809064184e-04  2.5745729442378643e-03  1.0730049070639214e-04  7.4224610230737780e-05  1.9606496521729290e-03  1.5652550612629762e-03  1.7808597824453614e-03  3.3174763221480042e-03  8.0082305370686647e-05  3.3504297773358535e-03  1.9061985378105624e-03  2.1053375119005407e-03  1.4586982137187693e-03  -2.0243504285627076e-19  -2.2641871908811300e-19  9.8269354062956345e-03  6.1243152827156269e-03  2.3508292161398690e-02  1.9928637715551194e-02  1.5448857647810016e-02  1.3683180598010875e-02  1.1150125887327531e-01  8.3094510856686302e-02  1.0888306909162883e-01  3.4641385202135305e-03  6.3100443555972746e-02  2.1608446302064530e-01  1.4738668730382551e-01  7.0954102573383498e-02  8.0348909877640096e-02  5.4642852866523664e-02  4.5665197099783852e-02  4.9505380089371201e-03  5.9691784454217495e-02  6.0249155860021171e-02  3.9730450340776151e-02  1.7015530804835749e-01  7.9149352365489964e-02  1.1918180630478438e-01  1.9673519382104465e-01  2.1540294949972671e-01  2.1517411094612360e-02  7.8749606373955408e-02  1.4898725421441991e-01  6.9670329383665144e-02  5.4396480261118138e-02  4.9552018309686951e-03  2.0100032418906505e-03  2.0074881026898150e-02  1.4382875943007370e-02  5.9117502774951878e-03  3.2274501408301030e-03  1.0408508232375873e-03  4.7390471345451452e-04  9.0429923585934031e-04  1.9037156635614287e-03  2.5746577152974664e-03  2.3827158620628153e-03  3.1784485957344465e-03  2.8005324074411456e-03  1.8044344381453080e-03  2.6536046917127929e-03  1.4435896255005918e-03  1.1275374676364051e-03  -2.0052643244510112e-19  -1.3540213984477873e-34  1.1561898695213745e-02  8.1712368649845216e-03  8.9874684839170516e-04  4.7675739669209068e-03  5.9966752077149875e-03  7.3742769009146447e-02  2.8054330192859078e-02  3.0813873146689666e-02  4.6227428469288553e-02  1.0873981204699190e-01  1.1616200463294957e-01  6.7575932077297382e-02  5.2070775171958045e-02  1.7503202565151332e-01  1.0059511348711292e-01  4.6648717501399685e-02  3.5684592698921491e-01  2.4574938283553041e-01  9.4481954686744044e-02  1.7669539206926468e-01  3.9974139448861623e-01  1.4231566976322151e-03  3.9556799239108775e-01  1.1391817275426894e-01  4.8070036232188786e-02  1.3972480777368892e-01  4.3309738326815406e-01  3.5758547741192588e-02  2.3322098863175650e-01  1.1131261236157423e-02  1.6994707747966678e-01  5.7996690341844258e-02  1.0141910956563326e-02  1.7890409969695986e-02  2.3878784936188512e-02  1.2897252292706416e-02  7.5573258177486884e-03  2.3021721965393173e-03  3.0717444878133979e-04  1.8511331014000165e-03  2.0363514853714935e-03  3.9545333179059408e-03  3.2704016035473532e-03  3.6895862301960947e-03  4.4734067897071964e-03  9.6981399256815097e-04  2.3006537307381607e-03  1.7515967748670319e-03  1.1822976431158101e-03  -6.5630703267361199e-20  -1.8269308860550273e-19  1.7977484903128185e-02  1.5620588564326245e-02  4.3943299082194655e-03  2.5181709512972633e-02  4.7612597148630545e-03  9.3224330817692300e-03  2.4920402618604284e-02  1.2163998812200985e-01  5.1540966864161826e-02  1.6564308962632884e-01  7.3730513488888552e-02  2.2202403696795445e-01  3.7494768654186517e-01  1.2244253946219402e-01  1.1454251228768014e-01  4.5921083953241106e-02  1.9558144458203574e-03  9.5625052567255286e-02  3.0311143005636021e-01  2.1452058532279736e-01  1.6888213211065572e-01  5.6313181859040440e-02  8.1007236806090399e-01  6.1255316028378345e-02  5.2336503023510721e-02  5.0658254881696008e-02  6.5173887917236084e-01  1.0790959072863777e-01  1.9027085162297414e-01  3.7680287074628666e-01  2.1546243338066942e-01  1.1157110134161556e-01  1.7741164165495468e-02  2.7569397122560770e-02  2.7057975132279768e-02  2.4842114088035265e-02  1.2381378917844924e-02  6.4954828286581069e-03  2.0209383860773688e-03  1.4473453320095898e-03  2.8852109589294758e-03  4.3868615676126450e-03  4.3851655490177470e-03  5.0881234650454925e-03  5.0916084044909850e-03  4.5419326839089297e-03  1.8757130151528663e-04  1.4413493899750201e-03  1.1747007664601314e-03  -6.5208991898442677e-20  2.0116889348367122e-33  3.2911061030676328e-03  1.0360844104396945e-02  2.1867050871556892e-02  2.7470027321104054e-02  8.3424838663683394e-03  5.7006923824773847e-04  6.0875359629992319e-02  3.9354091498823374e-03  6.1809544809006939e-02  5.0831184591286271e-02  8.0356217944164712e-02  2.0452655966452420e-03  3.6581646360320193e-02  4.1937600056150375e-02  4.5059101703867355e-01  2.4393902368900562e-03  1.5854291226648609e-01  3.7511465061787141e-01  3.1294057101217471e-01  8.7495400090937059e-01  8.4892793627163854e-01  2.4091672484881063e-01  1.7263578654944439e-01  4.9342806982680576e-01  2.6599767649832629e-02  1.2410938963848639e-01  1.0692049342526475e-01  4.2495976759975584e-01  1.1973586578699626e-01  2.7864279939961029e-01  1.4665558392823902e-01  2.3946188830255399e-01  1.3604994050492272e-01  6.9397221460154299e-02  4.7728408862153460e-02  3.7764002582700303e-02  2.5045567353141160e-02  1.1950292199907682e-02  4.8231348635486950e-03  1.9579376655038420e-03  3.2776339064037388e-03  3.7400539450570020e-03  5.9516914928249339e-03  4.8306276049778739e-03  6.4631888650066097e-03  6.3357895647258473e-03  3.1030519058028263e-03  1.0376869337825469e-04  1.8620176186336530e-04  1.9925626849245391e-18  6.1898121071898845e-34  1.4839255461564822e-02  1.6838544621626697e-03  5.7841328573622203e-03  4.5154313420571182e-03  2.2687512743278125e-03  5.1137745700347410e-02  3.0418950199877844e-02  2.4906412363910412e-02  1.3767907453133968e-01  1.9377495067842586e-03  2.4522178013998455e-01  1.1640423744566848e-01  2.3402413548483988e-01  2.3226001197540827e-01  4.2952514745835463e-01  8.6184592226962627e-03  2.3536235457299676e-02  5.4194886199002446e-01  5.2640917901932358e-02  1.8688724087664330e-01  1.4061730565917169e-01  2.0947731502235378e-01  1.9697716315649083e-01  1.2452990449249379e-01  1.7120015283597861e-01  4.7773130199826479e-02  5.8099646006693408e-02  4.9190875314798273e-02  8.4087439295623831e-02  1.7403092066909893e-02  3.0074122434915529e-01  3.1585964498065700e-01  3.3754140795248438e-01  1.1776061151214914e-01  9.1501676378823837e-02  5.0117395060226694e-02  3.8820271003442659e-02  2.2819589567253492e-02  9.6445281044242638e-03  4.2445046194030224e-03  2.7782451513336938e-03  3.8273595902788260e-03  5.7956330006810955e-03  5.3708722492855328e-03  6.4814765033527812e-03  6.7829153227132863e-03  5.7832629858576056e-03  1.6362301337228883e-03  7.4309798565251150e-04  7.7372651339873556e-35  -9.9726717815803704e-19  8.9183519129137738e-03  9.3970408255778896e-03  9.7726114319159046e-03  7.5392120333590967e-03  1.3454616144926628e-03  1.8844812580917452e-02  6.8848677854569575e-03  1.3338441947983684e-02  6.4073246670376893e-02  9.71048