<?xml version="1.0"?>
<VTKFile type="UnstructuredGrid"  version="0.1"  >
<UnstructuredGrid>
<Piece  NumberOfPoints="10201" NumberOfCells="20000">
<Points>
<DataArray  type="Float64"  NumberOfComponents="3"  format="ascii">0 0 0  0.01 0 0  0.02 0 0  0.03 0 0  0.04 0 0  0.05 0 0  0.06 0 0  0.07000000000000001 0 0  0.08 0 0  0.09 0 0  0.1 0 0  0.11 0 0  0.12 0 0  0.13 0 0  0.14 0 0  0.15 0 0  0.16 0 0  0.17 0 0  0.18 0 0  0.19 0 0  0.2 0 0  0.21 0 0  0.22 0 0  0.23 0 0  0.24 0 0  0.25 0 0  0.26 0 0  0.27 0 0  0.28 0 0  0.29 0 0  0.3 0 0  0.31 0 0  0.32 0 0  0.33 0 0  0.34 0 0  0.35 0 0  0.36 0 0  0.37 0 0  0.38 0 0  0.39 0 0  0.4 0 0  0.41 0 0  0.42 0 0  0.43 0 0  0.44 0 0  0.45 0 0  0.46 0 0  0.47 0 0  0.48 0 0  0.49 0 0  0.5 0 0  0.51 0 0  0.52 0 0  0.53 0 0  0.54 0 0  0.55 0 0  0.5600000000000001 0 0  0.57 0 0  0.58 0 0  0.59 0 0  0.6 0 0  0.61 0 0  0.62 0 0  0.63 0 0  0.64 0 0  0.65 0 0  0.66 0 0  0.67 0 0  0.68 0 0  0.6899999999999999 0 0  0.7 0 0  0.71 0 0  0.72 0 0  0.73 0 0  0.74 0 0  0.75 0 0  0.76 0 0  0.77 0 0  0.78 0 0  0.79 0 0  0.8 0 0  0.8100000000000001 0 0  0.82 0 0  0.83 0 0  0.84 0 0  0.85 0 0  0.86 0 0  0.87 0 0  0.88 0 0  0.89 0 0  0.9 0 0  0.91 0 0  0.92 0 0  0.93 0 0  0.9399999999999999 0 0  0.95 0 0  0.96 0 0  0.97 0 0  0.98 0 0  0.99 0 0  1 0 0  0 0.01 0  0.01 0.01 0  0.02 0.01 0  0.03 0.01 0  0.04 0.01 0  0.05 0.01 0  0.06 0.01 0  0.07000000000000001 0.01 0  0.08 0.01 0  0.09 0.01 0  0.1 0.01 0  0.11 0.01 0  0.12 0.01 0  0.13 0.01 0  0.14 0.01 0  0.15 0.01 0  0.16 0.01 0  0.17 0.01 0  0.18 0.01 0  0.19 0.01 0  0.2 0.01 0  0.21 0.01 0  0.22 0.01 0  0.23 0.01 0  0.24 0.01 0  0.25 0.01 0  0.26 0.01 0  0.27 0.01 0  0.28 0.01 0  0.29 0.01 0  0.3 0.01 0  0.31 0.01 0  0.32 0.01 0  0.33 0.01 0  0.34 0.01 0  0.35 0.01 0  0.36 0.01 0  0.37 0.01 0  0.38 0.01 0  0.39 0.01 0  0.4 0.01 0  0.41 0.01 0  0.42 0.01 0  0.43 0.01 0  0.44 0.01 0  0.45 0.01 0  0.46 0.01 0  0.47 0.01 0  0.48 0.01 0  0.49 0.01 0  0.5 0.01 0  0.51 0.01 0  0.52 0.01 0  0.53 0.01 0  0.54 0.01 0  0.55 0.01 0  0.5600000000000001 0.01 0  0.57 0.01 0  0.58 0.01 0  0.59 0.01 0  0.6 0.01 0  0.61 0.01 0  0.62 0.01 0  0.63 0.01 0  0.64 0.01 0  0.65 0.01 0  0.66 0.01 0  0.67 0.01 0  0.68 0.01 0  0.6899999999999999 0.01 0  0.7 0.01 0  0.71 0.01 0  0.72 0.01 0  0.73 0.01 0  0.74 0.01 0  0.75 0.01 0  0.76 0.01 0  0.77 0.01 0  0.78 0.01 0  0.79 0.01 0  0.8 0.01 0  0.8100000000000001 0.01 0  0.82 0.01 0  0.83 0.01 0  0.84 0.01 0  0.85 0.01 0  0.86 0.01 0  0.87 0.01 0  0.88 0.01 0  0.89 0.01 0  0.9 0.01 0  0.91 0.01 0  0.92 0.01 0  0.93 0.01 0  0.9399999999999999 0.01 0  0.95 0.01 0  0.96 0.01 0  0.97 0.01 0  0.98 0.01 0  0.99 0.01 0  1 0.01 0  0 0.02 0  0.01 0.02 0  0.02 0.02 0  0.03 0.02 0  0.04 0.02 0  0.05 0.02 0  0.06 0.02 0  0.07000000000000001 0.02 0  0.08 0.02 0  0.09 0.02 0  0.1 0.02 0  0.11 0.02 0  0.12 0.02 0  0.13 0.02 0  0.14 0.02 0  0.15 0.02 0  0.16 0.02 0  0.17 0.02 0  0.18 0.02 0  0.19 0.02 0  0.2 0.02 0  0.21 0.02 0  0.22 0.02 0  0.23 0.02 0  0.24 0.02 0  0.25 0.02 0  0.26 0.02 0  0.27 0.02 0  0.28 0.02 0  0.29 0.02 0  0.3 0.02 0  0.31 0.02 0  0.32 0.02 0  0.33 0.02 0  0.34 0.02 0  0.35 0.02 0  0.36 0.02 0  0.37 0.02 0  0.38 0.02 0  0.39 0.02 0  0.4 0.02 0  0.41 0.02 0  0.42 0.02 0  0.43 0.02 0  0.44 0.02 0  0.45 0.02 0  0.46 0.02 0  0.47 0.02 0  0.48 0.02 0  0.49 0.02 0  0.5 0.02 0  0.51 0.02 0  0.52 0.02 0  0.53 0.02 0  0.54 0.02 0  0.55 0.02 0  0.5600000000000001 0.02 0  0.57 0.02 0  0.58 0.02 0  0.59 0.02 0  0.6 0.02 0  0.61 0.02 0  0.62 0.02 0  0.63 0.02 0  0.64 0.02 0  0.65 0.02 0  0.66 0.02 0  0.67 0.02 0  0.68 0.02 0  0.6899999999999999 0.02 0  0.7 0.02 0  0.71 0.02 0  0.72 0.02 0  0.73 0.02 0  0.74 0.02 0  0.75 0.02 0  0.76 0.02 0  0.77 0.02 0  0.78 0.02 0  0.79 0.02 0  0.8 0.02 0  0.8100000000000001 0.02 0  0.82 0.02 0  0.83 0.02 0  0.84 0.02 0  0.85 0.02 0  0.86 0.02 0  0.87 0.02 0  0.88 0.02 0  0.89 0.02 0  0.9 0.02 0  0.91 0.02 0  0.92 0.02 0  0.93 0.02 0  0.9399999999999999 0.02 0  0.95 0.02 0  0.96 0.02 0  0.97 0.02 0  0.98 0.02 0  0.99 0.02 0  1 0.02 0  0 0.03 0  0.01 0.03 0  0.02 0.03 0  0.03 0.03 0  0.04 0.03 0  0.05 0.03 0  0.06 0.03 0  0.07000000000000001 0.03 0  0.08 0.03 0  0.09 0.03 0  0.1 0.03 0  0.11 0.03 0  0.12 0.03 0  0.13 0.03 0  0.14 0.03 0  0.15 0.03 0  0.16 0.03 0  0.17 0.03 0  0.18 0.03 0  0.19 0.03 0  0.2 0.03 0  0.21 0.03 0  0.22 0.03 0  0.23 0.03 0  0.24 0.03 0  0.25 0.03 0  0.26 0.03 0  0.27 0.03 0  0.28 0.03 0  0.29 0.03 0  0.3 0.03 0  0.31 0.03 0  0.32 0.03 0  0.33 0.03 0  0.34 0.03 0  0.35 0.03 0  0.36 0.03 0  0.37 0.03 0  0.38 0.03 0  0.39 0.03 0  0.4 0.03 0  0.41 0.03 0  0.42 0.03 0  0.43 0.03 0  0.44 0.03 0  0.45 0.03 0  0.46 0.03 0  0.47 0.03 0  0.48 0.03 0  0.49 0.03 0  0.5 0.03 0  0.51 0.03 0  0.52 0.03 0  0.53 0.03 0  0.54 0.03 0  0.55 0.03 0  0.5600000000000001 0.03 0  0.57 0.03 0  0.58 0.03 0  0.59 0.03 0  0.6 0.03 0  0.61 0.03 0  0.62 0.03 0  0.63 0.03 0  0.64 0.03 0  0.65 0.03 0  0.66 0.03 0  0.67 0.03 0  0.68 0.03 0  0.6899999999999999 0.03 0  0.7 0.03 0  0.71 0.03 0  0.72 0.03 0  0.73 0.03 0  0.74 0.03 0  0.75 0.03 0  0.76 0.03 0  0.77 0.03 0  0.78 0.03 0  0.79 0.03 0  0.8 0.03 0  0.8100000000000001 0.03 0  0.82 0.03 0  0.83 0.03 0  0.84 0.03 0  0.85 0.03 0  0.86 0.03 0  0.87 0.03 0  0.88 0.03 0  0.89 0.03 0  0.9 0.03 0  0.91 0.03 0  0.92 0.03 0  0.93 0.03 0  0.9399999999999999 0.03 0  0.95 0.03 0  0.96 0.03 0  0.97 0.03 0  0.98 0.03 0  0.99 0.03 0  1 0.03 0  0 0.04 0  0.01 0.04 0  0.02 0.04 0  0.03 0.04 0  0.04 0.04 0  0.05 0.04 0  0.06 0.04 0  0.07000000000000001 0.04 0  0.08 0.04 0  0.09 0.04 0  0.1 0.04 0  0.11 0.04 0  0.12 0.04 0  0.13 0.04 0  0.14 0.04 0  0.15 0.04 0  0.16 0.04 0  0.17 0.04 0  0.18 0.04 0  0.19 0.04 0  0.2 0.04 0  0.21 0.04 0  0.22 0.04 0  0.23 0.04 0  0.24 0.04 0  0.25 0.04 0  0.26 0.04 0  0.27 0.04 0  0.28 0.04 0  0.29 0.04 0  0.3 0.04 0  0.31 0.04 0  0.32 0.04 0  0.33 0.04 0  0.34 0.04 0  0.35 0.04 0  0.36 0.04 0  0.37 0.04 0  0.38 0.04 0  0.39 0.04 0  0.4 0.04 0  0.41 0.04 0  0.42 0.04 0  0.43 0.04 0  0.44 0.04 0  0.45 0.04 0  0.46 0.04 0  0.47 0.04 0  0.48 0.04 0  0.49 0.04 0  0.5 0.04 0  0.51 0.04 0  0.52 0.04 0  0.53 0.04 0  0.54 0.04 0  0.55 0.04 0  0.5600000000000001 0.04 0  0.57 0.04 0  0.58 0.04 0  0.59 0.04 0  0.6 0.04 0  0.61 0.04 0  0.62 0.04 0  0.63 0.04 0  0.64 0.04 0  0.65 0.04 0  0.66 0.04 0  0.67 0.04 0  0.68 0.04 0  0.6899999999999999 0.04 0  0.7 0.04 0  0.71 0.04 0  0.72 0.04 0  0.73 0.04 0  0.74 0.04 0  0.75 0.04 0  0.76 0.04 0  0.77 0.04 0  0.78 0.04 0  0.79 0.04 0  0.8 0.04 0  0.8100000000000001 0.04 0  0.82 0.04 0  0.83 0.04 0  0.84 0.04 0  0.85 0.04 0  0.86 0.04 0  0.87 0.04 0  0.88 0.04 0  0.89 0.04 0  0.9 0.04 0  0.91 0.04 0  0.92 0.04 0  0.93 0.04 0  0.9399999999999999 0.04 0  0.95 0.04 0  0.96 0.04 0  0.97 0.04 0  0.98 0.04 0  0.99 0.04 0  1 0.04 0  0 0.05 0  0.01 0.05 0  0.02 0.05 0  0.03 0.05 0  0.04 0.05 0  0.05 0.05 0  0.06 0.05 0  0.07000000000000001 0.05 0  0.08 0.05 0  0.09 0.05 0  0.1 0.05 0  0.11 0.05 0  0.12 0.05 0  0.13 0.05 0  0.14 0.05 0  0.15 0.05 0  0.16 0.05 0  0.17 0.05 0  0.18 0.05 0  0.19 0.05 0  0.2 0.05 0  0.21 0.05 0  0.22 0.05 0  0.23 0.05 0  0.24 0.05 0  0.25 0.05 0  0.26 0.05 0  0.27 0.05 0  0.28 0.05 0  0.29 0.05 0  0.3 0.05 0  0.31 0.05 0  0.32 0.05 0  0.33 0.05 0  0.34 0.05 0  0.35 0.05 0  0.36 0.05 0  0.37 0.05 0  0.38 0.05 0  0.39 0.05 0  0.4 0.05 0  0.41 0.05 0  0.42 0.05 0  0.43 0.05 0  0.44 0.05 0  0.45 0.05 0  0.46 0.05 0  0.47 0.05 0  0.48 0.05 0  0.49 0.05 0  0.5 0.05 0  0.51 0.05 0  0.52 0.05 0  0.53 0.05 0  0.54 0.05 0  0.55 0.05 0  0.5600000000000001 0.05 0  0.57 0.05 0  0.58 0.05 0  0.59 0.05 0  0.6 0.05 0  0.61 0.05 0  0.62 0.05 0  0.63 0.05 0  0.64 0.05 0  0.65 0.05 0  0.66 0.05 0  0.67 0.05 0  0.68 0.05 0  0.6899999999999999 0.05 0  0.7 0.05 0  0.71 0.05 0  0.72 0.05 0  0.73 0.05 0  0.74 0.05 0  0.75 0.05 0  0.76 0.05 0  0.77 0.05 0  0.78 0.05 0  0.79 0.05 0  0.8 0.05 0  0.8100000000000001 0.05 0  0.82 0.05 0  0.83 0.05 0  0.84 0.05 0  0.85 0.05 0  0.86 0.05 0  0.87 0.05 0  0.88 0.05 0  0.89 0.05 0  0.9 0.05 0  0.91 0.05 0  0.92 0.05 0  0.93 0.05 0  0.9399999999999999 0.05 0  0.95 0.05 0  0.96 0.05 0  0.97 0.05 0  0.98 0.05 0  0.99 0.05 0  1 0.05 0  0 0.06 0  0.01 0.06 0  0.02 0.06 0  0.03 0.06 0  0.04 0.06 0  0.05 0.06 0  0.06 0.06 0  0.07000000000000001 0.06 0  0.08 0.06 0  0.09 0.06 0  0.1 0.06 0  0.11 0.06 0  0.12 0.06 0  0.13 0.06 0  0.14 0.06 0  0.15 0.06 0  0.16 0.06 0  0.17 0.06 0  0.18 0.06 0  0.19 0.06 0  0.2 0.06 0  0.21 0.06 0  0.22 0.06 0  0.23 0.06 0  0.24 0.06 0  0.25 0.06 0  0.26 0.06 0  0.27 0.06 0  0.28 0.06 0  0.29 0.06 0  0.3 0.06 0  0.31 0.06 0  0.32 0.06 0  0.33 0.06 0  0.34 0.06 0  0.35 0.06 0  0.36 0.06 0  0.37 0.06 0  0.38 0.06 0  0.39 0.06 0  0.4 0.06 0  0.41 0.06 0  0.42 0.06 0  0.43 0.06 0  0.44 0.06 0  0.45 0.06 0  0.46 0.06 0  0.47 0.06 0  0.48 0.06 0  0.49 0.06 0  0.5 0.06 0  0.51 0.06 0  0.52 0.06 0  0.53 0.06 0  0.54 0.06 0  0.55 0.06 0  0.5600000000000001 0.06 0  0.57 0.06 0  0.58 0.06 0  0.59 0.06 0  0.6 0.06 0  0.61 0.06 0  0.62 0.06 0  0.63 0.06 0  0.64 0.06 0  0.65 0.06 0  0.66 0.06 0  0.67 0.06 0  0.68 0.06 0  0.6899999999999999 0.06 0  0.7 0.06 0  0.71 0.06 0  0.72 0.06 0  0.73 0.06 0  0.74 0.06 0  0.75 0.06 0  0.76 0.06 0  0.77 0.06 0  0.78 0.06 0  0.79 0.06 0  0.8 0.06 0  0.8100000000000001 0.06 0  0.82 0.06 0  0.83 0.06 0  0.84 0.06 0  0.85 0.06 0  0.86 0.06 0  0.87 0.06 0  0.88 0.06 0  0.89 0.06 0  0.9 0.06 0  0.91 0.06 0  0.92 0.06 0  0.93 0.06 0  0.9399999999999999 0.06 0  0.95 0.06 0  0.96 0.06 0  0.97 0.06 0  0.98 0.06 0  0.99 0.06 0  1 0.06 0  0 0.07000000000000001 0  0.01 0.07000000000000001 0  0.02 0.07000000000000001 0  0.03 0.07000000000000001 0  0.04 0.07000000000000001 0  0.05 0.07000000000000001 0  0.06 0.07000000000000001 0  0.07000000000000001 0.07000000000000001 0  0.08 0.07000000000000001 0  0.09 0.07000000000000001 0  0.1 0.07000000000000001 0  0.11 0.07000000000000001 0  0.12 0.07000000000000001 0  0.13 0.07000000000000001 0  0.14 0.07000000000000001 0  0.15 0.07000000000000001 0  0.16 0.07000000000000001 0  0.17 0.0700
[...]
<PointData  Scalars="Indicator Function"> 
<DataArray  type="Float64"  Name="Indicator Function"  format="ascii">-3.1562778886342221e-19  1.1890647204026052e-18  2.3234643674720529e-17  8.0185623113428102e-19  6.0920894120738321e-17  -1.6387851296716970e-19  -6.2145828452883634e-20  2.5029486175455612e-17  1.0774090169733761e-16  -1.5311381926404409e-19  3.8356224504198485e-17  3.2101936904672205e-17  -3.3112016056674158e-20  -4.2768925424191183e-19  2.2493388279133745e-16  2.6481536735324493e-34  -3.1235630217571571e-19  2.5891880571918998e-16  -5.3913614110258690e-19  -7.0262658468552847e-19  5.8537468317816028e-16  -1.3168060787416557e-18  -7.0163199177028754e-19  3.4379967596744456e-17  -2.3137358729586807e-19  -5.7665568303032379e-19  -5.5945608882154931e-19  -6.5302716571951192e-19  9.0083336092265711e-16  -8.9729025454034169e-19  -2.0034133128738748e-18  -1.0017066564369376e-18  -1.0012840572056896e-18  -1.2289705814928393e-18  5.5201352945869353e-17  -5.3898076275943951e-19  -2.5020692363409157e-18  -4.2443798583670865e-18  -4.7420059582663816e-18  -3.8988384311059739e-18  5.1598458537100712e-16  -7.1891017257605189e-20  -1.0139517644168708e-18  -8.9035757148423450e-19  -1.0955996749891023e-18  -5.4779983749452649e-19  1.4197541007423145e-16  -6.1189683173272258e-19  -1.7242055256572615e-19  -4.2867823391534469e-19  -2.1433911695767237e-19  -2.3573382487339893e-19  -4.8684326638058630e-20  -4.3258964411243022e-19  -2.1648120067515516e-19  -1.2037062152420224e-35  4.1908235589866252e-31  -3.1846794256603073e-20  -6.2577220111355349e-22  -7.8526246556901642e-21  -9.0697067458243709e-22  -1.2146348622462882e-21  -2.4824095028783204e-20  -2.3027905559897239e-20  -1.7873611260886956e-20  -1.3222323615407724e-20  -1.7437223395291859e-20  -1.6439813732737663e-21  1.1364645074767371e-17  -3.2120540330597643e-20  -9.4763550367174523e-21  -3.3027246302831284e-21  -1.1048120259286139e-21  -6.7362592651029887e-20  -1.1065140003465848e-19  -6.1486296540327535e-20  -2.2152767684868329e-20  -4.5905671530220449e-20  -5.2393625546937268e-20  -4.4020670238177743e-20  -1.9747860144256994e-20  6.6870570170347994e-18  -2.7063960915176936e-20  -4.9132637031247297e-20  -4.7032210923078176e-20  -3.7388408175093818e-20  -2.0805170007916407e-20  -9.7485588811915577e-21  -1.2183183564374385e-20  -5.6959314172519584e-21  -9.4039548065783001e-38  -1.3357807517684443e-22  -6.3122968002053068e-22  1.0027415212151066e-18  -4.3692048911848635e-22  -1.3195558671018158e-22  -3.7085244521557840e-23  -2.3395268948027907e-22  -6.0524258611322496e-22  -2.2269955621760990e-22  -9.4039548065783001e-38  1.9259299443872359e-34  1.2178917939401932e-02  2.1770724331902115e-02  4.6626491654557893e-03  6.4014249306231074e-03  1.4262668016553116e-03  2.2390394389042484e-03  1.0491773377641893e-03  1.8662885663277399e-02  1.6845231689481693e-02  2.7582533575312646e-03  2.3561240161375226e-02  1.1929861053945970e-03  1.5409129328273544e-02  1.2406493151017182e-02  2.7897066255700605e-02  1.1253821808683338e-02  1.0837706154226594e-03  1.9424426593372606e-02  2.5314790599762434e-02  1.8036368662492665e-02  3.0317007697777950e-02  2.3721469462160499e-02  1.2639478306751667e-02  8.3361120122323693e-03  2.0776210553731543e-02  2.0156529865175077e-02  1.2142724744488723e-02  5.6925292285443371e-03  1.1699796381799890e-02  1.0314246033064287e-02  3.6090285797311487e-02  2.5031210093479268e-02  5.5219249809546119e-03  1.9378203320964481e-02  9.6451288111075277e-03  1.3554307751438696e-02  3.8296118446041166e-02  5.7311890971222815e-02  5.6768439580937184e-02  4.1851009431557985e-02  2.2922977400323868e-02  1.2950734341305467e-03  1.7618194436532630e-02  7.2301588903852763e-03  1.9736569152112627e-02  2.6143764657178058e-02  8.9801618545411258e-03  1.1022953373522706e-02  3.1060525451440777e-03  7.7223805380919538e-03  4.9851306819725816e-03  1.7540377224475531e-03  3.0501139388386654e-03  6.2677852706969715e-03  7.6588598342489816e-04  1.0357607986825001e-03  1.1474016859758594e-03  2.2545819614030432e-05  2.8292061978597280e-04  3.2677062336683428e-05  4.3761832904028811e-05  1.7259601903273875e-04  3.6089313096938192e-04  2.3438730211001378e-04  2.1358100265083440e-04  2.6389133207307746e-04  1.8217542510511129e-04  1.0370562814664803e-04  4.7442108351548868e-04  3.4142167209752977e-04  1.1899319531400370e-04  3.9805048226292394e-05  3.7417061762102459e-04  1.1732361937545743e-03  1.4067003189791592e-03  4.0428848926006425e-04  3.9906878516319253e-04  6.2742866820917655e-04  6.3012531585451544e-04  4.7794323839776929e-04  2.0179676921223584e-04  2.6518005001542383e-04  5.2961050259253391e-04  6.2028965200635353e-04  5.3711216434716485e-04  4.0497360232773162e-04  2.6053623627908821e-04  2.1509466561822006e-04  1.4401615158526906e-04  5.5966879413877981e-05  1.3078752897919396e-05  2.4063286783652196e-06  1.0168058667720248e-05  1.1091740329906817e-05  8.0460427449003695e-06  4.7974734774276471e-06  6.1705874350448143e-07  5.7589680679509645e-06  8.0235971071776138e-06  2.2269955621760957e-22  -7.9690551797506999e-19  1.9256404853544246e-03  5.4486540999319931e-03  1.6697448774638634e-03  7.0546976053838077e-03  2.2134809007272625e-02  5.1458368050946645e-03  1.6550792484311509e-02  3.5739806613881704e-03  1.1728381499690625e-02  3.0550339153771783e-02  2.1675787035573376e-02  1.0016399772190463e-02  3.7874507038974652e-02  4.0773133723536956e-02  2.3641422762514915e-02  1.1261531724390185e-02  4.5276501254526806e-02  1.6632538458257521e-02  9.2965490560486322e-03  7.0147585091374217e-03  2.3789543759285717e-02  2.9364618781739883e-02  3.1937591382682470e-02  1.6545876488981984e-02  5.0466250460494313e-04  1.7469504310361053e-02  2.5576473625275549e-02  4.1718008307396540e-02  2.0257993639877060e-02  3.6261521013374924e-02  4.5080500303605074e-02  1.1104582168543204e-02  3.1474417171732820e-02  2.2338688359084743e-02  2.1225144515283251e-02  1.3086468159934026e-02  4.2488422343842876e-02  6.7020462073683770e-02  7.1722309502674483e-02  8.4297965766280430e-02  4.2800913529355861e-02  8.7602079642252560e-03  2.7661838404074430e-03  2.3068675286511835e-02  1.8441731194640938e-02  8.4951000290982622e-03  6.8721276381755051e-03  1.4342928549865040e-02  9.3046804001339859e-03  1.4106502785074191e-02  3.2900346211507015e-03  3.4117654507689246e-03  1.5037737649509944e-03  1.1941846186463601e-02  2.6143962703839060e-03  1.1785437264713926e-04  1.8580677980526200e-03  1.0255916064635005e-03  1.4196795859974237e-04  3.9082195210682667e-04  2.1354289845362261e-04  7.9192155355124771e-05  5.8425419666285232e-04  3.7595844078645445e-04  2.9285599058998045e-04  3.1823229176009823e-04  4.0019186259474725e-04  8.7192352029424601e-05  3.9813017610230381e-04  7.9903731550265585e-04  7.3833597997867515e-05  1.5057969112662557e-04  5.4546554337880350e-05  1.2038703154413296e-03  2.0577799577707902e-03  1.2346197200303762e-03  4.3650369829838275e-04  8.1947130598673682e-04  7.7385116599376213e-04  7.4268626867877280e-04  4.0693550993408794e-04  2.4407647522319749e-04  6.3672580001021344e-04  8.7874742950606150e-04  7.8786213178579946e-04  6.0547115130269444e-04  4.1416613080919783e-04  2.9794068160071181e-04  2.6087691895065808e-04  1.2053191592519116e-04  2.5272975766561194e-05  4.0863259794450731e-06  1.6517749648555615e-05  2.4014936518434431e-05  2.0965885579819447e-05  1.6788109422941122e-05  1.1892138954108105e-05  2.5071468990538125e-06  9.1285855562545205e-06  6.4301135390119590e-22  3.8518598887744717e-34  1.6101805361145343e-02  6.3893960869682194e-03  3.1471771576747541e-02  1.6669375296844941e-02  2.7642940976270621e-04  3.2297482302143612e-04  4.3064058895298001e-04  1.9237174530432816e-03  3.4679222581637359e-02  5.6297486828490763e-02  3.5020210454385754e-02  3.6382664859691487e-02  2.5074890032180001e-02  1.3735772597664639e-02  2.6969864852882549e-02  7.3286027479714216e-02  8.2098099298969079e-03  4.6009174231497448e-03  3.1291632909935134e-02  5.6788894837926762e-02  5.3418505447346581e-02  7.9267957229946368e-02  8.1289709219419873e-02  5.4733778873142354e-02  2.5620131107517485e-02  4.1233733557762879e-02  4.6661954939923408e-02  2.3080463892028846e-02  2.3627864211226365e-02  3.0990709508341010e-02  2.9104506275284613e-02  8.8991263890375219e-02  6.7339533675135732e-02  1.1482976147214321e-03  3.2267185256942173e-02  1.1718008581290022e-02  3.6273225650727069e-02  7.1235398013156606e-02  9.2943098924208434e-02  7.6397023172653233e-02  6.1390777647154601e-02  3.2825781806098221e-02  1.8109125941340738e-02  2.5930827899337702e-02  4.6321947787817223e-03  5.1551047703829782e-02  6.9261416501649631e-02  3.4572163850750515e-02  3.1333134268596977e-02  1.7963475060677483e-02  2.2435185440066594e-02  1.5462516101487011e-02  2.0028893950574991e-04  6.6247841498052558e-03  1.3411443441540487e-02  3.5575507329994563e-03  9.8194989691637404e-04  2.6522455022832177e-03  1.0595870011621631e-04  5.0921341383026726e-04  4.1772961017849296e-05  1.1259988142033595e-06  2.7089987280009881e-04  7.2143306778541373e-04  2.6544093267522848e-04  3.1015544374188959e-04  4.5628189289710879e-04  3.0411345651701875e-04  7.2123918201666109e-05  9.0319620861840477e-04  5.5233979568505083e-04  5.5305499111632376e-04  1.3196045795084836e-04  6.1386644028901848e-04  2.1263742519803167e-03  2.2300244996282387e-03  5.2175702424840650e-06  1.1228559891778933e-03  8.6810282873237595e-04  7.1133846861171014e-04  6.0723315525754227e-04  1.9133938406369473e-04  4.7758304608269789e-04  1.0001214749796605e-03  9.9671161767870262e-04  7.2227899002627485e-04  5.2097326116368615e-04  3.3421764295014011e-04  3.2155950818769214e-04  2.2528052259672131e-04  6.0561448893358233e-05  1.8713176140370333e-07  1.3485534145277175e-05  2.6285744477407449e-05  3.0707585363154937e-05  2.6214805249136854e-05  2.2685409726279933e-05  1.7830437884915523e-05  6.6079771829213971e-06  -9.1704105183463084e-22  -3.3046350018900836e-19  7.0594038600672289e-03  8.0131708196995478e-03  1.3901259507789017e-02  7.5918555053208650e-05  2.5058364752970218e-03  2.2107875171349219e-02  2.5062137649215829e-02  2.5137560118224208e-02  1.3113409500951254e-02  4.2983096140250480e-03  1.9091111243265315e-02  3.1891039509176884e-02  4.2397706590044652e-02  3.9024771466625668e-02  8.2481885489909271e-02  2.2471769995227971e-04  3.5433412301859421e-03  5.9303303699734064e-02  3.8924041359731681e-02  3.1676311094044465e-02  3.4588893022922403e-02  4.1132286898606036e-03  1.4112927956033085e-02  1.8049373626996074e-02  1.3969089354584220e-02  5.7342975853056401e-03  4.5115466373395627e-02  5.9107527483800278e-02  6.8088819663242636e-02  3.1557123176663496e-02  5.2490288734092137e-02  6.3433725404818939e-02  3.6268813445624215e-02  7.7882297283277904e-02  1.6830033847414515e-02  2.2136678186819001e-02  2.2334681727584720e-02  5.8587697008398006e-02  8.5958342309502098e-02  9.1532323276370869e-02  9.8967041195260480e-02  3.4286273337395375e-02  2.0579918526909210e-02  2.5700963297702432e-03  3.3398452550602857e-02  3.2502289812992420e-02  8.3520482322152027e-03  3.6617720286018333e-02  8.3825891285037898e-04  7.4612265280689632e-03  1.2963744498417754e-02  6.7651154020630317e-04  1.0162334614007885e-02  6.9403020540760986e-04  1.8999340175628741e-02  3.7625235202126315e-03  4.1983550680937884e-03  2.3115699784275489e-03  1.8963038928090524e-03  4.3924931361625277e-04  7.1953992892896548e-04  3.3333149499866329e-04  1.9531087552067972e-04  7.9510661038748379e-04  4.9074003163551521e-04  2.4719205834526994e-04  3.4456558304725714e-04  5.5200825949254300e-04  1.1343802127900469e-05  4.3697700060903383e-04  1.1992784859834597e-03  2.3874961789433952e-04  4.4145442635730491e-04  1.7740310747630178e-04  1.5415184229129000e-03  2.7851127319282070e-03  1.4102394761120627e-03  1.2576485648781136e-03  1.3094465979288416e-03  7.3312801474822368e-04  6.7277876669229577e-04  3.2232647694909302e-04  1.4448485106065948e-04  8.5809389508804295e-04  1.1922971120543241e-03  9.2716723762847040e-04  6.0194024281385629e-04  3.9495646687536732e-04  2.9863007586483815e-04  3.1878001895564593e-04  1.4420620245193826e-04  1.3717094984635675e-05  9.8764138876509771e-06  1.7419985822542949e-05  2.9381615816000856e-05  2.8780079719056865e-05  2.5761351794278356e-05  2.2600156927539974e-05  1.4372797300724322e-05  2.3002428371767199e-21  -1.0226384509397530e-18  3.1417917836116686e-02  2.7695990752671769e-02  3.2582075264899822e-03  3.5718160122727639e-02  3.4531937722236263e-02  4.2068025996672923e-03  1.2679973034332138e-02  8.8491211883244564e-03  1.7794329228154382e-02  3.2980382679819689e-02  6.5960369942131114e-02  6.4633715221244240e-02  1.7685275829702259e-02  2.7260290558216937e-02  1.2699835650791101e-02  5.6286859820555207e-03  8.8850007433915579e-02  3.0831709047591412e-02  2.2360698239867343e-02  1.6981874429709058e-02  5.6554750021277175e-02  5.8490224248983112e-02  9.5592944586018996e-02  1.1111082578121127e-01  8.5220252102043176e-02  4.0831639228425726e-02  4.1390233131109178e-02  4.5234197888662724e-02  1.5594350984225139e-02  5.1292060993144921e-02  5.4705463047087920e-02  4.9174569414505494e-02  1.2915956159233843e-01  7.3198129557412450e-02  1.7719148802422154e-02  4.0504105576330114e-02  1.3991791728727465e-02  5.3094206820726970e-02  8.8820050881858445e-02  1.0410763205656796e-01  8.0218024446566338e-02  7.5513529287659892e-02  2.8124171766960984e-02  4.2186139806715282e-02  2.6388916977985028e-02  4.3810604029018456e-03  7.2891941582177849e-02  8.3202478877147767e-02  3.7638384137769820e-02  3.9105011249994492e-02  2.9684575193921224e-02  3.1738454972966720e-02  2.1096031981557534e-02  1.6454436148299056e-03  7.3381121791042366e-03  2.0202872505903045e-02  6.5079563897009968e-03  1.1757881201271522e-03  3.4229605632996713e-03  1.3796007892550967e-05  3.9840324052117229e-04  6.3435997548880296e-05  6.9097435099227066e-05  1.8474864446344993e-04  9.4843002115479514e-04  2.3354452285652877e-04  2.8005698081807448e-04  4.8220760400628451e-04  3.8845049247861261e-04  9.4095337393288912e-05  1.0858015001155730e-03  8.0877013397453047e-04  9.0636286767541662e-04  1.3454662233348182e-04  4.5736215058567967e-04  2.5580128287961607e-03  2.7602295753946858e-03  2.6474132019333347e-04  1.8520547041526016e-03  1.0933896525064494e-03  5.8888496807422020e-04  5.6634540623973467e-04  3.7273643254498041e-05  4.4595501267329730e-04  1.2194041679952949e-03  1.1810829799903245e-03  7.4754660884127717e-04  4.7448905874583478e-04  2.9474858371026470e-04  3.2543089098099892e-04  2.5889228127787853e-04  6.1555128735739086e-05  8.8134577455145597e-06  1.1646169133126104e-05  2.1130982626756763e-05  2.7505627287850351e-05  2.3422829036544740e-05  2.0925437420734840e-05  1.6065329071177110e-05  -8.9180491165003538e-22  -1.3162736931574395e-19  1.9925068035195968e-02  3.8786752353485738e-03  6.1772481638063528e-03  2.8868106993362723e-02  1.6772094693218928e-02  2.4278924814818250e-03  1.5653387830169750e-02  3.0252317649703868e-02  2.3370083280965365e-02  1.1110058068328052e-02  1.4387660944918489e-02  6.7080938655325840e-03  6.7318155500264709e-03  5.9570399533392507e-02  1.8731896892205790e-02  8.6514495386973367e-02  1.6140006117856803e-02  1.8239053155422336e-02  4.6005437759981054e-02  3.7399108243148703e-02  3.5295068570173262e-02  5.3852202654527719e-02  1.5750350269531116e-02  1.1106980120046683e-02  1.8107135236613697e-02  9.5703524319061869e-03  1.2143225697479439e-02  6.0063333468855513e-02  8.1298772131554176e-02  7.5848415809809416e-02  2.0661029477031384e-02  6.6851172094288092e-02  6.1190620247709250e-02  6.4793926601152019e-02  1.0965350843239263e-01  1.1460545450904113e-02  2.5049846423429716e-02  2.1312937531878184e-02  7.0934995271632301e-02  1.0267499195311980e-01  1.0633797954174269e-01  9.9323572625287057e-02  3.1565980633391236e-02  2.3135151503946020e-02  1.5281128404420257e-02  4.0294533535857255e-02  4.0311267108070342e-02  2.8493288170494405e-02  6.4398290350747442e-02  1.6203914422857537e-02  3.0736507067338627e-03  2.9605207728175451e-03  9.8557815852270709e-03  1.8486899590225810e-02  5.2720691883867106e-04  2.2126328764434187e-02  7.3459250865383031e-03  8.8299423785693689e-03  2.0121409450134984e-03  2.6395053436963785e-03  5.9147795280587519e-04  7.6127642986944632e-04  3.8467692874938981e-04  1.6578000529444631e-04  8.4032050490667341e-04  6.6472700595336589e-04  1.8240694869524216e-04  3.4105500100507357e-04  6.1982629548155900e-04  9.1928904939010294e-06  3.3469056242255927e-04  1.4830248750920209e-03  2.0465399934429678e-04  7.7993902196518065e-04  3.9022810176409791e-04  1.6051150398598351e-03  3.3023633497479567e-03  1.6712199396618427e-03  1.8434258663573560e-03  1.8239608337578806e-03  7.3342339975280841e-04  5.2168213730538124e-04  2.6768919634832664e-04  9.1480567578247139e-06  9.5802318459333802e-04  1.4095743532485799e-03  1.0208073721911523e-03  5.6465906516982929e-04  3.3702867246260487e-04  2.7482794135695127e-04  3.3703014890784470e-04  1.6228599045329826e-04  7.5704659852144471e-06  1.3468637390711836e-05  1.2809243341748889e-05  2.3528600597788729e-05  2.3144514406282989e-05  1.8533693148232808e-05  1.3527542511335283e-05  -7.5092945813400134e-22  -4.1985204087068774e-19  2.3711878856085842e-03  1.2617243199810687e-02  6.8237817986053452e-03  2.2406886372617524e-02  2.3298226143600630e-02  3.8690907191617746e-02  2.3535860395425198e-03  2.4726803911164691e-02  1.8443160687800948e-02  2.5939154340621606e-02  2.4478865175129889e-02  5.4798013048480303e-02  5.5316447801730805e-02  9.0446121295863838e-03  5.0323073575247162e-03  1.8133640883912217e-02  2.0704475338567650e-02  7.6693281385504325e-02  2.5432389524829586e-02  2.3071901344189634e-02  3.3243544112526685e-03  4.2559422078021880e-02  3.8527588068503607e-02  8.0423372249948527e-02  9.8124988596027723e-02  7.5225128189658513e-02  3.6850032488165319e-02  3.3204657391849322e-02  2.8907283779217384e-02  1.7313938732105864e-03  6.8953166041585995e-02  7.0057640217479053e-02  5.9404149130284585e-02  1.4860794633980839e-01  5.5910507793834122e-02  5.2766938705081722e-02  4.1261909543434547e-02  1.4048115594391055e-02  6.4216353382539240e-02  1.0266676217316489e-01  1.1306666709923266e-01  9.0562245097564928e-02  8.3588229844627979e-02  1.8089950004185267e-02  5.6224659834013348e-02  2.9817554687128045e-02  4.5497954771298900e-03  8.3365800436450477e-02  7.4313193151866672e-02  1.5450839880583239e-02  2.6996673443818512e-02  2.6071417014704956e-02  2.9372186582146131e-02  1.7672386742951633e-02  7.4476211805179753e-03  9.0449893560292770e-03  2.5104844741266737e-02  6.0926471294899158e-03  5.2425149919851921e-03  3.8411996715017678e-03  4.0350831732291004e-04  2.8145704306276737e-04  1.2584617634017940e-04  1.2788924972409794e-04  2.0032459275409563e-04  1.0888949265851684e-03  3.2921547130877282e-04  2.5753808086662950e-04  4.9877254855248791e-04  4.9288719095644728e-04  1.9638794572332120e-04  1.1270976526107698e-03  1.0897581399766296e-03  1.0618930461515550e-03  5.0538966589162784e-05  2.0848473422301791e-04  2.8227225068748712e-03  3.2530328052559321e-03  2.8162435284457350e-04  2.5485744838921313e-03  1.4194643198991205e-03  4.7013743935503827e-04  4.4002327554238822e-04  7.8293081133670411e-05  3.3682166722497081e-04  1.3981039884661520e-03  1.3667109829970225e-03  7.8861079093647726e-04  4.1424916217350260e-04  2.4256482546313214e-04  3.1615166638489581e-04  2.7784224680034686e-04  7.0006045930448335e-05  1.4146371993888024e-05  1.1523180015389451e-05  1.6186412404272740e-05  2.2401614342295153e-05  1.8118801978354353e-05  1.2575608057553831e-05  -1.7452162017697371e-21  -1.9079103365340970e-19  7.7636779887126960e-03  7.6933411753673919e-03  8.2303888030996458e-03  1.0925164188791357e-02  1.3925012296777983e-02  3.1960180043426288e-02  5.3971576271880624e-03  7.0690516697377017e-03  2.4083199575896896e-02  2.2115120661501335e-02  5.2264934491946646e-03  5.7185594143307587e-03  1.0076046809811659e-02  1.4534276879808017e-02  4.9188680915653892e-02  1.2533858980547295e-0