<?xml version="1.0"?>
<VTKFile type="UnstructuredGrid"  version="0.1"  >
<UnstructuredGrid>
<Piece  NumberOfPoints="676" NumberOfCells="1250">
<Points>
<DataArray  type="Float64"  NumberOfComponents="3"  format="ascii">0 0 0  0.04 0 0  0.08 0 0  0.12 0 0  0.16 0 0  0.2 0 0  0.24 0 0  0.28 0 0  0.32 0 0  0.36 0 0  0.4 0 0  0.44 0 0  0.48 0 0  0.52 0 0  0.5600000000000001 0 0  0.6 0 0  0.64 0 0  0.68 0 0  0.72 0 0  0.76 0 0  0.8 0 0  0.84 0 0  0.88 0 0  0.92 0 0  0.96 0 0  1 0 0  0 0.04 0  0.04 0.04 0  0.08 0.04 0  0.12 0.04 0  0.16 0.04 0  0.2 0.04 0  0.24 0.04 0  0.28 0.04 0  0.32 0.04 0  0.36 0.04 0  0.4 0.04 0  0.44 0.04 0  0.48 0.04 0  0.52 0.04 0  0.5600000000000001 0.04 0  0.6 0.04 0  0.64 0.04 0  0.68 0.04 0  0.72 0.04 0  0.76 0.04 0  0.8 0.04 0  0.84 0.04 0  0.88 0.04 0  0.92 0.04 0  0.96 0.04 0  1 0.04 0  0 0.08 0  0.04 0.08 0  0.08 0.08 0  0.12 0.08 0  0.16 0.08 0  0.2 0.08 0  0.24 0.08 0  0.28 0.08 0  0.32 0.08 0  0.36 0.08 0  0.4 0.08 0  0.44 0.08 0  0.48 0.08 0  0.52 0.08 0  0.5600000000000001 0.08 0  0.6 0.08 0  0.64 0.08 0  0.68 0.08 0  0.72 0.08 0  0.76 0.08 0  0.8 0.08 0  0.84 0.08 0  0.88 0.08 0  0.92 0.08 0  0.96 0.08 0  1 0.08 0  0 0.12 0  0.04 0.12 0  0.08 0.12 0  0.12 0.12 0  0.16 0.12 0  0.2 0.12 0  0.24 0.12 0  0.28 0.12 0  0.32 0.12 0  0.36 0.12 0  0.4 0.12 0  0.44 0.12 0  0.48 0.12 0  0.52 0.12 0  0.5600000000000001 0.12 0  0.6 0.12 0  0.64 0.12 0  0.68 0.12 0  0.72 0.12 0  0.76 0.12 0  0.8 0.12 0  0.84 0.12 0  0.88 0.12 0  0.92 0.12 0  0.96 0.12 0  1 0.12 0  0 0.16 0  0.04 0.16 0  0.08 0.16 0  0.12 0.16 0  0.16 0.16 0  0.2 0.16 0  0.24 0.16 0  0.28 0.16 0  0.32 0.16 0  0.36 0.16 0  0.4 0.16 0  0.44 0.16 0  0.48 0.16 0  0.52 0.16 0  0.5600000000000001 0.16 0  0.6 0.16 0  0.64 0.16 0  0.68 0.16 0  0.72 0.16 0  0.76 0.16 0  0.8 0.16 0  0.84 0.16 0  0.88 0.16 0  0.92 0.16 0  0.96 0.16 0  1 0.16 0  0 0.2 0  0.04 0.2 0  0.08 0.2 0  0.12 0.2 0  0.16 0.2 0  0.2 0.2 0  0.24 0.2 0  0.28 0.2 0  0.32 0.2 0  0.36 0.2 0  0.4 0.2 0  0.44 0.2 0  0.48 0.2 0  0.52 0.2 0  0.5600000000000001 0.2 0  0.6 0.2 0  0.64 0.2 0  0.68 0.2 0  0.72 0.2 0  0.76 0.2 0  0.8 0.2 0  0.84 0.2 0  0.88 0.2 0  0.92 0.2 0  0.96 0.2 0  1 0.2 0  0 0.24 0  0.04 0.24 0  0.08 0.24 0  0.12 0.24 0  0.16 0.24 0  0.2 0.24 0  0.24 0.24 0  0.28 0.24 0  0.32 0.24 0  0.36 0.24 0  0.4 0.24 0  0.44 0.24 0  0.48 0.24 0  0.52 0.24 0  0.5600000000000001 0.24 0  0.6 0.24 0  0.64 0.24 0  0.68 0.24 0  0.72 0.24 0  0.76 0.24 0  0.8 0.24 0  0.84 0.24 0  0.88 0.24 0  0.92 0.24 0  0.96 0.24 0  1 0.24 0  0 0.28 0  0.04 0.28 0  0.08 0.28 0  0.12 0.28 0  0.16 0.28 0  0.2 0.28 0  0.24 0.28 0  0.28 0.28 0  0.32 0.28 0  0.36 0.28 0  0.4 0.28 0  0.44 0.28 0  0.48 0.28 0  0.52 0.28 0  0.5600000000000001 0.28 0  0.6 0.28 0  0.64 0.28 0  0.68 0.28 0  0.72 0.28 0  0.76 0.28 0  0.8 0.28 0  0.84 0.28 0  0.88 0.28 0  0.92 0.28 0  0.96 0.28 0  1 0.28 0  0 0.32 0  0.04 0.32 0  0.08 0.32 0  0.12 0.32 0  0.16 0.32 0  0.2 0.32 0  0.24 0.32 0  0.28 0.32 0  0.32 0.32 0  0.36 0.32 0  0.4 0.32 0  0.44 0.32 0  0.48 0.32 0  0.52 0.32 0  0.5600000000000001 0.32 0  0.6 0.32 0  0.64 0.32 0  0.68 0.32 0  0.72 0.32 0  0.76 0.32 0  0.8 0.32 0  0.84 0.32 0  0.88 0.32 0  0.92 0.32 0  0.96 0.32 0  1 0.32 0  0 0.36 0  0.04 0.36 0  0.08 0.36 0  0.12 0.36 0  0.16 0.36 0  0.2 0.36 0  0.24 0.36 0  0.28 0.36 0  0.32 0.36 0  0.36 0.36 0  0.4 0.36 0  0.44 0.36 0  0.48 0.36 0  0.52 0.36 0  0.5600000000000001 0.36 0  0.6 0.36 0  0.64 0.36 0  0.68 0.36 0  0.72 0.36 0  0.76 0.36 0  0.8 0.36 0  0.84 0.36 0  0.88 0.36 0  0.92 0.36 0  0.96 0.36 0  1 0.36 0  0 0.4 0  0.04 0.4 0  0.08 0.4 0  0.12 0.4 0  0.16 0.4 0  0.2 0.4 0  0.24 0.4 0  0.28 0.4 0  0.32 0.4 0  0.36 0.4 0  0.4 0.4 0  0.44 0.4 0  0.48 0.4 0  0.52 0.4 0  0.5600000000000001 0.4 0  0.6 0.4 0  0.64 0.4 0  0.68 0.4 0  0.72 0.4 0  0.76 0.4 0  0.8 0.4 0  0.84 0.4 0  0.88 0.4 0  0.92 0.4 0  0.96 0.4 0  1 0.4 0  0 0.44 0  0.04 0.44 0  0.08 0.44 0  0.12 0.44 0  0.16 0.44 0  0.2 0.44 0  0.24 0.44 0  0.28 0.44 0  0.32 0.44 0  0.36 0.44 0  0.4 0.44 0  0.44 0.44 0  0.48 0.44 0  0.52 0.44 0  0.5600000000000001 0.44 0  0.6 0.44 0  0.64 0.44 0  0.68 0.44 0  0.72 0.44 0  0.76 0.44 0  0.8 0.44 0  0.84 0.44 0  0.88 0.44 0  0.92 0.44 0  0.96 0.44 0  1 0.44 0  0 0.48 0  0.04 0.48 0  0.08 0.48 0  0.12 0.48 0  0.16 0.48 0  0.2 0.48 0  0.24 0.48 0  0.28 0.48 0  0.32 0.48 0  0.36 0.48 0  0.4 0.48 0  0.44 0.48 0  0.48 0.48 0  0.52 0.48 0  0.5600000000000001 0.48 0  0.6 0.48 0  0.64 0.48 0  0.68 0.48 0  0.72 0.48 0  0.76 0.48 0  0.8 0.48 0  0.84 0.48 0  0.88 0.48 0  0.92 0.48 0  0.96 0.48 0  1 0.48 0  0 0.52 0  0.04 0.52 0  0.08 0.52 0  0.12 0.52 0  0.16 0.52 0  0.2 0.52 0  0.24 0.52 0  0.28 0.52 0  0.32 0.52 0  0.36 0.52 0  0.4 0.52 0  0.44 0.52 0  0.48 0.52 0  0.52 0.52 0  0.5600000000000001 0.52 0  0.6 0.52 0  0.64 0.52 0  0.68 0.52 0  0.72 0.52 0  0.76 0.52 0  0.8 0.52 0  0.84 0.52 0  0.88 0.52 0  0.92 0.52 0  0.96 0.52 0  1 0.52 0  0 0.5600000000000001 0  0.04 0.5600000000000001 0  0.08 0.5600000000000001 0  0.12 0.5600000000000001 0  0.16 0.5600000000000001 0  0.2 0.5600000000000001 0  0.24 0.5600000000000001 0  0.28 0.5600000000000001 0  0.32 0.5600000000000001 0  0.36 0.5600000000000001 0  0.4 0.5600000000000001 0  0.44 0.5600000000000001 0  0.48 0.5600000000000001 0  0.52 0.5600000000000001 0  0.5600000000000001 0.5600000000000001 0  0.6 0.5600000000000001 0  0.64 0.5600000000000001 0  0.68 0.5600000000000001 0  0.72 0.5600000000000001 0  0.76 0.5600000000000001 0  0.8 0.5600000000000001 0  0.84 0.5600000000000001 0  0.88 0.5600000000000001 0  0.92 0.5600000000000001 0  0.96 0.5600000000000001 0  1 0.5600000000000001 0  0 0.6 0  0.04 0.6 0  0.08 0.6 0  0.12 0.6 0  0.16 0.6 0  0.2 0.6 0  0.24 0.6 0  0.28 0.6 0  0.32 0.6 0  0.36 0.6 0  0.4 0.6 0  0.44 0.6 0  0.48 0.6 0  0.52 0.6 0  0.5600000000000001 0.6 0  0.6 0.6 0  0.64 0.6 0  0.68 0.6 0  0.72 0.6 0  0.76 0.6 0  0.8 0.6 0  0.84 0.6 0  0.88 0.6 0  0.92 0.6 0  0.96 0.6 0  1 0.6 0  0 0.64 0  0.04 0.64 0  0.08 0.64 0  0.12 0.64 0  0.16 0.64 0  0.2 0.64 0  0.24 0.64 0  0.28 0.64 0  0.32 0.64 0  0.36 0.64 0  0.4 0.64 0  0.44 0.64 0  0.48 0.64 0  0.52 0.64 0  0.5600000000000001 0.64 0  0.6 0.64 0  0.64 0.64 0  0.68 0.64 0  0.72 0.64 0  0.76 0.64 0  0.8 0.64 0  0.84 0.64 0  0.88 0.64 0  0.92 0.64 0  0.96 0.64 0  1 0.64 0  0 0.68 0  0.04 0.68 0  0.08 0.68 0  0.12 0.68 0  0.16 0.68 0  0.2 0.68 0  0.24 0.68 0  0.28 0.68 0  0.32 0.68 0  0.36 0.68 0  0.4 0.68 0  0.44 0.68 0  0.48 0.68 0  0.52 0.68 0  0.5600000000000001 0.68 0  0.6 0.68 0  0.64 0.68 0  0.68 0.68 0  0.72 0.68 0  0.76 0.68 0  0.8 0.68 0  0.84 0.68 0  0.88 0.68 0  0.92 0.68 0  0.96 0.68 0  1 0.68 0  0 0.72 0  0.04 0.72 0  0.08 0.72 0  0.12 0.72 0  0.16 0.72 0  0.2 0.72 0  0.24 0.72 0  0.28 0.72 0  0.32 0.72 0  0.36 0.72 0  0.4 0.72 0  0.44 0.72 0  0.48 0.72 0  0.52 0.72 0  0.5600000000000001 0.72 0  0.6 0.72 0  0.64 0.72 0  0.68 0.72 0  0.72 0.72 0  0.76 0.72 0  0.8 0.72 0  0.84 0.72 0  0.88 0.72 0  0.92 0.72 0  0.96 0.72 0  1 0.72 0  0 0.76 0  0.04 0.76 0  0.08 0.76 0  0.12 0.76 0  0.16 0.76 0  0.2 0.76 0  0.24 0.76 0  0.28 0.76 0  0.32 0.76 0  0.36 0.76 0  0.4 0.76 0  0.44 0.76 0  0.48 0.76 0  0.52 0.76 0  0.5600000000000001 0.76 0  0.6 0.76 0  0.64 0.76 0  0.68 0.76 0  0.72 0.76 0  0.76 0.76 0  0.8 0.76 0  0.84 0.76 0  0.88 0.76 0  0.92 0.76 0  0.96 0.76 0  1 0.76 0  0 0.8 0  0.04 0.8 0  0.08 0.8 0  0.12 0.8 0  0.16 0.8 0  0.2 0.8 0  0.24 0.8 0  0.28 0.8 0  0.32 0.8 0  0.36 0.8 0  0.4 0.8 0  0.44 0.8 0  0.48 0.8 0  0.52 0.8 0  0.5600000000000001 0.8 0  0.6 0.8 0  0.64 0.8 0  0.68 0.8 0  0.72 0.8 0  0.76 0.8 0  0.8 0.8 0  0.84 0.8 0  0.88 0.8 0  0.92 0.8 0  0.96 0.8 0  1 0.8 0  0 0.84 0  0.04 0.84 0  0.08 0.84 0  0.12 0.84 0  0.16 0.84 0  0.2 0.84 0  0.24 0.84 0  0.28 0.84 0  0.32 0.84 0  0.36 0.84 0  0.4 0.84 0  0.44 0.84 0  0.48 0.84 0  0.52 0.84 0  0.5600000000000001 0.84 0  0.6 0.84 0  0.64 0.84 0  0.68 0.84 0  0.72 0.84 0  0.76 0.84 0  0.8 0.84 0  0.84 0.84 0  0.88 0.84 0  0.92 0.84 0  0.96 0.84 0  1 0.84 0  0 0.88 0  0.04 0.88 0  0.08 0.88 0  0.12 0.88 0  0.16 0.88 0  0.2 0.88 0  0.24 0.88 0  0.28 0.88 0  0.32 0.88 0  0.36 0.88 0  0.4 0.88 0  0.44 0.88 0  0.48 0.88 0  0.52 0.88 0  0.5600000000000001 0.88 0  0.6 0.88 0  0.64 0.88 0  0.68 0.88 0  0.72 0.88 0  0.76 0.88 0  0.8 0.88 0  0.84 0.88 0  0.88 0.88 0  0.92 0.88 0  0.96 0.88 0  1 0.88 0  0 0.92 0  0.04 0.92 0  0.08 0.92 0  0.12 0.92 0  0.16 0.92 0  0.2 0.92 0  0.24 0.92 0  0.28 0.92 0  0.32 0.92 0  0.36 0.92 0  0.4 0.92 0  0.44 0.92 0  0.48 0.92 0  0.52 0.92 0  0.5600000000000001 0.92 0  0.6 0.92 0  0.64 0.92 0  0.68 0.92 0  0.72 0.92 0  0.76 0.92 0  0.8 0.92 0  0.84 0.92 0  0.88 0.92 0  0.92 0.92 0  0.96 0.92 0  1 0.92 0  0 0.96 0  0.04 0.96 0  0.08 0.96 0  0.12 0.96 0  0.16 0.96 0  0.2 0.96 0  0.24 0.96 0  0.28 0.96 0  0.32 0.96 0  0.36 0.96 0  0.4 0.96 0  0.44 0.96 0  0.48 0.96 0  0.52 0.96 0  0.5600000000000001 0.96 0  0.6 0.96 0  0.64 0.96 0  0.68 0.96 0  0.72 0.96 0  0.76 0.96 0  0.8 0.96 0  0.84 0.96 0  0.88 0.96 0  0.92 0.96 0  0.96 0.96 0  1 0.96 0  0 1 0  0.04 1 0  0.08 1 0  0.12 1 0  0.16 1 0  0.2 1 0  0.24 1 0  0.28 1 0  0.32 1 0  0.36 1 0  0.4 1 0  0.44 1 0  0.48 1 0  0.52 1 0  0.5600000000000001 1 0  0.6 1 0  0.64 1 0  0.68 1 0  0.72 1 0  0.76 1 0  0.8 1 0  0.84 1 0  0.88 1 0  0.92 1 0  0.96 1 0  1 1 0  </DataArray>
</Points>
<Cells>
[...]
<PointData  Scalars="Indicator Function"> 
<DataArray  type="Float64"  Name="Indicator Function"  format="ascii">-2.7405448273131735e-20  -8.7177897087414730e-19  1.6889307128588102e-17  1.5952684221770456e-17  -5.0504702703877200e-19  -1.2639767673227670e-19  -7.4753053089982293e-20  -9.8616238484249914e-19  -9.2079610788736086e-18  -5.3872664986788465e-19  5.1945562858170747e-17  8.1715936662090143e-18  0.0000000000000000e+00  -3.6221819224875319e-34  2.5663098159972710e-17  3.3957955523320615e-36  9.0554548062188301e-36  4.3779321797705382e-18  2.2638637015547075e-36  -2.2638637015547075e-36  6.1121179608031120e-19  -4.9871399626131172e-21  -8.8140854914980694e-21  2.2199880468431225e-19  -2.4725614839574916e-21  -2.2638637015547075e-36  -2.7651226068117982e-21  4.9369266652319016e-04  3.4035016518412439e-03  1.5133071248603027e-02  3.1667967608933138e-04  4.5539562386558196e-03  2.6932625763266488e-03  1.2967471433161131e-02  8.0868062832564098e-03  1.5737571761412432e-02  1.8360506776919862e-03  1.5146184653401493e-02  8.1196529812254999e-03  2.0682275375909147e-03  1.6928589436325616e-03  1.5238969855402478e-03  9.6122862314701268e-04  7.5057373208214234e-04  3.5772687997152197e-04  2.7916780962871035e-04  1.7916483961024490e-04  1.2266157479824742e-04  1.6121489762755921e-04  7.8172999726709304e-05  8.9083415822412704e-05  2.4725614839574995e-21  -2.6156490170522471e-19  4.9812020566683288e-05  1.6964421590619504e-04  4.4727178425365208e-03  2.4202972896502969e-02  4.8628029081002845e-03  2.6616421144505777e-02  2.5317014569597080e-02  4.8051588920767073e-02  1.2908855230042025e-03  2.2900736697105014e-02  1.0981033926149316e-02  3.1479973552245397e-02  4.1114462293773905e-04  4.8378867756559375e-03  4.5060086644778509e-03  3.1140020511632549e-03  2.0908424597203567e-03  1.1940650477309247e-03  6.7193552188889334e-04  5.6805417169296076e-04  3.2597681210426617e-04  4.4421290877617213e-04  3.4861347028810919e-04  5.8457973369444819e-05  -4.6082351638065263e-20  -9.2667696984757067e-20  4.7119343754114026e-03  6.4231913145045864e-03  7.2550866804130271e-03  4.0404532099730085e-02  3.8036270444484050e-03  9.0827731296925854e-03  2.4907231885333206e-04  2.7803354062588024e-02  2.6638888142296934e-02  4.3448463784833052e-02  1.0260107053532546e-02  4.7353195105202583e-02  2.9112864302827241e-02  9.9109629487054794e-03  1.0676605451422247e-02  8.5473878455438364e-03  4.8196930743308287e-03  3.1105369951266717e-03  1.4777331843255520e-03  1.0258835660006927e-03  6.6715251664953279e-04  4.0220377808688644e-04  5.8796039299679635e-04  3.9843526578970404e-04  -5.5294000737796677e-20  -4.6613104762687641e-19  3.9824522151383837e-03  3.7662871014872866e-03  2.0493164351500308e-03  8.2521569840722411e-05  5.7828185968087017e-02  5.5685628154663672e-03  6.6177740666679252e-02  4.7633597770087237e-02  1.2297739013450716e-01  2.0577933670969859e-02  7.2704268603681774e-02  5.0230054175889431e-02  1.0119448823982763e-01  2.9160483640357136e-02  2.4061755134383120e-02  2.0483161270878288e-02  1.3499184754669850e-02  7.3563482709075754e-03  3.7248773728360716e-03  1.6478371701550692e-03  1.1055422204840301e-03  5.2159645388604034e-04  4.5206717564224750e-04  4.1770869455662552e-04  1.0180060649689682e-19  -9.0554548062188299e-35  9.5959338020747045e-03  8.3687214014169353e-03  5.3515137266087389e-03  6.6739925220197999e-03  7.9581579055184815e-02  2.6227681049603727e-02  2.1134811152194004e-02  1.9495977607197460e-02  9.5324428828742008e-02  1.0853438215660380e-01  1.8507162336294161e-01  1.0230129132057110e-01  1.6390078847255268e-01  1.1721789754550903e-01  6.4483452575693809e-02  4.6250065610014338e-02  3.0910392100610622e-02  1.6147848180319932e-02  8.2865940782167139e-03  3.5423607583881648e-03  1.7227847452537725e-03  8.4772925320058157e-04  3.0485208835137845e-04  3.1910076820937611e-04  -1.7713651002081200e-20  -8.1499093255969470e-35  1.4540695316403519e-02  9.3673822639340470e-03  7.9348968265499451e-03  6.2378224818862285e-03  3.0846515928885050e-02  1.7405940594240862e-01  2.1865723265764306e-02  1.9752451046829911e-01  1.5760050995677503e-02  3.6576058028032254e-01  1.1983545723514995e-01  2.0988756655851681e-01  2.2126453779695890e-01  2.7459978866248297e-01  1.2230605041655461e-01  6.6989343226693199e-02  4.8479187467034328e-02  3.2731366517156524e-02  1.7596942640471489e-02  8.0812284700746279e-03  3.1616856384825693e-03  1.5994909122728149e-03  5.1250939686117746e-04  2.0132731979338492e-04  -1.1175911296034368e-20  4.5730046771405092e-34  9.9295025794826960e-03  3.3687738372647717e-03  2.1277447535539139e-02  3.7529680671733866e-02  3.0274805978570352e-02  1.3766867941049074e-01  1.4716002094692481e-03  1.7103031009301423e-01  1.3008067416399632e-01  6.7389339735149212e-02  3.6860574463462012e-02  4.0343312480897731e-01  3.8483657623250497e-03  3.8706645094682868e-01  4.9996260069805876e-01  7.8119288604760256e-03  4.9299115497349007e-02  5.7177924568793878e-02  3.4721827217600802e-02  1.7177653079505670e-02  6.9044637504217261e-03  2.8388152765964334e-03  1.1992631336340284e-03  2.7570586095585609e-04  -1.2451250358550891e-34  -2.8977455379900256e-34  1.8649375249769114e-02  1.7447876134332321e-02  5.7186196544090542e-03  1.4752242555971899e-02  5.6343865129454301e-02  9.3103441542530516e-02  1.4237448516577977e-01  2.0071529262073026e-01  3.0398728018141785e-01  1.1307876846459221e-01  1.9384156852330545e-01  3.6995533835132814e-02  1.2507322655507044e-01  1.0167551756621377e-02  8.5245202322145067e-02  7.3113519259712267e-02  1.3976164920128650e-02  7.4348752769171689e-02  5.3493295494640658e-02  3.0944989765487787e-02  1.3984661595007501e-02  5.3007283484628655e-03  2.3063203922237398e-03  6.7944704168015316e-04  -2.5355273457412725e-34  -1.0569465173426358e-19  3.0418782412667210e-03  1.3614988424720961e-02  3.9553745701675351e-02  8.6325059249743291e-02  7.6040393670316106e-02  4.4761466303094626e-02  2.2532049944382876e-01  4.4154324910836867e-01  8.6515136901593417e-02  4.0489277733240438e-02  6.8974361676019920e-03  1.1360338631947986e-01  1.0343352362877513e-01  6.0554909243692029e-02  5.4857272642475058e-02  1.1430999897821693e-01  7.2046438825659281e-02  2.0910000971789362e-02  6.1836864977006356e-02  4.2662172792160252e-02  2.3550407370543751e-02  9.6012568015976397e-03  3.7963799918833887e-03  1.3840799995420221e-03  3.6221819224875321e-35  2.4449727976790842e-34  2.7462908564865403e-03  4.4945057775935670e-03  3.8584113648614921e-03  2.9774062608570816e-02  1.2347594486717228e-01  3.8037211649482200e-01  1.1639285487196054e-01  1.5276028481250206e-01  4.6675728558223523e-02  5.7849200241466323e-02  1.6885967391969282e-02  8.7416354626261794e-02  7.9757224453217146e-02  9.8275446413308057e-02  5.6299578177398349e-02  1.3788552629575954e-01  1.1554974374341427e-01  6.4830256846279091e-02  4.6240858925632899e-02  4.1553946203100857e-02  2.9213515665145864e-02  1.5182385772027599e-02  6.0634594592985447e-03  2.3004926935690250e-03  4.0296773887673795e-34  -1.0866545767462597e-34  3.5285337697968317e-03  6.1899412989250505e-04  2.4443643128066687e-02  5.0754197176856704e-02  1.0418658246539100e-01  6.9813055349143657e-02  4.8826824027017635e-01  6.1995646703754230e-02  1.9979257232863128e-02  2.9681570676563865e-02  2.8167091752430252e-02  2.2351796146322250e-02  1.0872640964031623e-01  1.0056000837758075e-01  3.4412430940746926e-02  8.5867390404158028e-02  2.5946427932946525e-01  2.7167395303138914e-01  4.7238203839424751e-02  9.5447998904417790e-03  2.2859721703928047e-02  1.8456173792101981e-02  8.9144764091392634e-03  3.5364817862744611e-03  -5.7954910759800513e-34  -2.7372076856730705e-19  1.1673718141086501e-02  9.1438001070731634e-03  8.0081494080065010e-03  3.7008501354324354e-02  1.2865809572031339e-01  1.7337769895279143e-01  3.3748174831908770e-02  1.5817532784991484e-01  6.2493872697947830e-02  1.6442412391158470e-02  4.4631827665436601e-02  2.5571693717103286e-02  8.9681942470316550e-02  8.1924467660349193e-02  1.2469176048020200e-01  6.0340921475239659e-02  1.7486322266423115e-01  1.9687403817904164e-01  4.8249743463360040e-01  4.1203485615686701e-02  1.1676041529625760e-03  1.5062323311383343e-02  1.0986169625241024e-02  4.9319389871404183e-03  2.1733091534925193e-34  -3.6221819224875321e-35  4.9309150052931619e-03  1.5786894224503290e-02  3.2163563126725303e-02  6.6415692056048845e-02  9.6349853540060440e-02  1.3593389424512620e-01  2.5855564139682474e-01  8.2065067076837570e-02  9.8488053687148441e-02  3.2510400737551105e-02  4.2644211674275120e-03  2.0702114465179229e-02  2.3562617934199455e-02  1.2094032944222903e-01  1.1028891504085392e-01  3.8363774327898457e-04  2.3141132014974239e-01  4.9414621862039348e-01  4.0247919525744240e-02  6.5851612010319471e-02  4.5505964805869853e-02  7.9578715151174993e-04  1.0577017744457589e-02  5.9278697942075449e-03  2.8977455379900256e-34  -2.8819665958608369e-20  1.5577817347014712e-03  5.5929680976546129e-03  1.3496645486747857e-02  4.8628647368144991e-02  1.3768492276104288e-01  2.0466523840210421e-01  1.3237780308691391e-01  1.1311053102752336e-01  1.3609910581971829e-01  6.7733377245792037e-02  5.9865609695672589e-02  2.0931205156254976e-02  5.9867428034929187e-03  1.2220465703393138e-01  3.2708255405221799e-02  1.1392247037254538e-01  5.6362305086427866e-02  2.4909708799808541e-01  7.8127869842152509e-01  8.3075271163215933e-02  2.7094006822977069e-02  3.7613740533834539e-02  5.1950000835509196e-03  6.5616214373879558e-03  5.1616092395447330e-33  -4.7653955037610972e-20  8.0731809039849538e-03  7.2616920554088278e-03  1.8357061380722781e-02  3.1494410944642275e-02  5.9938276128976065e-02  8.5917678048347962e-02  2.8503000594206845e-01  1.3370273065437815e-01  9.7989610145590919e-02  1.2699860653163428e-01  7.4707063120380640e-02  8.3419841440445661e-02  2.0598169070572922e-02  7.7858111694203980e-03  3.1846382272764334e-01  2.4079104945553237e-01  1.4180294335749910e-01  1.2270332255217187e-01  1.1995449745103720e-02  1.2530969253363497e-01  3.5283473138849296e-02  4.1310966708748141e-02  2.5439727155344691e-02  8.1530478923457460e-03  -4.5258507454769278e-19  -9.0554548062188301e-36  8.5845733660045961e-04  7.4007290959820357e-03  1.5632016473034426e-02  3.7514654409381717e-02  7.4326490604846446e-02  1.0131853645463672e-01  1.9482466013792685e-03  1.9177129517151401e-01  5.7990503278016650e-02  1.9674570401414881e-01  6.3414975244922137e-02  1.3740597694401255e-01  1.2184815443548507e-02  6.7412929302847202e-02  2.3054469797519794e-01  1.0831616333368634e-01  5.6188543885205833e-01  3.8306804097047298e-01  1.9226832231620114e-01  7.0720893928201897e-02  5.0938390794457541e-02  1.3253829457705375e-02  2.8437711357150678e-02  1.0448352353210911e-02  1.1590982151960103e-33  -1.7624720966391883e-20  4.4458935821772996e-04  3.2130923797082972e-03  5.6972570239822848e-03  2.0383766942640370e-02  4.8100161347653859e-02  9.2681532624783569e-02  1.3870252707012845e-01  3.8688446299712685e-03  2.2642219195672053e-01  2.3740516271637430e-01  2.8047517813446632e-01  1.6817168622682255e-01  1.4936874215981369e-01  5.6542138199122613e-02  1.8709108292627619e-01  5.1736018444836596e-01  1.4325873000309222e-01  1.1231538844687980e-01  5.6940374212234225e-02  7.1195088699608625e-02  6.6790047209956682e-02  4.2855157627608047e-02  2.0266912624438516e-02  1.1985624658623694e-02  -3.7091142886272328e-32  -6.8295977876175630e-20  1.4457172686785440e-03  1.7701649317898618e-04  6.7339503838860816e-03  1.0282406142211934e-02  2.6649722677496709e-02  4.7483047764448318e-02  6.3948415577489898e-02  6.4912350221578902e-02  2.7841346300737507e-01  8.5099081839787427e-02  3.4809154559401961e-01  1.7769464131198301e-01  5.4862132114017570e-01  2.0513172889850903e-01  8.3111638703292259e-02  7.2297783286915196e-01  2.4802725280953941e-01  1.2907129497128098e-01  3.8653711140209351e-02  3.7292041389070628e-02  5.4362547036609130e-02  5.4215178253534724e-02  2.4995290459366694e-02  9.8040351590050756e-03  1.1590982151960103e-33  -8.6431524923445757e-20  1.3535939735438483e-03  1.6753613236575459e-03  3.0099466912956408e-03  8.4968440609894322e-03  1.7585493352185254e-02  3.3877534847974476e-02  4.6548286110039576e-02  4.4942492832720740e-02  7.3600054787302582e-02  1.7538527533097217e-02  4.2121417205222104e-02  5.3616757652496172e-01  3.0725316104055603e-02  6.2823957517477669e-01  4.7202498572249002e-01  7.3818824889553616e-02  8.5783782778320466e-02  8.6900079834122762e-02  8.0476360730208946e-02  2.5950545099258069e-02  5.1942607934858831e-02  4.7707127189658492e-02  4.3863654722869135e-02  2.5428868854068153e-04  3.4772946455880309e-33  -8.4932870612714889e-20  1.5570119337531760e-03  2.4709826127103872e-03  1.5256660352709500e-03  6.6015536740565645e-03  1.0517826675861789e-02  2.3113926517632496e-02  3.6597119891768691e-02  4.2030207472803796e-02  1.0398049175280630e-02  2.4571457346387757e-02  2.4600867811362559e-02  1.4966764547073261e-01  2.3808842434517752e-02  1.3208214927061493e-01  2.1323591955401174e-02  1.1309558217640756e-01  3.0553942993269880e-02  7.6788812532652059e-02  7.3009964656218340e-02  4.7560891285739530e-02  3.4082789510321287e-02  3.4636666326669313e-02  3.2382957066914429e-02  2.6009918866027437e-02  4.4499426158525822e-18  -3.7477207020520137e-20  1.5300145777717195e-03  2.2525726717369157e-03  3.1215623342700899e-03  3.1010311982724061e-03  8.4961204456721878e-03  1.3834676786424799e-02  2.5593513522246897e-02  3.5695483218018180e-02  4.4081371306592551e-02  2.9140650216808298e-02  3.7398995562184796e-02  2.6056304551723905e-02  7.8617891524091113e-02  2.0549487846624359e-02  7.1413368402351643e-02  2.8104844800057652e-02  2.7462679484367702e-02  7.3340566978487851e-03  6.9483903295854410e-02  5.3126099999756503e-02  2.3984565876034578e-02  2.6746291435248395e-02  1.5116258745342158e-02  9.3519130249124800e-03  2.3181964303920205e-33  -1.2092063062641396e-20  6.7512934229000602e-04  1.6607770604805490e-03  2.2742044908565305e-03  2.5536423272914588e-03  5.6515076745620894e-03  9.6372358393481423e-03  1.7689195830299331e-02  2.7315869963876215e-02  3.5400018582575667e-02  1.6749051743612933e-02  2.3645386897007011e-02  3.4980614182936673e-02  2.2909389899304626e-02  3.0650005459098161e-03  1.0002192714124633e-02  1.8027207672994344e-02  1.6902119028711880e-02  1.4635871829281706e-03  5.6789075026110809e-02  4.1850445442598166e-02  3.3518801322534937e-02  2.6200694533559665e-04  8.5528007632771422e-03  5.3373178324254795e-03  3.4772946455880309e-33  -8.7816771365110199e-21  2.1783124281220950e-04  8.2607786394820739e-04  1.2211697440171283e-03  1.8892308500411449e-03  2.1512525701176378e-03  6.1588981739181406e-03  1.0449785775692623e-02  2.0035744570284068e-02  3.1475828883017351e-02  4.2984366958186970e-02  4.3413624289548565e-03  1.3782090372937083e-02  2.5390557346679169e-02  2.3609546297442316e-02  2.6948771995768572e-02  2.3187037092992258e-03  1.8306642936425214e-03  6.7735439960664992e-03  2.5827887666600743e-03  3.2707874120143983e-02  1.9090963519127112e-02  1.8366398546382574e-02  5.8661399792321722e-03  3.4656469562084068e-05  9.6191026145869345e-22  -1.2734233321245230e-36  1.9562048579444791e-04  3.5969604846925216e-04  6.8349965273736867e-04  8.2617109038248362e-04  1.1926507515029028e-03  2.3935055112915280e-03  4.6058154739962061e-03  8.9006632106829117e-03  1.6932002490305808e-02  3.2475154107393177e-02  2.8252977113681882e-02  5.4964346596509134e-03  7.9940634157462560e-03  1.4897659598052471e-02  1.3472788894701415e-02  2.4041479016379652e-02  1.0933339291968609e-02  2.6173203662030985e-03  7.1931476162270932e-03  5.2967406806351883e-03  3.6834434665369300e-03  2.5041636431239853e-03  7.1219006812664951e-03  9.4515429488611410e-03  -5.2466603000295878e-19  1.1319318507773538e-36  5.4295591854338027e-21  8.9852137847381752e-20  -9.4854631474040604e-20  2.0637768753501851e-19  -1.3465843300137054e-20  -1.3286624641015312e-19  -8.1499093255969470e-35  1.8110909612437661e-33  -4.6071731294110296e-19  -4.2073085589265950e-18  7.8417764264537610e-19  -3.0511341562460630e-19  0.0000000000000000e+00  1.4877031320593408e-17  -7.4789002184058064e-19  -1.3345701775013614e-18  3.0346112544943701e-19  -1.4529046666894980e-19  -4.6363928607840410e-33  3.8119130333886309e-17  -2.0447218732271969e-19  -2.3181964303920205e-33  -2.6079709841910230e-32  -5.2466603000295763e-19  5.8086698661276310e-18  </DataArray> 
</PointData> 
</Piece>
</UnstructuredGrid>
</VTKFile>