<?xml version="1.0"?>
<VTKFile type="UnstructuredGrid"  version="0.1"  >
<UnstructuredGrid>
<Piece  NumberOfPoints="2601" NumberOfCells="5000">
<Points>
<DataArray  type="Float64"  NumberOfComponents="3"  format="ascii">0 0 0  0.02 0 0  0.04 0 0  0.06 0 0  0.08 0 0  0.1 0 0  0.12 0 0  0.14 0 0  0.16 0 0  0.18 0 0  0.2 0 0  0.22 0 0  0.24 0 0  0.26 0 0  0.28 0 0  0.3 0 0  0.32 0 0  0.34 0 0  0.36 0 0  0.38 0 0  0.4 0 0  0.42 0 0  0.44 0 0  0.46 0 0  0.48 0 0  0.5 0 0  0.52 0 0  0.54 0 0  0.5600000000000001 0 0  0.58 0 0  0.6 0 0  0.62 0 0  0.64 0 0  0.66 0 0  0.68 0 0  0.7 0 0  0.72 0 0  0.74 0 0  0.76 0 0  0.78 0 0  0.8 0 0  0.82 0 0  0.84 0 0  0.86 0 0  0.88 0 0  0.9 0 0  0.92 0 0  0.9399999999999999 0 0  0.96 0 0  0.98 0 0  1 0 0  0 0.02 0  0.02 0.02 0  0.04 0.02 0  0.06 0.02 0  0.08 0.02 0  0.1 0.02 0  0.12 0.02 0  0.14 0.02 0  0.16 0.02 0  0.18 0.02 0  0.2 0.02 0  0.22 0.02 0  0.24 0.02 0  0.26 0.02 0  0.28 0.02 0  0.3 0.02 0  0.32 0.02 0  0.34 0.02 0  0.36 0.02 0  0.38 0.02 0  0.4 0.02 0  0.42 0.02 0  0.44 0.02 0  0.46 0.02 0  0.48 0.02 0  0.5 0.02 0  0.52 0.02 0  0.54 0.02 0  0.5600000000000001 0.02 0  0.58 0.02 0  0.6 0.02 0  0.62 0.02 0  0.64 0.02 0  0.66 0.02 0  0.68 0.02 0  0.7 0.02 0  0.72 0.02 0  0.74 0.02 0  0.76 0.02 0  0.78 0.02 0  0.8 0.02 0  0.82 0.02 0  0.84 0.02 0  0.86 0.02 0  0.88 0.02 0  0.9 0.02 0  0.92 0.02 0  0.9399999999999999 0.02 0  0.96 0.02 0  0.98 0.02 0  1 0.02 0  0 0.04 0  0.02 0.04 0  0.04 0.04 0  0.06 0.04 0  0.08 0.04 0  0.1 0.04 0  0.12 0.04 0  0.14 0.04 0  0.16 0.04 0  0.18 0.04 0  0.2 0.04 0  0.22 0.04 0  0.24 0.04 0  0.26 0.04 0  0.28 0.04 0  0.3 0.04 0  0.32 0.04 0  0.34 0.04 0  0.36 0.04 0  0.38 0.04 0  0.4 0.04 0  0.42 0.04 0  0.44 0.04 0  0.46 0.04 0  0.48 0.04 0  0.5 0.04 0  0.52 0.04 0  0.54 0.04 0  0.5600000000000001 0.04 0  0.58 0.04 0  0.6 0.04 0  0.62 0.04 0  0.64 0.04 0  0.66 0.04 0  0.68 0.04 0  0.7 0.04 0  0.72 0.04 0  0.74 0.04 0  0.76 0.04 0  0.78 0.04 0  0.8 0.04 0  0.82 0.04 0  0.84 0.04 0  0.86 0.04 0  0.88 0.04 0  0.9 0.04 0  0.92 0.04 0  0.9399999999999999 0.04 0  0.96 0.04 0  0.98 0.04 0  1 0.04 0  0 0.06 0  0.02 0.06 0  0.04 0.06 0  0.06 0.06 0  0.08 0.06 0  0.1 0.06 0  0.12 0.06 0  0.14 0.06 0  0.16 0.06 0  0.18 0.06 0  0.2 0.06 0  0.22 0.06 0  0.24 0.06 0  0.26 0.06 0  0.28 0.06 0  0.3 0.06 0  0.32 0.06 0  0.34 0.06 0  0.36 0.06 0  0.38 0.06 0  0.4 0.06 0  0.42 0.06 0  0.44 0.06 0  0.46 0.06 0  0.48 0.06 0  0.5 0.06 0  0.52 0.06 0  0.54 0.06 0  0.5600000000000001 0.06 0  0.58 0.06 0  0.6 0.06 0  0.62 0.06 0  0.64 0.06 0  0.66 0.06 0  0.68 0.06 0  0.7 0.06 0  0.72 0.06 0  0.74 0.06 0  0.76 0.06 0  0.78 0.06 0  0.8 0.06 0  0.82 0.06 0  0.84 0.06 0  0.86 0.06 0  0.88 0.06 0  0.9 0.06 0  0.92 0.06 0  0.9399999999999999 0.06 0  0.96 0.06 0  0.98 0.06 0  1 0.06 0  0 0.08 0  0.02 0.08 0  0.04 0.08 0  0.06 0.08 0  0.08 0.08 0  0.1 0.08 0  0.12 0.08 0  0.14 0.08 0  0.16 0.08 0  0.18 0.08 0  0.2 0.08 0  0.22 0.08 0  0.24 0.08 0  0.26 0.08 0  0.28 0.08 0  0.3 0.08 0  0.32 0.08 0  0.34 0.08 0  0.36 0.08 0  0.38 0.08 0  0.4 0.08 0  0.42 0.08 0  0.44 0.08 0  0.46 0.08 0  0.48 0.08 0  0.5 0.08 0  0.52 0.08 0  0.54 0.08 0  0.5600000000000001 0.08 0  0.58 0.08 0  0.6 0.08 0  0.62 0.08 0  0.64 0.08 0  0.66 0.08 0  0.68 0.08 0  0.7 0.08 0  0.72 0.08 0  0.74 0.08 0  0.76 0.08 0  0.78 0.08 0  0.8 0.08 0  0.82 0.08 0  0.84 0.08 0  0.86 0.08 0  0.88 0.08 0  0.9 0.08 0  0.92 0.08 0  0.9399999999999999 0.08 0  0.96 0.08 0  0.98 0.08 0  1 0.08 0  0 0.1 0  0.02 0.1 0  0.04 0.1 0  0.06 0.1 0  0.08 0.1 0  0.1 0.1 0  0.12 0.1 0  0.14 0.1 0  0.16 0.1 0  0.18 0.1 0  0.2 0.1 0  0.22 0.1 0  0.24 0.1 0  0.26 0.1 0  0.28 0.1 0  0.3 0.1 0  0.32 0.1 0  0.34 0.1 0  0.36 0.1 0  0.38 0.1 0  0.4 0.1 0  0.42 0.1 0  0.44 0.1 0  0.46 0.1 0  0.48 0.1 0  0.5 0.1 0  0.52 0.1 0  0.54 0.1 0  0.5600000000000001 0.1 0  0.58 0.1 0  0.6 0.1 0  0.62 0.1 0  0.64 0.1 0  0.66 0.1 0  0.68 0.1 0  0.7 0.1 0  0.72 0.1 0  0.74 0.1 0  0.76 0.1 0  0.78 0.1 0  0.8 0.1 0  0.82 0.1 0  0.84 0.1 0  0.86 0.1 0  0.88 0.1 0  0.9 0.1 0  0.92 0.1 0  0.9399999999999999 0.1 0  0.96 0.1 0  0.98 0.1 0  1 0.1 0  0 0.12 0  0.02 0.12 0  0.04 0.12 0  0.06 0.12 0  0.08 0.12 0  0.1 0.12 0  0.12 0.12 0  0.14 0.12 0  0.16 0.12 0  0.18 0.12 0  0.2 0.12 0  0.22 0.12 0  0.24 0.12 0  0.26 0.12 0  0.28 0.12 0  0.3 0.12 0  0.32 0.12 0  0.34 0.12 0  0.36 0.12 0  0.38 0.12 0  0.4 0.12 0  0.42 0.12 0  0.44 0.12 0  0.46 0.12 0  0.48 0.12 0  0.5 0.12 0  0.52 0.12 0  0.54 0.12 0  0.5600000000000001 0.12 0  0.58 0.12 0  0.6 0.12 0  0.62 0.12 0  0.64 0.12 0  0.66 0.12 0  0.68 0.12 0  0.7 0.12 0  0.72 0.12 0  0.74 0.12 0  0.76 0.12 0  0.78 0.12 0  0.8 0.12 0  0.82 0.12 0  0.84 0.12 0  0.86 0.12 0  0.88 0.12 0  0.9 0.12 0  0.92 0.12 0  0.9399999999999999 0.12 0  0.96 0.12 0  0.98 0.12 0  1 0.12 0  0 0.14 0  0.02 0.14 0  0.04 0.14 0  0.06 0.14 0  0.08 0.14 0  0.1 0.14 0  0.12 0.14 0  0.14 0.14 0  0.16 0.14 0  0.18 0.14 0  0.2 0.14 0  0.22 0.14 0  0.24 0.14 0  0.26 0.14 0  0.28 0.14 0  0.3 0.14 0  0.32 0.14 0  0.34 0.14 0  0.36 0.14 0  0.38 0.14 0  0.4 0.14 0  0.42 0.14 0  0.44 0.14 0  0.46 0.14 0  0.48 0.14 0  0.5 0.14 0  0.52 0.14 0  0.54 0.14 0  0.5600000000000001 0.14 0  0.58 0.14 0  0.6 0.14 0  0.62 0.14 0  0.64 0.14 0  0.66 0.14 0  0.68 0.14 0  0.7 0.14 0  0.72 0.14 0  0.74 0.14 0  0.76 0.14 0  0.78 0.14 0  0.8 0.14 0  0.82 0.14 0  0.84 0.14 0  0.86 0.14 0  0.88 0.14 0  0.9 0.14 0  0.92 0.14 0  0.9399999999999999 0.14 0  0.96 0.14 0  0.98 0.14 0  1 0.14 0  0 0.16 0  0.02 0.16 0  0.04 0.16 0  0.06 0.16 0  0.08 0.16 0  0.1 0.16 0  0.12 0.16 0  0.14 0.16 0  0.16 0.16 0  0.18 0.16 0  0.2 0.16 0  0.22 0.16 0  0.24 0.16 0  0.26 0.16 0  0.28 0.16 0  0.3 0.16 0  0.32 0.16 0  0.34 0.16 0  0.36 0.16 0  0.38 0.16 0  0.4 0.16 0  0.42 0.16 0  0.44 0.16 0  0.46 0.16 0  0.48 0.16 0  0.5 0.16 0  0.52 0.16 0  0.54 0.16 0  0.5600000000000001 0.16 0  0.58 0.16 0  0.6 0.16 0  0.62 0.16 0  0.64 0.16 0  0.66 0.16 0  0.68 0.16 0  0.7 0.16 0  0.72 0.16 0  0.74 0.16 0  0.76 0.16 0  0.78 0.16 0  0.8 0.16 0  0.82 0.16 0  0.84 0.16 0  0.86 0.16 0  0.88 0.16 0  0.9 0.16 0  0.92 0.16 0  0.9399999999999999 0.16 0  0.96 0.16 0  0.98 0.16 0  1 0.16 0  0 0.18 0  0.02 0.18 0  0.04 0.18 0  0.06 0.18 0  0.08 0.18 0  0.1 0.18 0  0.12 0.18 0  0.14 0.18 0  0.16 0.18 0  0.18 0.18 0  0.2 0.18 0  0.22 0.18 0  0.24 0.18 0  0.26 0.18 0  0.28 0.18 0  0.3 0.18 0  0.32 0.18 0  0.34 0.18 0  0.36 0.18 0  0.38 0.18 0  0.4 0.18 0  0.42 0.18 0  0.44 0.18 0  0.46 0.18 0  0.48 0.18 0  0.5 0.18 0  0.52 0.18 0  0.54 0.18 0  0.5600000000000001 0.18 0  0.58 0.18 0  0.6 0.18 0  0.62 0.18 0  0.64 0.18 0  0.66 0.18 0  0.68 0.18 0  0.7 0.18 0  0.72 0.18 0  0.74 0.18 0  0.76 0.18 0  0.78 0.18 0  0.8 0.18 0  0.82 0.18 0  0.84 0.18 0  0.86 0.18 0  0.88 0.18 0  0.9 0.18 0  0.92 0.18 0  0.9399999999999999 0.18 0  0.96 0.18 0  0.98 0.18 0  1 0.18 0  0 0.2 0  0.02 0.2 0  0.04 0.2 0  0.06 0.2 0  0.08 0.2 0  0.1 0.2 0  0.12 0.2 0  0.14 0.2 0  0.16 0.2 0  0.18 0.2 0  0.2 0.2 0  0.22 0.2 0  0.24 0.2 0  0.26 0.2 0  0.28 0.2 0  0.3 0.2 0  0.32 0.2 0  0.34 0.2 0  0.36 0.2 0  0.38 0.2 0  0.4 0.2 0  0.42 0.2 0  0.44 0.2 0  0.46 0.2 0  0.48 0.2 0  0.5 0.2 0  0.52 0.2 0  0.54 0.2 0  0.5600000000000001 0.2 0  0.58 0.2 0  0.6 0.2 0  0.62 0.2 0  0.64 0.2 0  0.66 0.2 0  0.68 0.2 0  0.7 0.2 0  0.72 0.2 0  0.74 0.2 0  0.76 0.2 0  0.78 0.2 0  0.8 0.2 0  0.82 0.2 0  0.84 0.2 0  0.86 0.2 0  0.88 0.2 0  0.9 0.2 0  0.92 0.2 0  0.9399999999999999 0.2 0  0.96 0.2 0  0.98 0.2 0  1 0.2 0  0 0.22 0  0.02 0.22 0  0.04 0.22 0  0.06 0.22 0  0.08 0.22 0  0.1 0.22 0  0.12 0.22 0  0.14 0.22 0  0.16 0.22 0  0.18 0.22 0  0.2 0.22 0  0.22 0.22 0  0.24 0.22 0  0.26 0.22 0  0.28 0.22 0  0.3 0.22 0  0.32 0.22 0  0.34 0.22 0  0.36 0.22 0  0.38 0.22 0  0.4 0.22 0  0.42 0.22 0  0.44 0.22 0  0.46 0.22 0  0.48 0.22 0  0.5 0.22 0  0.52 0.22 0  0.54 0.22 0  0.5600000000000001 0.22 0  0.58 0.22 0  0.6 0.22 0  0.62 0.22 0  0.64 0.22 0  0.66 0.22 0  0.68 0.22 0  0.7 0.22 0  0.72 0.22 0  0.74 0.22 0  0.76 0.22 0  0.78 0.22 0  0.8 0.22 0  0.82 0.22 0  0.84 0.22 0  0.86 0.22 0  0.88 0.22 0  0.9 0.22 0  0.92 0.22 0  0.9399999999999999 0.22 0  0.96 0.22 0  0.98 0.22 0  1 0.22 0  0 0.24 0  0.02 0.24 0  0.04 0.24 0  0.06 0.24 0  0.08 0.24 0  0.1 0.24 0  0.12 0.24 0  0.14 0.24 0  0.16 0.24 0  0.18 0.24 0  0.2 0.24 0  0.22 0.24 0  0.24 0.24 0  0.26 0.24 0  0.28 0.24 0  0.3 0.24 0  0.32 0.24 0  0.34 0.24 0  0.36 0.24 0  0.38 0.24 0  0.4 0.24 0  0.42 0.24 0  0.44 0.24 0  0.46 0.24 0  0.48 0.24 0  0.5 0.24 0  0.52 0.24 0  0.54 0.24 0  0.5600000000000001 0.24 0  0.58 0.24 0  0.6 0.24 0  0.62 0.24 0  0.64 0.24 0  0.66 0.24 0  0.68 0.24 0  0.7 0.24 0  0.72 0.24 0  0.74 0.24 0  0.76 0.24 0  0.78 0.24 0  0.8 0.24 0  0.82 0.24 0  0.84 0.24 0  0.86 0.24 0  0.88 0.24 0  0.9 0.24 0  0.92 0.24 0  0.9399999999999999 0.24 0  0.96 0.24 0  0.98 0.24 0  1 0.24 0  0 0.26 0  0.02 0.26 0  0.04 0.26 0  0.06 0.26 0  0.08 0.26 0  0.1 0.26 0  0.12 0.26 0  0.14 0.26 0  0.16 0.26 0  0.18 0.26 0  0.2 0.26 0  0.22 0.26 0  0.24 0.26 0  0.26 0.26 0  0.28 0.26 0  0.3 0.26 0  0.32 0.26 0  0.34 0.26 0  0.36 0.26 0  0.38 0.26 0  0.4 0.26 0  0.42 0.26 0  0.44 0.26 0  0.46 0.26 0  0.48 0.26 0  0.5 0.26 0  0.52 0.26 0  0.54 0.26 0  0.5600000000000001 0.26 0  0.58 0.26 0  0.6 0.26 0  0.62 0.26 0  0.64 0.26 0  0.66 0.26 0  0.68 0.26 0  0.7 0.26 0  0.72 0.26 0  0.74 0.26 0  0.76 0.26 0  0.78 0.26 0  0.8 0.26 0  0.82 0.26 0  0.84 0.26 0  0.86 0.26 0  0.88 0.26 0  0.9 0.26 0  0.92 0.26 0  0.9399999999999999 0.26 0  0.96 0.26 0  0.98 0.26 0  1 0.26 0  0 0.28 0  0.02 0.28 0  0.04 0.28 0  0.06 0.28 0  0.08 0.28 0  0.1 0.28 0  0.12 0.28 0  0.14 0.28 0  0.16 0.28 0  0.18 0.28 0  0.2 0.28 0  0.22 0.28 0  0.24 0.28 0  0.26 0.28 0  0.28 0.28 0  0.3 0.28 0  0.32 0.28 0  0.34 0.28 0  0.36 0.28 0  0.38 0.28 0  0.4 0.28 0  0.42 0.28 0  0.44 0.28 0  0.46 0.28 0  0.48 0.28 0  0.5 0.28 0  0.52 0.28 0  0.54 0.28 0  0.5600000000000001 0.28 0  0.58 0.28 0  0.6 0.28 0  0.62 0.28 0  0.64 0.28 0  0.66 0.28 0  0.68 0.28 0  0.7 0.28 0  0.72 0.28 0  0.74 0.28 0  0.76 0.28 0  0.78 0.28 0  0.8 0.28 0  0.82 0.28 0  0.84 0.28 0  0.86 0.28
[...]
<PointData  Scalars="Indicator Function"> 
<DataArray  type="Float64"  Name="Indicator Function"  format="ascii">-2.1817175151261656e-35  1.0746074645278889e-18  2.2868650414945519e-19  2.4392446806669182e-18  1.7917647646592403e-18  -8.0174378182614189e-20  -4.1054862992443830e-19  5.6758056870561340e-17  3.3407668043084250e-17  -2.4003205487246261e-19  2.5351636741173044e-17  7.2753893908453153e-17  -7.9614344800109087e-21  -3.9807172400067182e-21  -8.8239368189643449e-18  -4.5376798989215812e-19  -2.1287704933817292e-19  3.9865626026811682e-17  -1.1820141645926646e-19  -2.3594237242760991e-19  8.2362587957527950e-18  -2.8247552330693710e-19  -2.9691699151099848e-19  9.3977797258305126e-17  -3.6708029202476438e-20  -1.3721149913645307e-19  -6.8605749568226548e-20  -3.8440033104281731e-20  1.3004544211415939e-17  -1.2566775327787596e-21  -6.6134615208409819e-22  -3.9861775664842460e-22  -2.6722772922923700e-22  -1.8524641351594419e-22  1.1120440797715231e-20  0.0000000000000000e+00  -8.9668476134637701e-24  -4.3616182432239671e-23  -7.2404355064051214e-23  -1.6546180961024419e-22  6.9318438409501282e-21  -7.6857729098810383e-23  -1.8208707684352024e-22  -1.2156772973473159e-22  -3.2988063262350432e-23  -1.1357844127850291e-23  4.2535124307572461e-22  -4.4819265191417412e-24  -1.5002827714272518e-24  -2.1323284825943827e-25  -2.1122164116337979e-39  -5.2138452476344449e-20  6.5223777133923181e-04  8.5935245396966044e-04  5.6076646287346902e-04  2.1684959891731651e-03  1.4439446755876040e-03  7.2232086103772727e-04  7.0346261964618047e-03  3.7588017650677314e-03  6.2895346294103843e-03  4.3240330915223909e-03  1.1913239608052032e-03  7.2645925868876577e-04  1.4342045343004607e-04  3.0480276778810786e-03  1.0093068003256453e-03  7.6697040006011054e-03  7.0285854663836664e-03  5.8671335498789636e-03  1.8115996850856719e-03  3.3445600796407431e-03  6.6065713400472485e-03  1.7853409760020058e-03  5.3487810093156120e-03  3.7480315629174767e-03  6.6127306655111280e-04  2.4717826255275083e-03  5.8194963884967998e-04  4.0149925563336933e-04  3.4762104680162010e-05  7.4349445693927666e-06  1.0601966501072038e-05  8.6286091998063735e-06  6.5443031262210518e-06  4.7522540210101180e-06  2.6733331661439186e-06  1.2582395519737464e-06  1.7118072728848811e-06  1.7199816365484938e-06  2.5895992546279883e-06  3.5994151175103173e-06  2.2505597858077804e-06  1.6722362139047926e-06  2.4440710587334457e-06  1.1040937686627802e-06  3.8517523040108283e-07  1.6389069987761045e-07  8.4101745957326413e-08  3.8688337427371513e-08  7.6825230077147928e-09  2.1323284825943579e-25  6.6203841838311232e-35  9.3924286057655659e-04  1.5081010119756882e-03  1.4956040759495966e-03  1.1799572753395360e-03  3.0146107493487901e-03  3.6994496206962713e-03  5.6052524101342918e-03  1.8780783543718010e-03  2.6281640883828688e-03  1.7108550477661099e-03  7.1871808261785436e-03  1.3821184171664112e-02  9.5802601109321109e-03  5.7076953692932852e-04  9.7782998732491837e-03  1.1325951502829458e-02  4.3627130975663142e-03  1.4168327222510902e-02  3.7692205958899665e-03  4.7670277520059949e-03  3.4015457498671482e-03  1.3821043264101831e-02  1.1108769736517631e-02  4.6122748969591107e-03  1.8100306336876332e-03  3.6993543711126287e-03  1.1394378334457801e-03  1.3759535485999010e-03  2.6486824221161902e-06  2.0308186785999305e-05  1.9490268940909041e-05  1.5426121901008955e-05  1.1769366772061764e-05  8.6250429108258440e-06  5.7090954764024188e-06  2.5885660996557225e-06  2.0589602697739970e-06  2.5703250245882512e-06  2.8790545556809367e-06  4.6048025355184341e-06  5.1236935142668075e-06  5.1126631671790487e-07  3.7797339799574586e-06  2.5387341232177143e-06  8.4431746094924677e-07  2.9712338902268303e-07  1.4667433038807157e-07  8.3261947483719580e-08  3.3996705991928222e-08  8.4923832945714254e-24  -4.1510867996814356e-20  1.8075436160371746e-03  8.6609578148961531e-04  1.8550747714677796e-03  1.5419691517900890e-03  3.8435004902999574e-03  1.9585108541776558e-03  8.2297700081517011e-04  1.3373180881538899e-02  8.0092626349712315e-03  1.2281377123220820e-02  9.9347378297833036e-03  6.2248982903478677e-03  4.8136790081309130e-03  1.1546281779896640e-03  3.6042639581508168e-03  1.7321141820713252e-04  1.5024492526327812e-02  1.1886859962426865e-02  1.0891022959212208e-02  1.6571000577594106e-03  5.8227040250372758e-03  1.0483134896511700e-02  5.0265946839916486e-03  1.2510453709721127e-02  8.6364222862608166e-03  2.3176353213469622e-03  4.8028595963742152e-03  1.1322702855756323e-03  8.2738469886078588e-04  1.1791044962547471e-04  2.4379163267092996e-05  2.3823910989004287e-05  1.7500585048164674e-05  1.2691548865538267e-05  9.0833804279696685e-06  5.1534601068425172e-06  2.4126445120351312e-06  3.2467745423387646e-06  3.1222481990590458e-06  4.6100561349185730e-06  6.4605835482087391e-06  4.2678811437994832e-06  2.8957731534323351e-06  4.2902933358938496e-06  1.7104581891197878e-06  4.6731332686696656e-07  1.7306046312286245e-07  9.0966550177626242e-08  4.1443451776438565e-08  -5.7514342977680386e-24  -3.6111548719991135e-20  2.6582397900457638e-03  6.8639184249416705e-04  2.2550097149525460e-03  1.6816868346491308e-03  2.1031705551293311e-03  4.1961761666956775e-03  5.5720071112990181e-03  7.1327325049495034e-03  2.4469263181658134e-03  3.0709477059218840e-03  1.4014673080635484e-03  8.4150774077490498e-03  1.8916012803481156e-02  1.4868868080009236e-02  1.4022262180448106e-03  1.4764461970963642e-02  1.6052254585394218e-02  7.4643065157041369e-03  2.0024390926552196e-02  5.1442319118050386e-03  5.3662464799117855e-03  3.8185398140481476e-03  1.8846352856873277e-02  1.5475436498562966e-02  5.9432798007743653e-03  2.4629616368420631e-03  5.0239311342812846e-03  1.5470547552022158e-03  2.0357523056902093e-03  2.1818111019616785e-05  4.9377311629074066e-05  3.3826158606981428e-05  2.4415361709676658e-05  1.8124127823400039e-05  1.3235175614074534e-05  8.7795238681617987e-06  4.1186052307879138e-06  3.3947691071158694e-06  4.0471213488450650e-06  4.3858324528652670e-06  6.8669064305739378e-06  7.4292593855590584e-06  6.6169790132355511e-07  5.3463545415733358e-06  3.3409431481235367e-06  9.0418407553409017e-07  2.1647419112770929e-07  8.1695173276131189e-08  4.0858432672103994e-08  1.0206443858099947e-23  3.6111186457260672e-35  6.5052782943649467e-04  1.9883080362668730e-03  2.4487545815186445e-03  2.3483483263176471e-03  2.5747100103500225e-03  5.0618643381573816e-03  2.0499052245990697e-03  9.3181348775731379e-04  1.7281240191185453e-02  1.0277624991037841e-02  1.4759504875641151e-02  1.1887174286381100e-02  7.8901467904657369e-03  6.3853962299694669e-03  1.0733046333447242e-05  2.7977053097461855e-03  1.2380710410754136e-03  1.6971671222724395e-02  1.4873887145352803e-02  1.2097920178686748e-02  1.4698764225356659e-03  7.4686223856040420e-03  1.3212273346335592e-02  5.0156113415944529e-03  1.5653025404160241e-02  1.0737415404534070e-02  2.4716158931408177e-03  5.6957433647190792e-03  1.5533895158119440e-03  9.7588291865137932e-04  1.4755699931548756e-04  4.1313481527406391e-05  3.6530292457206968e-05  2.6706548681787130e-05  1.9147429331444509e-05  1.3565661435614316e-05  7.7270828461487957e-06  3.9482181336048978e-06  5.0759258366444990e-06  4.6919200660726869e-06  6.8004182094182628e-06  9.1261180555583528e-06  5.5963699379042975e-06  4.0732663082587997e-06  5.5034431923747118e-06  1.9768525417264652e-06  3.9562161159267463e-07  7.5967644662986784e-08  2.4132556337133551e-08  -1.3396259844274708e-24  -1.6802311921473395e-21  3.3868814492723511e-04  2.7836693904261241e-03  2.2112815546616251e-03  3.7970209286915303e-03  1.0253200253025414e-03  3.5907507468303187e-03  4.0940119899902276e-03  7.7269434479344526e-03  8.9983432974433501e-03  9.6688857342062820e-04  5.6703960215606867e-03  3.0729254443691832e-03  1.0590225467186876e-02  2.3824620119676242e-02  2.0698887775893068e-02  3.4403791057366368e-03  1.9519517761924253e-02  2.1864045028568847e-02  8.4322356367563245e-03  2.4622107403215229e-02  6.4410868531968000e-03  5.8011790235836429e-03  4.1546574366973362e-03  2.2459449445298627e-02  1.9383645940604953e-02  8.5317596011341493e-03  4.2402996141460677e-03  6.8766961445978787e-03  1.5070565167950572e-03  2.5150410059389442e-03  1.0036804286960248e-04  7.9422878602968956e-05  5.7150655853163194e-05  3.9895179622159963e-05  2.8747597546630975e-05  2.0761524679624586e-05  1.3680674195848139e-05  6.7853522224282895e-06  5.7690660289832803e-06  6.2209835045999853e-06  6.6000735074151006e-06  9.8756652909808763e-06  9.9288894329942631e-06  3.1791146635016960e-07  6.9918846533115557e-06  3.9943090516050508e-06  9.3153440091733886e-07  1.2396918018152970e-07  3.2771037222710035e-09  -1.8191580032749256e-25  8.7268700605046625e-35  3.0268354283404306e-05  8.1797490042028072e-04  2.1595537458536820e-03  3.9837631821597651e-03  4.3349288815232217e-03  4.8203311471777957e-03  6.6545195074787190e-03  1.9547251251694326e-03  1.4829252342623792e-03  2.2113100163258022e-02  1.2397587406118125e-02  1.7013235196896161e-02  1.3237909917122098e-02  7.9894304802712486e-03  6.4420154796138831e-03  2.5070699588067178e-03  6.9948482916728659e-04  3.5179269521511190e-03  1.5709518205888798e-02  1.8643127285468363e-02  1.0469043591556787e-02  1.7286602658101893e-03  1.0194577263798594e-02  1.6895626349225337e-02  2.5621877274388449e-03  1.7102936747243253e-02  1.2363609549476084e-02  1.6857785439748170e-03  6.1609649206732873e-03  2.0716539879045812e-03  8.7863482456001314e-04  2.0151805839445613e-04  8.3533922412844634e-05  6.5776423621860072e-05  4.8301421578851212e-05  3.4215332420544233e-05  2.3614245607519841e-05  1.3587295051714969e-05  7.6641953688972531e-06  8.5978467521148910e-06  7.4354682779369974e-06  1.0234800194159481e-05  1.2766427182408878e-05  6.8768666796137881e-06  5.7899447937023534e-06  6.7717896197334846e-06  2.1941978866882124e-06  3.2365185044474688e-07  9.4329031486753304e-09  7.0529661049337250e-38  -4.3841809866758441e-20  2.4667322535250612e-04  4.5276842472243966e-04  3.7416267018153806e-03  3.8594716508250676e-03  4.8006107994747948e-03  1.0662842069418396e-03  4.6562256547883511e-03  1.2843986332092096e-03  1.1154061012618049e-02  1.1109562648764025e-02  1.6816556094044592e-03  1.0447818923586701e-02  5.2788053901103972e-03  1.4113388581269367e-02  2.9688787493621218e-02  2.7717933634682630e-02  7.3740501993420854e-03  2.4745516411834034e-02  3.0932894018670117e-02  8.0458644799121723e-03  3.1819805895681258e-02  8.4478502191017626e-03  5.7946147646717166e-03  4.2154825141643183e-03  2.6829092145428945e-02  2.3212771922847764e-02  1.2536862037119231e-02  6.8322282910060058e-03  9.4883078019519472e-03  1.4990468840143300e-03  2.8585832926074110e-03  2.9812597438112466e-04  1.7114996802889885e-04  1.3081278731928158e-04  8.8928853984657295e-05  6.0220017085408178e-05  4.1252576101672739e-05  2.6628744769151773e-05  1.4495472960640908e-05  1.1847467087722269e-05  1.0961282071924195e-05  1.0873278518373953e-05  1.4727549181696861e-05  1.3411393136967473e-05  3.3144567793116175e-07  8.9388504756810451e-06  4.5788434933641549e-06  8.9533331502068991e-07  2.1602640813024312e-08  -3.7031530389721844e-23  -3.7917974541338218e-20  8.6421962263504275e-04  1.8989599793146634e-03  1.6893084153133374e-03  1.3120568407148849e-03  6.5932201152486096e-03  6.8313187040862445e-03  6.1828340945267865e-03  1.1286318427249302e-02  1.1114009290031789e-03  4.4797992111334757e-03  3.0361098278557624e-02  1.3151738918454749e-02  1.9804539449350848e-02  1.3440603900491153e-02  8.2526788696350977e-03  4.7005986404043106e-03  4.9592436127133179e-03  2.0627629491532847e-03  4.6242007161045959e-03  1.1250719418090091e-02  2.1758791116617326e-02  6.5759963132994183e-03  4.1940233532634713e-03  1.6159809406088257e-02  2.2310074088649903e-02  1.5244425287502478e-03  1.7127637193574016e-02  1.4898505862224423e-02  5.0932864235492389e-04  6.6624284081044077e-03  2.4480206845948313e-03  3.7564916709424364e-04  4.4971312214011787e-04  2.4593642102921641e-04  1.6577588478185551e-04  1.1459078670020261e-04  7.8898369182221770e-05  5.3344032093642193e-05  3.2073535126980044e-05  1.9694480641862348e-05  1.7854746400901195e-05  1.3973712496346304e-05  1.6775366253238229e-05  1.8647846850971227e-05  8.8014291913413829e-06  7.8021235392249188e-06  7.9839731491893576e-06  2.2383717629195261e-06  1.8031665182378199e-07  -1.0009584928904004e-23  0.0000000000000000e+00  2.1277182624037608e-03  1.6138941041190598e-03  1.3477801154271277e-03  4.1937629234077480e-04  8.9066407565702582e-03  5.9795160438904033e-03  5.0253662775291506e-03  6.1800988258512539e-03  1.1842422479899253e-03  1.0283825072521884e-02  8.9648721768129311e-03  5.7792698535046533e-03  2.0175201768399664e-02  3.7652763370072989e-03  2.1750895765981118e-02  3.3635530878383828e-02  3.7662386209196153e-02  1.0998524419312428e-02  2.8827112006154426e-02  4.2697887479933236e-02  3.0543878841534497e-03  4.5923522913920253e-02  1.2372138893745980e-02  5.2414164303767070e-03  5.7777679101196867e-03  3.5440647526579785e-02  2.3996731593963844e-02  1.8849537851024709e-02  8.8274140933771571e-03  1.3638617565758756e-02  2.6152065504121262e-03  2.4738185450935432e-03  8.8314280157586412e-04  5.0962612783082861e-04  3.7466895506414310e-04  2.5512847661575243e-04  1.6798722169309802e-04  1.0915688942595184e-04  6.7964479976032554e-05  3.9022136103462038e-05  2.8640695452278082e-05  2.2493805175709160e-05  2.0005426777515857e-05  2.3372163798380013e-05  1.9040922112903427e-05  7.2236714292559206e-07  1.0820877519837056e-05  4.8330261719798260e-06  6.5707252825713486e-07  -5.7051532899793441e-23  -2.3576218776434343e-20  5.2141189921880136e-04  6.5192828734166616e-04  3.0251028001048986e-03  2.1165357910874947e-03  2.8493672807945783e-03  2.6590333724576792e-03  1.8355109101160994e-02  1.2396027716589129e-02  1.6124385487757451e-02  6.1402849846644821e-04  7.4938889473705837e-03  3.3464177173956978e-02  2.4370684558327041e-02  1.3456289041235369e-02  1.4909126836787683e-02  1.1715071956140388e-02  5.8490687064708157e-03  5.4771119086759093e-04  1.0979587643751124e-02  8.8142227284003904e-03  6.6383346130921344e-03  2.4434637741784376e-02  7.7994476610730506e-03  1.9815956424201826e-02  3.3401105472813226e-02  3.3779985355361954e-02  3.9790298839673275e-03  1.0921179499483550e-02  2.3040783701567497e-02  7.3751557835342535e-03  8.8886657805097493e-03  1.5273456632105425e-03  1.3308050048837421e-03  1.4570301784908000e-03  8.8974393473977681e-04  5.4142170482720934e-04  3.3055664635898074e-04  2.0395639875547003e-04  1.2712363744796915e-04  7.5573060232668858e-05  4.7334502383129480e-05  3.7757832864830479e-05  2.7870871490900806e-05  2.9283861694856982e-05  2.8822685058602168e-05  1.2530517054572869e-05  9.3775262204002877e-06  8.5790513775374533e-06  1.7954832868897848e-06  -1.8552784945917865e-22  1.2413220344683356e-35  9.0093444121047857e-04  1.0959196231089070e-03  7.2659696480347944e-04  3.3202275088865189e-04  6.2650614598281338e-04  9.9880555653215266e-03  5.3294250314604641e-03  3.8351110539704084e-03  6.3696923699498925e-03  1.9084333972449942e-02  1.7886134426935815e-02  1.2298580207866242e-02  7.4934526169851638e-03  2.8318996069850239e-02  1.7556885300682737e-02  8.3111155992258243e-03  5.7867749516696730e-02  3.8509075036224215e-02  1.5367376189749562e-02  2.7012404898993266e-02  6.4677379814718813e-02  1.1868861223825031e-03  6.1435454601782465e-02  1.5359781207144877e-02  9.2036247727992800e-03  2.4819851451172759e-02  7.0219383576375860e-02  4.1364109893477340e-03  3.8416925148166858e-02  2.4529322167761232e-03  2.5436822217433604e-02  9.1669741135138993e-03  1.0406475334153284e-03  2.9286040978946225e-03  1.5306529507264754e-03  9.1975331068013574e-04  5.6271943419060517e-04  3.5081791046684771e-04  2.2349147473445846e-04  1.4104735616659575e-04  8.6510166174639285e-05  6.3173927047207879e-05  4.7153992270182484e-05  3.9441116817512665e-05  4.0123034963410099e-05  2.9723128753385262e-05  9.1732534823185942e-07  1.1332801434193717e-05  3.9332630502660087e-06  -2.1833996001563458e-22  -4.8563534322319276e-20  1.2931799203185880e-03  1.1340826458444116e-03  5.4356514483868443e-04  2.5864355064643299e-03  1.3508284459157250e-03  4.8675661941717085e-04  4.7809128220480251e-03  2.1052603924331219e-02  6.9195680991308737e-03  2.6277983260595099e-02  1.2986789437408821e-02  3.5334803226997828e-02  6.0136578735432579e-02  1.6660014049551870e-02  2.2583987449418915e-02  7.0644569933524925e-03  3.3522836674723827e-03  1.7122365503038819e-02  5.0022103265506559e-02  3.6698418997130548e-02  3.2574438476433737e-02  1.1247899417988214e-02  1.2608054616516789e-01  1.1374587368080991e-02  6.5555602027855524e-03  8.5438017745238914e-03  1.0112673209814523e-01  2.4552172084618702e-02  3.7711526279530089e-02  6.2242973061387194e-02  3.1314576806195843e-02  1.6017902853597991e-02  7.9749531003030303e-04  3.6821523631276570e-03  2.7244278403165236e-03  1.7236938858694348e-03  1.0699889663914467e-03  6.6843774744043758e-04  4.2367334768972478e-04  2.7200314237401648e-04  1.7087477328838835e-04  1.1313636299997162e-04  8.5868450364718715e-05  6.2316762340443692e-05  5.7711183628940257e-05  5.0300614978328159e-05  2.2516561776089768e-05  7.5573592001431529e-06  6.5769257183437836e-06  -3.6509271818773079e-22  2.0463005659114381e-34  8.7484286031116586e-04  1.2910462095306026e-03  1.9519942817104888e-03  3.7305165528194028e-03  1.1852750786099787e-03  3.5252965643980521e-04  8.5675956168571252e-03  1.0224304277215915e-04  9.2128964308331000e-03  6.9532582491063097e-03  1.4288461439617312e-02  1.2965777010103539e-03  6.4667813046375830e-03  7.5619559106987720e-03  7.2851037570408408e-02  4.6168245620280008e-03  2.9333125302994562e-02  5.7928917851831206e-02  4.8163716596973438e-02  1.3675241768176533e-01  1.3453377310193990e-01  3.8978671980376182e-02  3.4066216027624448e-02  8.3019320401619079e-02  2.4634019246651804e-03  1.5719736360531065e-02  1.9037099966840141e-02  6.9537881869407514e-02  2.1495472342657373e-02  4.5378886892357022e-02  1.8358210487984913e-02  3.7028611079704857e-02  1.9899633749374045e-02  8.3327884557529378e-03  7.2716640185432205e-03  3.9391811862546098e-03  2.2560586026073005e-03  1.3300013889588336e-03  8.1074684875319261e-04  5.1318649983796703e-04  3.3013290421852749e-04  2.1406177044485135e-04  1.5552765544697309e-04  1.1319816627136370e-04  8.9467943511026688e-05  7.9224277187362025e-05  5.4761950137047076e-05  1.0369537667319267e-05  6.7179371052361366e-06  1.2001690549130155e-20  7.2222372914521344e-35  1.4530005164833069e-03  3.7612056407317220e-04  5.9225082502808101e-04  7.3313686559271589e-04  1.4011642192667810e-03  8.5094489855507931e-03  4.1544551996030125e-03  4.9311833071940927e-03  2.3982963907689784e-02  1.8569752808127390e-03  3.9846330498370303e-02  1.9541902021038862e-02  3.7441991999263791e-02  3.5913375505383052e-02  6.5818411313269889e-02  4.4298577333528168e-04  1.6594025163321499e-03  8.5426928355418166e-02  8.2174485049239278e-03  3.3176556637888696e-02  2.1105429111485715e-02  3.3058094520746380e-02  3.5021701426987267e-02  1.4318365317329605e-02  1.9244411290016996e-02  1.9843125519089641e-03  2.4043884403305289e-03  2.3386337362620887e-03  3.3062917978634856e-03  4.9125538497091633e-03  5.0297903728271830e-02  4.6230755533730683e-02  5.6974952028865537e-02  1.7962157710287151e-02  1.2780013242408452e-02  6.9510655283821438e-03  3.9228276069132855e-03  2.2891348129607790e-03  1.4062037699865647e-03  9.0886327929957055e-04  6.0793766087344789e-04  4.0669242877631892e-04  2.8269500392841322e-04  2.0899188266400323e-04  1.4944924122742883e-04  1.2358591743995170e-04  9.6517442362573246e-05  4.6357003432135141e-05  1.9703951472808758e-06  7.5231638452626401e-37  -6.7323804609719552e-20  1.4008009774108959e-03  4.0628139789303198e-04  1.9524770410716266e-03  2.2560235169070595e-03  4.4734255225434950e-04  1.8113523431931358e-03  2.0828454204534900e-03  5.0749840528887603e-04  1.0601764877469144e-02  1.51325663