<?xml version="1.0"?>
<VTKFile type="UnstructuredGrid"  version="0.1"  >
<UnstructuredGrid>
<Piece  NumberOfPoints="10201" NumberOfCells="20000">
<Points>
<DataArray  type="Float64"  NumberOfComponents="3"  format="ascii">0 0 0  0.01 0 0  0.02 0 0  0.03 0 0  0.04 0 0  0.05 0 0  0.06 0 0  0.07000000000000001 0 0  0.08 0 0  0.09 0 0  0.1 0 0  0.11 0 0  0.12 0 0  0.13 0 0  0.14 0 0  0.15 0 0  0.16 0 0  0.17 0 0  0.18 0 0  0.19 0 0  0.2 0 0  0.21 0 0  0.22 0 0  0.23 0 0  0.24 0 0  0.25 0 0  0.26 0 0  0.27 0 0  0.28 0 0  0.29 0 0  0.3 0 0  0.31 0 0  0.32 0 0  0.33 0 0  0.34 0 0  0.35 0 0  0.36 0 0  0.37 0 0  0.38 0 0  0.39 0 0  0.4 0 0  0.41 0 0  0.42 0 0  0.43 0 0  0.44 0 0  0.45 0 0  0.46 0 0  0.47 0 0  0.48 0 0  0.49 0 0  0.5 0 0  0.51 0 0  0.52 0 0  0.53 0 0  0.54 0 0  0.55 0 0  0.5600000000000001 0 0  0.57 0 0  0.58 0 0  0.59 0 0  0.6 0 0  0.61 0 0  0.62 0 0  0.63 0 0  0.64 0 0  0.65 0 0  0.66 0 0  0.67 0 0  0.68 0 0  0.6899999999999999 0 0  0.7 0 0  0.71 0 0  0.72 0 0  0.73 0 0  0.74 0 0  0.75 0 0  0.76 0 0  0.77 0 0  0.78 0 0  0.79 0 0  0.8 0 0  0.8100000000000001 0 0  0.82 0 0  0.83 0 0  0.84 0 0  0.85 0 0  0.86 0 0  0.87 0 0  0.88 0 0  0.89 0 0  0.9 0 0  0.91 0 0  0.92 0 0  0.93 0 0  0.9399999999999999 0 0  0.95 0 0  0.96 0 0  0.97 0 0  0.98 0 0  0.99 0 0  1 0 0  0 0.01 0  0.01 0.01 0  0.02 0.01 0  0.03 0.01 0  0.04 0.01 0  0.05 0.01 0  0.06 0.01 0  0.07000000000000001 0.01 0  0.08 0.01 0  0.09 0.01 0  0.1 0.01 0  0.11 0.01 0  0.12 0.01 0  0.13 0.01 0  0.14 0.01 0  0.15 0.01 0  0.16 0.01 0  0.17 0.01 0  0.18 0.01 0  0.19 0.01 0  0.2 0.01 0  0.21 0.01 0  0.22 0.01 0  0.23 0.01 0  0.24 0.01 0  0.25 0.01 0  0.26 0.01 0  0.27 0.01 0  0.28 0.01 0  0.29 0.01 0  0.3 0.01 0  0.31 0.01 0  0.32 0.01 0  0.33 0.01 0  0.34 0.01 0  0.35 0.01 0  0.36 0.01 0  0.37 0.01 0  0.38 0.01 0  0.39 0.01 0  0.4 0.01 0  0.41 0.01 0  0.42 0.01 0  0.43 0.01 0  0.44 0.01 0  0.45 0.01 0  0.46 0.01 0  0.47 0.01 0  0.48 0.01 0  0.49 0.01 0  0.5 0.01 0  0.51 0.01 0  0.52 0.01 0  0.53 0.01 0  0.54 0.01 0  0.55 0.01 0  0.5600000000000001 0.01 0  0.57 0.01 0  0.58 0.01 0  0.59 0.01 0  0.6 0.01 0  0.61 0.01 0  0.62 0.01 0  0.63 0.01 0  0.64 0.01 0  0.65 0.01 0  0.66 0.01 0  0.67 0.01 0  0.68 0.01 0  0.6899999999999999 0.01 0  0.7 0.01 0  0.71 0.01 0  0.72 0.01 0  0.73 0.01 0  0.74 0.01 0  0.75 0.01 0  0.76 0.01 0  0.77 0.01 0  0.78 0.01 0  0.79 0.01 0  0.8 0.01 0  0.8100000000000001 0.01 0  0.82 0.01 0  0.83 0.01 0  0.84 0.01 0  0.85 0.01 0  0.86 0.01 0  0.87 0.01 0  0.88 0.01 0  0.89 0.01 0  0.9 0.01 0  0.91 0.01 0  0.92 0.01 0  0.93 0.01 0  0.9399999999999999 0.01 0  0.95 0.01 0  0.96 0.01 0  0.97 0.01 0  0.98 0.01 0  0.99 0.01 0  1 0.01 0  0 0.02 0  0.01 0.02 0  0.02 0.02 0  0.03 0.02 0  0.04 0.02 0  0.05 0.02 0  0.06 0.02 0  0.07000000000000001 0.02 0  0.08 0.02 0  0.09 0.02 0  0.1 0.02 0  0.11 0.02 0  0.12 0.02 0  0.13 0.02 0  0.14 0.02 0  0.15 0.02 0  0.16 0.02 0  0.17 0.02 0  0.18 0.02 0  0.19 0.02 0  0.2 0.02 0  0.21 0.02 0  0.22 0.02 0  0.23 0.02 0  0.24 0.02 0  0.25 0.02 0  0.26 0.02 0  0.27 0.02 0  0.28 0.02 0  0.29 0.02 0  0.3 0.02 0  0.31 0.02 0  0.32 0.02 0  0.33 0.02 0  0.34 0.02 0  0.35 0.02 0  0.36 0.02 0  0.37 0.02 0  0.38 0.02 0  0.39 0.02 0  0.4 0.02 0  0.41 0.02 0  0.42 0.02 0  0.43 0.02 0  0.44 0.02 0  0.45 0.02 0  0.46 0.02 0  0.47 0.02 0  0.48 0.02 0  0.49 0.02 0  0.5 0.02 0  0.51 0.02 0  0.52 0.02 0  0.53 0.02 0  0.54 0.02 0  0.55 0.02 0  0.5600000000000001 0.02 0  0.57 0.02 0  0.58 0.02 0  0.59 0.02 0  0.6 0.02 0  0.61 0.02 0  0.62 0.02 0  0.63 0.02 0  0.64 0.02 0  0.65 0.02 0  0.66 0.02 0  0.67 0.02 0  0.68 0.02 0  0.6899999999999999 0.02 0  0.7 0.02 0  0.71 0.02 0  0.72 0.02 0  0.73 0.02 0  0.74 0.02 0  0.75 0.02 0  0.76 0.02 0  0.77 0.02 0  0.78 0.02 0  0.79 0.02 0  0.8 0.02 0  0.8100000000000001 0.02 0  0.82 0.02 0  0.83 0.02 0  0.84 0.02 0  0.85 0.02 0  0.86 0.02 0  0.87 0.02 0  0.88 0.02 0  0.89 0.02 0  0.9 0.02 0  0.91 0.02 0  0.92 0.02 0  0.93 0.02 0  0.9399999999999999 0.02 0  0.95 0.02 0  0.96 0.02 0  0.97 0.02 0  0.98 0.02 0  0.99 0.02 0  1 0.02 0  0 0.03 0  0.01 0.03 0  0.02 0.03 0  0.03 0.03 0  0.04 0.03 0  0.05 0.03 0  0.06 0.03 0  0.07000000000000001 0.03 0  0.08 0.03 0  0.09 0.03 0  0.1 0.03 0  0.11 0.03 0  0.12 0.03 0  0.13 0.03 0  0.14 0.03 0  0.15 0.03 0  0.16 0.03 0  0.17 0.03 0  0.18 0.03 0  0.19 0.03 0  0.2 0.03 0  0.21 0.03 0  0.22 0.03 0  0.23 0.03 0  0.24 0.03 0  0.25 0.03 0  0.26 0.03 0  0.27 0.03 0  0.28 0.03 0  0.29 0.03 0  0.3 0.03 0  0.31 0.03 0  0.32 0.03 0  0.33 0.03 0  0.34 0.03 0  0.35 0.03 0  0.36 0.03 0  0.37 0.03 0  0.38 0.03 0  0.39 0.03 0  0.4 0.03 0  0.41 0.03 0  0.42 0.03 0  0.43 0.03 0  0.44 0.03 0  0.45 0.03 0  0.46 0.03 0  0.47 0.03 0  0.48 0.03 0  0.49 0.03 0  0.5 0.03 0  0.51 0.03 0  0.52 0.03 0  0.53 0.03 0  0.54 0.03 0  0.55 0.03 0  0.5600000000000001 0.03 0  0.57 0.03 0  0.58 0.03 0  0.59 0.03 0  0.6 0.03 0  0.61 0.03 0  0.62 0.03 0  0.63 0.03 0  0.64 0.03 0  0.65 0.03 0  0.66 0.03 0  0.67 0.03 0  0.68 0.03 0  0.6899999999999999 0.03 0  0.7 0.03 0  0.71 0.03 0  0.72 0.03 0  0.73 0.03 0  0.74 0.03 0  0.75 0.03 0  0.76 0.03 0  0.77 0.03 0  0.78 0.03 0  0.79 0.03 0  0.8 0.03 0  0.8100000000000001 0.03 0  0.82 0.03 0  0.83 0.03 0  0.84 0.03 0  0.85 0.03 0  0.86 0.03 0  0.87 0.03 0  0.88 0.03 0  0.89 0.03 0  0.9 0.03 0  0.91 0.03 0  0.92 0.03 0  0.93 0.03 0  0.9399999999999999 0.03 0  0.95 0.03 0  0.96 0.03 0  0.97 0.03 0  0.98 0.03 0  0.99 0.03 0  1 0.03 0  0 0.04 0  0.01 0.04 0  0.02 0.04 0  0.03 0.04 0  0.04 0.04 0  0.05 0.04 0  0.06 0.04 0  0.07000000000000001 0.04 0  0.08 0.04 0  0.09 0.04 0  0.1 0.04 0  0.11 0.04 0  0.12 0.04 0  0.13 0.04 0  0.14 0.04 0  0.15 0.04 0  0.16 0.04 0  0.17 0.04 0  0.18 0.04 0  0.19 0.04 0  0.2 0.04 0  0.21 0.04 0  0.22 0.04 0  0.23 0.04 0  0.24 0.04 0  0.25 0.04 0  0.26 0.04 0  0.27 0.04 0  0.28 0.04 0  0.29 0.04 0  0.3 0.04 0  0.31 0.04 0  0.32 0.04 0  0.33 0.04 0  0.34 0.04 0  0.35 0.04 0  0.36 0.04 0  0.37 0.04 0  0.38 0.04 0  0.39 0.04 0  0.4 0.04 0  0.41 0.04 0  0.42 0.04 0  0.43 0.04 0  0.44 0.04 0  0.45 0.04 0  0.46 0.04 0  0.47 0.04 0  0.48 0.04 0  0.49 0.04 0  0.5 0.04 0  0.51 0.04 0  0.52 0.04 0  0.53 0.04 0  0.54 0.04 0  0.55 0.04 0  0.5600000000000001 0.04 0  0.57 0.04 0  0.58 0.04 0  0.59 0.04 0  0.6 0.04 0  0.61 0.04 0  0.62 0.04 0  0.63 0.04 0  0.64 0.04 0  0.65 0.04 0  0.66 0.04 0  0.67 0.04 0  0.68 0.04 0  0.6899999999999999 0.04 0  0.7 0.04 0  0.71 0.04 0  0.72 0.04 0  0.73 0.04 0  0.74 0.04 0  0.75 0.04 0  0.76 0.04 0  0.77 0.04 0  0.78 0.04 0  0.79 0.04 0  0.8 0.04 0  0.8100000000000001 0.04 0  0.82 0.04 0  0.83 0.04 0  0.84 0.04 0  0.85 0.04 0  0.86 0.04 0  0.87 0.04 0  0.88 0.04 0  0.89 0.04 0  0.9 0.04 0  0.91 0.04 0  0.92 0.04 0  0.93 0.04 0  0.9399999999999999 0.04 0  0.95 0.04 0  0.96 0.04 0  0.97 0.04 0  0.98 0.04 0  0.99 0.04 0  1 0.04 0  0 0.05 0  0.01 0.05 0  0.02 0.05 0  0.03 0.05 0  0.04 0.05 0  0.05 0.05 0  0.06 0.05 0  0.07000000000000001 0.05 0  0.08 0.05 0  0.09 0.05 0  0.1 0.05 0  0.11 0.05 0  0.12 0.05 0  0.13 0.05 0  0.14 0.05 0  0.15 0.05 0  0.16 0.05 0  0.17 0.05 0  0.18 0.05 0  0.19 0.05 0  0.2 0.05 0  0.21 0.05 0  0.22 0.05 0  0.23 0.05 0  0.24 0.05 0  0.25 0.05 0  0.26 0.05 0  0.27 0.05 0  0.28 0.05 0  0.29 0.05 0  0.3 0.05 0  0.31 0.05 0  0.32 0.05 0  0.33 0.05 0  0.34 0.05 0  0.35 0.05 0  0.36 0.05 0  0.37 0.05 0  0.38 0.05 0  0.39 0.05 0  0.4 0.05 0  0.41 0.05 0  0.42 0.05 0  0.43 0.05 0  0.44 0.05 0  0.45 0.05 0  0.46 0.05 0  0.47 0.05 0  0.48 0.05 0  0.49 0.05 0  0.5 0.05 0  0.51 0.05 0  0.52 0.05 0  0.53 0.05 0  0.54 0.05 0  0.55 0.05 0  0.5600000000000001 0.05 0  0.57 0.05 0  0.58 0.05 0  0.59 0.05 0  0.6 0.05 0  0.61 0.05 0  0.62 0.05 0  0.63 0.05 0  0.64 0.05 0  0.65 0.05 0  0.66 0.05 0  0.67 0.05 0  0.68 0.05 0  0.6899999999999999 0.05 0  0.7 0.05 0  0.71 0.05 0  0.72 0.05 0  0.73 0.05 0  0.74 0.05 0  0.75 0.05 0  0.76 0.05 0  0.77 0.05 0  0.78 0.05 0  0.79 0.05 0  0.8 0.05 0  0.8100000000000001 0.05 0  0.82 0.05 0  0.83 0.05 0  0.84 0.05 0  0.85 0.05 0  0.86 0.05 0  0.87 0.05 0  0.88 0.05 0  0.89 0.05 0  0.9 0.05 0  0.91 0.05 0  0.92 0.05 0  0.93 0.05 0  0.9399999999999999 0.05 0  0.95 0.05 0  0.96 0.05 0  0.97 0.05 0  0.98 0.05 0  0.99 0.05 0  1 0.05 0  0 0.06 0  0.01 0.06 0  0.02 0.06 0  0.03 0.06 0  0.04 0.06 0  0.05 0.06 0  0.06 0.06 0  0.07000000000000001 0.06 0  0.08 0.06 0  0.09 0.06 0  0.1 0.06 0  0.11 0.06 0  0.12 0.06 0  0.13 0.06 0  0.14 0.06 0  0.15 0.06 0  0.16 0.06 0  0.17 0.06 0  0.18 0.06 0  0.19 0.06 0  0.2 0.06 0  0.21 0.06 0  0.22 0.06 0  0.23 0.06 0  0.24 0.06 0  0.25 0.06 0  0.26 0.06 0  0.27 0.06 0  0.28 0.06 0  0.29 0.06 0  0.3 0.06 0  0.31 0.06 0  0.32 0.06 0  0.33 0.06 0  0.34 0.06 0  0.35 0.06 0  0.36 0.06 0  0.37 0.06 0  0.38 0.06 0  0.39 0.06 0  0.4 0.06 0  0.41 0.06 0  0.42 0.06 0  0.43 0.06 0  0.44 0.06 0  0.45 0.06 0  0.46 0.06 0  0.47 0.06 0  0.48 0.06 0  0.49 0.06 0  0.5 0.06 0  0.51 0.06 0  0.52 0.06 0  0.53 0.06 0  0.54 0.06 0  0.55 0.06 0  0.5600000000000001 0.06 0  0.57 0.06 0  0.58 0.06 0  0.59 0.06 0  0.6 0.06 0  0.61 0.06 0  0.62 0.06 0  0.63 0.06 0  0.64 0.06 0  0.65 0.06 0  0.66 0.06 0  0.67 0.06 0  0.68 0.06 0  0.6899999999999999 0.06 0  0.7 0.06 0  0.71 0.06 0  0.72 0.06 0  0.73 0.06 0  0.74 0.06 0  0.75 0.06 0  0.76 0.06 0  0.77 0.06 0  0.78 0.06 0  0.79 0.06 0  0.8 0.06 0  0.8100000000000001 0.06 0  0.82 0.06 0  0.83 0.06 0  0.84 0.06 0  0.85 0.06 0  0.86 0.06 0  0.87 0.06 0  0.88 0.06 0  0.89 0.06 0  0.9 0.06 0  0.91 0.06 0  0.92 0.06 0  0.93 0.06 0  0.9399999999999999 0.06 0  0.95 0.06 0  0.96 0.06 0  0.97 0.06 0  0.98 0.06 0  0.99 0.06 0  1 0.06 0  0 0.07000000000000001 0  0.01 0.07000000000000001 0  0.02 0.07000000000000001 0  0.03 0.07000000000000001 0  0.04 0.07000000000000001 0  0.05 0.07000000000000001 0  0.06 0.07000000000000001 0  0.07000000000000001 0.07000000000000001 0  0.08 0.07000000000000001 0  0.09 0.07000000000000001 0  0.1 0.07000000000000001 0  0.11 0.07000000000000001 0  0.12 0.07000000000000001 0  0.13 0.07000000000000001 0  0.14 0.07000000000000001 0  0.15 0.07000000000000001 0  0.16 0.07000000000000001 0  0.17 0.0700
[...]
<PointData  Scalars="Indicator Function"> 
<DataArray  type="Float64"  Name="Indicator Function"  format="ascii">-3.7247317832172440e-19  1.3631412428199825e-18  2.7501722180181843e-17  9.2142052874320901e-19  7.0543060825140606e-17  -1.7393667921868073e-19  -6.3415350498931685e-20  2.9492613366174153e-17  1.2595553081650453e-16  -1.9457659598682571e-19  4.6941117935627715e-17  3.8225335937974508e-17  -3.2419426551062808e-20  -5.0475250628915397e-19  2.6777619070247677e-16  1.4444474582904269e-34  -3.6612456896568422e-19  3.0528053959665532e-16  -6.3723442884959813e-19  -8.3728479644575514e-19  6.9167280149453657e-16  -1.5632337481232606e-18  -8.3544416671977317e-19  4.0936764169269189e-17  -2.6950005835507420e-19  -6.9351454409464790e-19  -6.5636625323947940e-19  -7.8690651931899069e-19  1.0474734322074977e-15  -1.0568519867082030e-18  -2.3958298694576438e-18  -1.1979149347288221e-18  -1.1750316728724451e-18  -1.4406519399179644e-18  6.5921760098782023e-17  -6.4891717806229881e-19  -2.9989076599038324e-18  -5.1096789376366367e-18  -5.7188844072532108e-18  -4.6924947224357718e-18  6.1078468164846950e-16  -5.0532927070983466e-20  -1.1533263219882901e-18  -1.0241930397501709e-18  -1.3488684396872658e-18  -6.7443421984360393e-19  1.6183514219918364e-16  -6.7293831489437617e-19  -2.5316532739536677e-19  -4.5057718319622826e-19  -2.2528859159811422e-19  -3.2839240470386284e-19  -7.6440590344488728e-20  -4.6901971958369272e-19  -2.4551651327243277e-19  -1.4203733339855864e-33  1.1586394545433611e-30  -5.8010236897864213e-20  -2.2592550721641589e-20  -1.8056613038141802e-20  -9.9205443831371963e-21  -3.1037384883764787e-20  -1.4941086379664861e-20  -1.2690073945692935e-21  -7.0983380583442314e-21  -1.3134544454768556e-20  -1.9002068853674944e-20  -2.3174884772740334e-21  1.7382418863496876e-17  -4.0814043826910866e-20  -1.2103386565673408e-20  -4.3411124118290120e-21  -2.3481423451502252e-21  -8.0679078136076229e-20  -1.2963619116766883e-19  -7.0698973416113347e-20  -2.5769440708684166e-20  -5.5378697977686717e-20  -6.2407874995204720e-20  -5.3515917913587261e-20  -2.8384912889155783e-20  1.1782401849851223e-17  -2.3207078529160274e-20  -6.7453885483981519e-20  -6.2574510587281588e-20  -4.5035943321933045e-20  -1.2673309296326157e-20  -1.6178697090140130e-20  -2.2026695483754500e-20  -9.5249559349461782e-21  7.5231638452626401e-37  -1.5778419024709785e-21  -3.8681760053901823e-21  2.5511855803169372e-18  -2.3408286892705419e-21  -1.0560910624560150e-21  -6.2456832872735240e-23  -2.5794356040154858e-22  -6.6860164673482056e-22  -1.0579449157400588e-37  2.4685381367268038e-37  0.0000000000000000e+00  1.4176046698955409e-02  2.5514221573515419e-02  5.4190592967673108e-03  7.5128229046615069e-03  1.6971717276977123e-03  2.2847787910123905e-03  1.0895154172081297e-03  2.1973443625237541e-02  2.0227564359994090e-02  3.5051803407251257e-03  2.7792916169915017e-02  1.1680329386794632e-03  1.8185625593904787e-02  1.4837294670261807e-02  3.3114854858668219e-02  1.3191027778920681e-02  1.2435459416418127e-03  2.2958789890517594e-02  3.0166363978208238e-02  2.1328287009663754e-02  3.6218040136827959e-02  2.8160715702163604e-02  1.5050024151712240e-02  9.7097628990739076e-03  2.4986494738885395e-02  2.3648086508063097e-02  1.4462520082737219e-02  6.9443875873529222e-03  1.3600345139273509e-02  1.2238380284462570e-02  4.3159434029330195e-02  2.9628470729525579e-02  6.3532534516247009e-03  2.2775851433328127e-02  1.1146808634871367e-02  1.6078116193054805e-02  4.5984459582118296e-02  6.9055562847033750e-02  6.8494481318405104e-02  5.0285229274396534e-02  2.7832271832530692e-02  9.1032028610729004e-04  2.0321319832718544e-02  8.2895616523380247e-03  2.4299053609389568e-02  2.9860816467110605e-02  1.2125088644133067e-02  1.2122578976806565e-02  4.5606210964836153e-03  8.1168769373767252e-03  6.3234582645822195e-03  2.7540625135313609e-03  3.2965050190634183e-03  6.8008556278544236e-03  1.0224044968209108e-03  1.1819903724259440e-04  2.0900390502151633e-03  8.1398242409067305e-04  6.5055804600118916e-04  3.5742527989767321e-04  1.1508708473720336e-04  5.0157627761970923e-04  1.8366545398021518e-05  2.2860404917250698e-05  1.1644208807941020e-04  2.6170155395539401e-04  2.1146006385701891e-04  1.0726817963315270e-04  5.9833998492946582e-04  4.3607045781670251e-04  1.5640505792229245e-04  8.4600743925051616e-05  4.3982016982580170e-04  1.3642405413574140e-03  1.6531977382670683e-03  4.4700061219560391e-04  4.6422097429270440e-04  7.6550344715994032e-04  7.4148860671358345e-04  5.9331276853929473e-04  2.1967921914450175e-04  2.5170206912757733e-04  6.8069810498452962e-04  8.7479212162914013e-04  6.8984610944051972e-04  4.6637237553148584e-04  2.9902555723873027e-04  3.6918974502213645e-04  2.1220279778029236e-04  6.5484953107229803e-05  6.0832177594662705e-07  2.8423872816071400e-05  5.5470927657879856e-05  4.5500186589112489e-05  3.2125808067907477e-05  1.6797800915751724e-05  4.0288207350388634e-06  4.6466980900281304e-06  9.7211074633628838e-06  2.6981493326702399e-22  -9.2722660778488825e-19  2.4660401809590044e-03  6.2919509545540870e-03  2.1024490560051386e-03  8.4028998601310724e-03  2.5752441042420582e-02  5.6412861305675894e-03  1.9475049038012945e-02  3.8578057557946558e-03  1.4175938072322069e-02  3.5996324464902960e-02  2.5557050406834449e-02  1.1503004020999488e-02  4.4951764789912231e-02  4.8416857762393829e-02  2.7829141084766751e-02  1.3517336736438630e-02  5.3615461421607100e-02  1.9632791661596798e-02  1.1097117197209110e-02  8.7601777692344219e-03  2.8374169429165919e-02  3.4903757180461258e-02  3.7973789159362302e-02  1.9326465670671505e-02  6.8250268012566345e-04  2.1445574314095942e-02  3.0058113664273332e-02  4.9384273685151324e-02  2.3646059162676130e-02  4.2754575976698524e-02  5.3563098268571488e-02  1.3693104350282148e-02  3.7485160348469264e-02  2.6213613374678913e-02  2.4510966515179890e-02  1.5539788295444256e-02  5.0805433198387331e-02  8.0566483033155861e-02  8.6604916577314464e-02  1.0098146433078259e-01  5.1538513961931029e-02  9.5587433926031719e-03  2.2495243987226826e-03  2.6497596795654981e-02  2.2182564281029049e-02  8.0531027873972233e-03  6.3080652780185100e-03  1.5062325696535653e-02  1.1855124969129783e-02  1.5171597441862321e-02  5.2300344414153693e-03  4.3738971931384322e-03  2.8765393830333117e-03  1.3592465096083998e-02  2.8031113268938983e-03  8.3659925816269168e-04  1.9294219740692722e-03  1.6259647396737386e-03  1.1293957511649818e-03  1.0905169518141355e-03  9.8141022308284240e-04  9.9735543990126289e-04  1.9681765436583887e-04  4.0426063369067266e-05  1.3316883879199305e-04  2.3205399754239230e-04  4.9837125597046537e-04  6.1999812066137195e-05  5.0428733116324837e-04  1.0248104148080125e-03  8.6018099086866251e-05  1.7172200450468915e-04  7.9021294529512377e-07  1.4177171884130417e-03  2.3798843463326332e-03  1.4359224953299995e-03  5.5715276469189715e-04  9.8860553446039612e-04  9.1975856683645073e-04  8.9556113308610508e-04  5.2498132586012187e-04  2.0466098567555686e-04  7.2543553981303886e-04  1.2686369067084638e-03  1.0427435985272163e-03  7.7610308209507129e-04  3.9544063361649472e-04  4.9573943360893536e-04  4.4745666226523028e-04  1.4074006480890825e-04  1.1685804158147301e-05  1.5502000042799543e-05  6.0488370092153254e-05  7.6701253103149140e-05  5.3882933463713732e-05  3.9908595334734321e-05  1.8932128992293251e-05  4.2088506289614744e-06  8.3918686162090771e-06  1.9541034682558741e-21  4.8148248609680896e-34  1.8958645097813719e-02  7.3252351567644957e-03  3.7020480302918386e-02  1.9723016383889361e-02  2.2259818164937879e-04  1.4042916016372077e-04  1.9696074420809252e-04  2.8343709024780590e-03  4.0840941305896279e-02  6.7134092548339006e-02  4.1968375536427356e-02  4.2651517655196695e-02  3.0233739453935121e-02  1.6026127478430074e-02  3.2077017184149730e-02  8.6799748930790024e-02  1.0002163726815564e-02  5.6237262608897854e-03  3.6896345526771464e-02  6.7417348240519218e-02  6.3089391743856887e-02  9.4160008497330291e-02  9.6448016955502050e-02  6.4985422602226200e-02  2.9857351335713947e-02  4.9290040869049291e-02  5.4909598097980405e-02  2.7352195751921018e-02  2.8260616271130856e-02  3.6235127644557927e-02  3.4540456894608405e-02  1.0587585312420610e-01  7.9611589872936483e-02  1.2393895436425093e-03  3.7868076926372764e-02  1.3164307096889205e-02  4.2860803182856691e-02  8.5491847587610290e-02  1.1187313650014734e-01  9.2150451519003099e-02  7.3152438095977823e-02  3.9844087069318870e-02  2.0397286617183888e-02  2.9588756102811340e-02  4.8423905515791715e-03  6.2532687903202003e-02  7.9858124295100627e-02  4.3282059021608560e-02  3.5976192426229417e-02  2.2400231496317567e-02  2.4698818586872583e-02  1.9023955194682137e-02  1.2977603280117935e-03  7.3000409734693761e-03  1.4625560225369316e-02  3.6162565079134561e-03  1.4366998545921592e-03  5.2233547409524629e-03  1.9354036365901910e-03  1.2348683061306433e-03  4.8080151649346686e-04  4.6502510452101828e-05  1.1435910493750210e-03  2.5688580644545939e-04  3.8921872468493260e-05  2.2250385715595766e-04  4.6036705076597833e-04  4.1916980670961393e-04  3.0428691354546627e-05  1.1613896446151578e-03  7.4714176980603976e-04  7.1399949088606952e-04  2.3359976013180616e-04  6.8714175808387307e-04  2.4709499323686233e-03  2.6000817879719262e-03  9.1495721267785410e-05  1.3335196576910199e-03  1.0808642984198081e-03  8.1131515958975553e-04  7.7922175196945282e-04  2.1488849423555680e-04  4.4640451650449235e-04  1.3137363651263272e-03  1.4751204509911053e-03  8.9205094842136686e-04  5.9385253346794676e-04  3.5243374144299769e-04  6.6072296614503245e-04  3.1889675635681598e-04  2.7000954937924253e-05  1.6307034895882474e-05  2.5475409091485831e-05  8.2885538300881616e-05  6.8725911467692273e-05  5.0160262483376547e-05  3.3438457862605591e-05  1.6870372508758278e-05  7.2894453837671188e-06  -1.0116137627257336e-21  -3.8126466030662882e-19  8.2401552692677061e-03  9.3703015250642396e-03  1.6445144642283065e-02  3.4271682628433717e-05  3.1786451058317465e-03  2.5743891053572856e-02  2.8971430597795233e-02  2.9518676915139333e-02  1.4612572990859522e-02  4.1818101841651833e-03  2.2124665358064625e-02  3.7175880716648124e-02  4.9427904200419100e-02  4.6120778231373290e-02  9.7785423433055435e-02  5.2711770112306598e-04  4.5086468213631284e-03  7.0169908342435014e-02  4.5792102685928197e-02  3.7355609242341270e-02  4.1568709225537785e-02  5.0641626497566865e-03  1.7126060920494436e-02  2.1472288139326882e-02  1.6028441404143202e-02  6.5359483998961975e-03  5.4410486933860698e-02  6.9904531012790719e-02  8.0265070892826015e-02  3.6823499206646980e-02  6.1822336918512251e-02  7.5291589740053691e-02  4.3594301103805765e-02  9.2683954396320462e-02  1.9624510732847732e-02  2.5218291232054001e-02  2.6619211783881606e-02  6.9877685320798619e-02  1.0333294401015326e-01  1.1050696197267562e-01  1.1823453294026369e-01  4.0993666155955427e-02  2.3575277654758784e-02  1.7445124031385095e-03  3.8366869022640575e-02  3.8871332423630889e-02  1.2707714348614133e-02  4.1106794118377206e-02  1.2844587475558903e-03  9.2356656533904430e-03  1.3504633146648523e-02  9.8901334071229666e-04  1.2170153659307804e-02  2.4662990204879910e-03  2.2032767398563635e-02  3.7333211738256392e-03  5.7180655456507195e-03  1.5812033775277003e-03  3.9737458372143463e-03  2.7437206029438635e-03  2.2518599624524872e-03  1.7070996486695292e-03  1.4799801117484598e-03  3.2935106002349911e-04  2.4895870257677315e-04  1.3721728785867418e-04  3.0520840785860741e-04  7.0593663756899293e-04  2.8481414441218971e-05  5.2370250007269703e-04  1.5570580207383193e-03  2.4222602704138195e-04  5.7006963115091352e-04  3.2513660861736615e-04  1.8037827596122907e-03  3.2120766121291836e-03  1.6437630514275889e-03  1.5967861944748256e-03  1.5613978357498707e-03  8.8795103675781987e-04  7.7634425356318140e-04  4.7258148976572669e-04  4.1770391260889764e-05  9.6430677300742495e-04  1.7528042759244861e-03  1.2603698449572950e-03  7.4177896366537928e-04  3.1000070218330271e-04  5.2981877802698240e-04  6.2528800537110178e-04  1.2493844604157344e-04  4.3476003521308782e-05  1.4572830035480041e-05  5.1460750737975724e-05  8.5478007711257696e-05  5.5308564037558690e-05  4.3983169503475555e-05  2.2740190288847490e-05  9.3106248382674057e-06  -7.2922854508733343e-22  -1.2007345845725060e-18  3.6709057228659567e-02  3.2445435316420822e-02  4.0212132729996698e-03  4.1889035850010851e-02  4.0906928698036638e-02  4.6985486073133952e-03  1.4594200137909007e-02  9.3096536213468934e-03  2.1584246453266061e-02  3.9310549251063830e-02  7.9121057540565531e-02  7.6749836381555081e-02  2.0556841517836905e-02  3.3114068843418304e-02  1.5093505329102081e-02  6.6705322006667131e-03  1.0518699698421817e-01  3.6880129409534682e-02  2.6674939915784891e-02  2.0171481336625691e-02  6.7252329520019777e-02  6.8862554125262654e-02  1.1344092438812997e-01  1.3198030691679472e-01  1.0104813075133205e-01  4.7645705664666381e-02  4.9483476128264411e-02  5.3056893223939798e-02  1.8389647821472722e-02  6.0687412174098593e-02  6.4276227915682896e-02  5.8236873958063311e-02  1.5337190896513628e-01  8.6254119676241914e-02  2.1338574626842324e-02  4.7565672523043341e-02  1.5430320969716724e-02  6.2739338483679075e-02  1.0655327334637248e-01  1.2532256698721159e-01  9.6933453026592703e-02  8.9381464707609368e-02  3.3975736087105433e-02  4.8929507292878857e-02  2.9923237633783857e-02  4.3345153827423202e-03  8.7792858066115781e-02  9.5639516878669506e-02  4.7257574594171604e-02  4.5158996576435614e-02  3.5918545836475600e-02  3.5366772276436045e-02  2.5961139973797231e-02  2.8019990341054042e-03  7.8709604944305466e-03  2.2590179802357141e-02  7.0612289862328108e-03  4.5338212012461868e-03  6.4015241382660753e-03  1.5142660721017729e-03  5.7248011151263864e-04  6.3305218658173752e-05  5.7414817309245564e-04  1.6985433029419188e-03  4.2500752236579816e-04  6.4301878474073534e-05  2.3889102414522824e-04  5.3650002044706069e-04  5.8806975702910085e-04  1.2118273136561123e-04  1.3751936279617328e-03  1.1125467711477464e-03  1.1121436491992015e-03  1.9472800605825153e-04  4.4480746200678279e-04  2.9744821061878889e-03  3.1986248885555063e-03  3.9313926485899897e-04  2.2616903197182404e-03  1.3354140765748257e-03  6.6532900067548916e-04  6.9833174817064312e-04  8.1287955793582053e-05  3.2925125294459270e-04  1.6003953194162436e-03  1.7929545657537082e-03  9.0808735652210071e-04  5.1041512854505141e-04  2.3761864614973768e-04  7.3812169864343553e-04  4.0168258701612846e-04  2.9474556971547631e-05  5.4445381436289399e-05  1.7691493817627405e-05  8.0806934648416481e-05  7.0786823067439517e-05  4.7541064251816518e-05  3.3982971240648109e-05  1.5078135794946738e-05  -8.3700467639873022e-22  -1.4320998619139701e-19  2.3172612046850460e-02  4.5165926977213380e-03  7.2463770078729046e-03  3.3775415043872659e-02  1.9711385269564403e-02  2.7631717695723625e-03  1.8218076342159363e-02  3.5265971299443033e-02  2.7259459971831445e-02  1.2188671304597058e-02  1.5877370882209696e-02  8.5949473844247268e-03  7.3101322062116350e-03  6.9293898525973827e-02  2.1988227110715446e-02  1.0281273729735331e-01  1.9172268246102391e-02  2.1141867069682810e-02  5.4377935186210299e-02  4.3771510648221379e-02  4.1519543740741578e-02  6.4269334916698645e-02  1.8271746872098746e-02  1.2297451507236998e-02  2.1398605349040367e-02  1.1889493952423951e-02  1.3892721589122137e-02  7.2027953296723499e-02  9.6276476286858301e-02  8.9362937130890732e-02  2.3914891374050045e-02  7.8854507332752358e-02  7.2737137827582746e-02  7.7096906349687203e-02  1.3016736940260126e-01  1.3603296087627849e-02  2.8482970504529800e-02  2.5700147739161197e-02  8.4404842075774228e-02  1.2344081454704767e-01  1.2830812522506035e-01  1.1869760719993794e-01  3.7129862858302949e-02  2.6888668796831071e-02  1.6730704625309303e-02  4.6309734181261344e-02  4.8267287328488916e-02  3.6711315918992862e-02  7.3496305829862288e-02  2.1616629201516750e-02  3.5604374921753418e-03  1.7681931766948935e-03  9.6288890257652700e-03  2.2106743636317875e-02  1.1029930687855879e-03  2.5794359022894488e-02  7.7111254736182870e-03  1.0862864447790216e-02  3.4966037104916916e-04  5.8359801418423818e-03  3.5474140425285549e-03  2.4977343383985459e-03  1.8605203840309054e-03  1.4192860493879070e-03  5.7230500339907513e-04  4.9029307933930481e-04  7.4588649451109832e-05  3.4656451348678298e-04  7.9649305802343155e-04  1.0314961503908170e-04  4.1643320260205196e-04  1.9133710471785814e-03  1.3162110528325624e-04  9.7441197638422706e-04  5.5601143685943104e-04  1.8204530225298921e-03  3.8096784406196952e-03  1.9344521243167359e-03  2.3098313969451031e-03  2.2174832072276757e-03  8.8866392065424591e-04  5.7718858878990742e-04  4.0077862241779245e-04  1.2195537594201554e-04  1.0225210360621101e-03  2.0821005632297297e-03  1.4308037081366091e-03  6.5381768085705867e-04  2.1180493166092645e-04  4.6681100003190121e-04  7.3026707107062860e-04  1.4152453061438416e-04  1.0373900922632491e-04  3.0607892851064011e-05  4.3090090815190846e-05  8.7227953545994047e-05  5.4813678427695931e-05  4.0710937497268904e-05  1.9855252891008663e-05  -1.1021879459676503e-21  -4.8780835077906665e-19  2.5798417617892509e-03  1.4794276553014815e-02  8.0508162086798205e-03  2.6298701496342784e-02  2.7392332126917402e-02  4.5788202414390043e-02  2.5028587013612375e-03  2.8895784496480521e-02  2.0515793478149035e-02  3.1299461051368133e-02  2.9843251320176574e-02  6.6716700633821902e-02  6.5540326066157256e-02  1.0803122799099361e-02  7.3145761036574244e-03  2.1358001371440810e-02  2.4552946543767908e-02  9.1012015543359970e-02  3.0608042604959973e-02  2.7379667904441983e-02  4.4370178937025587e-03  5.1045554754300969e-02  4.5216355297853651e-02  9.5531397967804840e-02  1.1723441410219594e-01  8.9041810328531174e-02  4.2488655374563263e-02  4.0018815880154032e-02  3.3790217902868069e-02  1.7917993376822237e-03  8.1250545298630503e-02  8.2439965583032390e-02  7.0320213763514910e-02  1.7653699221560989e-01  6.5847449275585251e-02  6.3120707415723190e-02  4.8631539357150227e-02  1.5190250024875540e-02  7.6112583553685179e-02  1.2302196754115825e-01  1.3615896638364208e-01  1.0942872286735607e-01  9.8688861550210269e-02  2.1549637991740780e-02  6.5816755138868768e-02  3.3935258140137405e-02  4.2797827042356943e-03  1.0034229291193085e-01  8.4741892281975983e-02  2.1141681520875314e-02  3.0615101234570060e-02  3.1252760655725145e-02  3.2452388554200740e-02  2.2127086045521337e-02  9.5606775923393200e-03  9.6547867316331918e-03  2.8562009616212261e-02  6.9517239151604569e-03  9.0598159855213595e-03  6.2383605847332654e-03  4.4234436357558895e-06  4.3814093540902758e-04  6.1879825065436331e-04  9.6661801731397245e-04  1.9271367713099943e-03  4.8958965282256198e-04  2.2474377201834290e-04  1.9952676910609435e-04  6.1151651594951357e-04  6.9817204135101934e-04  1.2711903741510950e-04  1.4000659889806199e-03  1.4724796022049357e-03  1.2119139506542329e-03  6.0157362388288533e-05  1.4150594653070063e-04  3.2419882163746243e-03  3.7521911563273423e-03  4.0374133264466181e-04  3.1518747784109028e-03  1.7382000657281890e-03  5.5194414427880555e-04  5.0629876862528166e-04  2.2370044024810440e-05  1.7843465653510779e-04  1.8080071542728199e-03  2.0947293165507136e-03  9.8626736566868921e-04  3.9305688060765274e-04  1.5382044656025981e-04  7.2683882685632001e-04  4.9996882271615827e-04  4.6510325570796322e-05  9.8037515658763732e-05  1.8600990554246071e-05  7.1128833491315707e-05  6.9239192951324764e-05  4.2964953565093895e-05  2.6881153005478461e-05  -3.7305093743942468e-21  -2.2081421681700565e-19  9.1753130485469452e-03  8.9534022747778923e-03  9.5101677931167753e-03  1.2715236516259514e-02  1.6300769877704475e-02  3.7478163196382086e-02  6.3952190586082447e-03  8.1475970268218012e-03  2.8094209467733843e-02  2.5512651487664684e-02  5.4311923158570537e-03  6.2397693813440666e-03  1.2894530230590364e-02  1.7541554804468559e-02  5.7254015448601592e-02  1.4438847986987687e-02