<?xml version="1.0"?>
<VTKFile type="UnstructuredGrid"  version="0.1"  >
<UnstructuredGrid>
<Piece  NumberOfPoints="676" NumberOfCells="1250">
<Points>
<DataArray  type="Float64"  NumberOfComponents="3"  format="ascii">0 0 0  0.04 0 0  0.08 0 0  0.12 0 0  0.16 0 0  0.2 0 0  0.24 0 0  0.28 0 0  0.32 0 0  0.36 0 0  0.4 0 0  0.44 0 0  0.48 0 0  0.52 0 0  0.5600000000000001 0 0  0.6 0 0  0.64 0 0  0.68 0 0  0.72 0 0  0.76 0 0  0.8 0 0  0.84 0 0  0.88 0 0  0.92 0 0  0.96 0 0  1 0 0  0 0.04 0  0.04 0.04 0  0.08 0.04 0  0.12 0.04 0  0.16 0.04 0  0.2 0.04 0  0.24 0.04 0  0.28 0.04 0  0.32 0.04 0  0.36 0.04 0  0.4 0.04 0  0.44 0.04 0  0.48 0.04 0  0.52 0.04 0  0.5600000000000001 0.04 0  0.6 0.04 0  0.64 0.04 0  0.68 0.04 0  0.72 0.04 0  0.76 0.04 0  0.8 0.04 0  0.84 0.04 0  0.88 0.04 0  0.92 0.04 0  0.96 0.04 0  1 0.04 0  0 0.08 0  0.04 0.08 0  0.08 0.08 0  0.12 0.08 0  0.16 0.08 0  0.2 0.08 0  0.24 0.08 0  0.28 0.08 0  0.32 0.08 0  0.36 0.08 0  0.4 0.08 0  0.44 0.08 0  0.48 0.08 0  0.52 0.08 0  0.5600000000000001 0.08 0  0.6 0.08 0  0.64 0.08 0  0.68 0.08 0  0.72 0.08 0  0.76 0.08 0  0.8 0.08 0  0.84 0.08 0  0.88 0.08 0  0.92 0.08 0  0.96 0.08 0  1 0.08 0  0 0.12 0  0.04 0.12 0  0.08 0.12 0  0.12 0.12 0  0.16 0.12 0  0.2 0.12 0  0.24 0.12 0  0.28 0.12 0  0.32 0.12 0  0.36 0.12 0  0.4 0.12 0  0.44 0.12 0  0.48 0.12 0  0.52 0.12 0  0.5600000000000001 0.12 0  0.6 0.12 0  0.64 0.12 0  0.68 0.12 0  0.72 0.12 0  0.76 0.12 0  0.8 0.12 0  0.84 0.12 0  0.88 0.12 0  0.92 0.12 0  0.96 0.12 0  1 0.12 0  0 0.16 0  0.04 0.16 0  0.08 0.16 0  0.12 0.16 0  0.16 0.16 0  0.2 0.16 0  0.24 0.16 0  0.28 0.16 0  0.32 0.16 0  0.36 0.16 0  0.4 0.16 0  0.44 0.16 0  0.48 0.16 0  0.52 0.16 0  0.5600000000000001 0.16 0  0.6 0.16 0  0.64 0.16 0  0.68 0.16 0  0.72 0.16 0  0.76 0.16 0  0.8 0.16 0  0.84 0.16 0  0.88 0.16 0  0.92 0.16 0  0.96 0.16 0  1 0.16 0  0 0.2 0  0.04 0.2 0  0.08 0.2 0  0.12 0.2 0  0.16 0.2 0  0.2 0.2 0  0.24 0.2 0  0.28 0.2 0  0.32 0.2 0  0.36 0.2 0  0.4 0.2 0  0.44 0.2 0  0.48 0.2 0  0.52 0.2 0  0.5600000000000001 0.2 0  0.6 0.2 0  0.64 0.2 0  0.68 0.2 0  0.72 0.2 0  0.76 0.2 0  0.8 0.2 0  0.84 0.2 0  0.88 0.2 0  0.92 0.2 0  0.96 0.2 0  1 0.2 0  0 0.24 0  0.04 0.24 0  0.08 0.24 0  0.12 0.24 0  0.16 0.24 0  0.2 0.24 0  0.24 0.24 0  0.28 0.24 0  0.32 0.24 0  0.36 0.24 0  0.4 0.24 0  0.44 0.24 0  0.48 0.24 0  0.52 0.24 0  0.5600000000000001 0.24 0  0.6 0.24 0  0.64 0.24 0  0.68 0.24 0  0.72 0.24 0  0.76 0.24 0  0.8 0.24 0  0.84 0.24 0  0.88 0.24 0  0.92 0.24 0  0.96 0.24 0  1 0.24 0  0 0.28 0  0.04 0.28 0  0.08 0.28 0  0.12 0.28 0  0.16 0.28 0  0.2 0.28 0  0.24 0.28 0  0.28 0.28 0  0.32 0.28 0  0.36 0.28 0  0.4 0.28 0  0.44 0.28 0  0.48 0.28 0  0.52 0.28 0  0.5600000000000001 0.28 0  0.6 0.28 0  0.64 0.28 0  0.68 0.28 0  0.72 0.28 0  0.76 0.28 0  0.8 0.28 0  0.84 0.28 0  0.88 0.28 0  0.92 0.28 0  0.96 0.28 0  1 0.28 0  0 0.32 0  0.04 0.32 0  0.08 0.32 0  0.12 0.32 0  0.16 0.32 0  0.2 0.32 0  0.24 0.32 0  0.28 0.32 0  0.32 0.32 0  0.36 0.32 0  0.4 0.32 0  0.44 0.32 0  0.48 0.32 0  0.52 0.32 0  0.5600000000000001 0.32 0  0.6 0.32 0  0.64 0.32 0  0.68 0.32 0  0.72 0.32 0  0.76 0.32 0  0.8 0.32 0  0.84 0.32 0  0.88 0.32 0  0.92 0.32 0  0.96 0.32 0  1 0.32 0  0 0.36 0  0.04 0.36 0  0.08 0.36 0  0.12 0.36 0  0.16 0.36 0  0.2 0.36 0  0.24 0.36 0  0.28 0.36 0  0.32 0.36 0  0.36 0.36 0  0.4 0.36 0  0.44 0.36 0  0.48 0.36 0  0.52 0.36 0  0.5600000000000001 0.36 0  0.6 0.36 0  0.64 0.36 0  0.68 0.36 0  0.72 0.36 0  0.76 0.36 0  0.8 0.36 0  0.84 0.36 0  0.88 0.36 0  0.92 0.36 0  0.96 0.36 0  1 0.36 0  0 0.4 0  0.04 0.4 0  0.08 0.4 0  0.12 0.4 0  0.16 0.4 0  0.2 0.4 0  0.24 0.4 0  0.28 0.4 0  0.32 0.4 0  0.36 0.4 0  0.4 0.4 0  0.44 0.4 0  0.48 0.4 0  0.52 0.4 0  0.5600000000000001 0.4 0  0.6 0.4 0  0.64 0.4 0  0.68 0.4 0  0.72 0.4 0  0.76 0.4 0  0.8 0.4 0  0.84 0.4 0  0.88 0.4 0  0.92 0.4 0  0.96 0.4 0  1 0.4 0  0 0.44 0  0.04 0.44 0  0.08 0.44 0  0.12 0.44 0  0.16 0.44 0  0.2 0.44 0  0.24 0.44 0  0.28 0.44 0  0.32 0.44 0  0.36 0.44 0  0.4 0.44 0  0.44 0.44 0  0.48 0.44 0  0.52 0.44 0  0.5600000000000001 0.44 0  0.6 0.44 0  0.64 0.44 0  0.68 0.44 0  0.72 0.44 0  0.76 0.44 0  0.8 0.44 0  0.84 0.44 0  0.88 0.44 0  0.92 0.44 0  0.96 0.44 0  1 0.44 0  0 0.48 0  0.04 0.48 0  0.08 0.48 0  0.12 0.48 0  0.16 0.48 0  0.2 0.48 0  0.24 0.48 0  0.28 0.48 0  0.32 0.48 0  0.36 0.48 0  0.4 0.48 0  0.44 0.48 0  0.48 0.48 0  0.52 0.48 0  0.5600000000000001 0.48 0  0.6 0.48 0  0.64 0.48 0  0.68 0.48 0  0.72 0.48 0  0.76 0.48 0  0.8 0.48 0  0.84 0.48 0  0.88 0.48 0  0.92 0.48 0  0.96 0.48 0  1 0.48 0  0 0.52 0  0.04 0.52 0  0.08 0.52 0  0.12 0.52 0  0.16 0.52 0  0.2 0.52 0  0.24 0.52 0  0.28 0.52 0  0.32 0.52 0  0.36 0.52 0  0.4 0.52 0  0.44 0.52 0  0.48 0.52 0  0.52 0.52 0  0.5600000000000001 0.52 0  0.6 0.52 0  0.64 0.52 0  0.68 0.52 0  0.72 0.52 0  0.76 0.52 0  0.8 0.52 0  0.84 0.52 0  0.88 0.52 0  0.92 0.52 0  0.96 0.52 0  1 0.52 0  0 0.5600000000000001 0  0.04 0.5600000000000001 0  0.08 0.5600000000000001 0  0.12 0.5600000000000001 0  0.16 0.5600000000000001 0  0.2 0.5600000000000001 0  0.24 0.5600000000000001 0  0.28 0.5600000000000001 0  0.32 0.5600000000000001 0  0.36 0.5600000000000001 0  0.4 0.5600000000000001 0  0.44 0.5600000000000001 0  0.48 0.5600000000000001 0  0.52 0.5600000000000001 0  0.5600000000000001 0.5600000000000001 0  0.6 0.5600000000000001 0  0.64 0.5600000000000001 0  0.68 0.5600000000000001 0  0.72 0.5600000000000001 0  0.76 0.5600000000000001 0  0.8 0.5600000000000001 0  0.84 0.5600000000000001 0  0.88 0.5600000000000001 0  0.92 0.5600000000000001 0  0.96 0.5600000000000001 0  1 0.5600000000000001 0  0 0.6 0  0.04 0.6 0  0.08 0.6 0  0.12 0.6 0  0.16 0.6 0  0.2 0.6 0  0.24 0.6 0  0.28 0.6 0  0.32 0.6 0  0.36 0.6 0  0.4 0.6 0  0.44 0.6 0  0.48 0.6 0  0.52 0.6 0  0.5600000000000001 0.6 0  0.6 0.6 0  0.64 0.6 0  0.68 0.6 0  0.72 0.6 0  0.76 0.6 0  0.8 0.6 0  0.84 0.6 0  0.88 0.6 0  0.92 0.6 0  0.96 0.6 0  1 0.6 0  0 0.64 0  0.04 0.64 0  0.08 0.64 0  0.12 0.64 0  0.16 0.64 0  0.2 0.64 0  0.24 0.64 0  0.28 0.64 0  0.32 0.64 0  0.36 0.64 0  0.4 0.64 0  0.44 0.64 0  0.48 0.64 0  0.52 0.64 0  0.5600000000000001 0.64 0  0.6 0.64 0  0.64 0.64 0  0.68 0.64 0  0.72 0.64 0  0.76 0.64 0  0.8 0.64 0  0.84 0.64 0  0.88 0.64 0  0.92 0.64 0  0.96 0.64 0  1 0.64 0  0 0.68 0  0.04 0.68 0  0.08 0.68 0  0.12 0.68 0  0.16 0.68 0  0.2 0.68 0  0.24 0.68 0  0.28 0.68 0  0.32 0.68 0  0.36 0.68 0  0.4 0.68 0  0.44 0.68 0  0.48 0.68 0  0.52 0.68 0  0.5600000000000001 0.68 0  0.6 0.68 0  0.64 0.68 0  0.68 0.68 0  0.72 0.68 0  0.76 0.68 0  0.8 0.68 0  0.84 0.68 0  0.88 0.68 0  0.92 0.68 0  0.96 0.68 0  1 0.68 0  0 0.72 0  0.04 0.72 0  0.08 0.72 0  0.12 0.72 0  0.16 0.72 0  0.2 0.72 0  0.24 0.72 0  0.28 0.72 0  0.32 0.72 0  0.36 0.72 0  0.4 0.72 0  0.44 0.72 0  0.48 0.72 0  0.52 0.72 0  0.5600000000000001 0.72 0  0.6 0.72 0  0.64 0.72 0  0.68 0.72 0  0.72 0.72 0  0.76 0.72 0  0.8 0.72 0  0.84 0.72 0  0.88 0.72 0  0.92 0.72 0  0.96 0.72 0  1 0.72 0  0 0.76 0  0.04 0.76 0  0.08 0.76 0  0.12 0.76 0  0.16 0.76 0  0.2 0.76 0  0.24 0.76 0  0.28 0.76 0  0.32 0.76 0  0.36 0.76 0  0.4 0.76 0  0.44 0.76 0  0.48 0.76 0  0.52 0.76 0  0.5600000000000001 0.76 0  0.6 0.76 0  0.64 0.76 0  0.68 0.76 0  0.72 0.76 0  0.76 0.76 0  0.8 0.76 0  0.84 0.76 0  0.88 0.76 0  0.92 0.76 0  0.96 0.76 0  1 0.76 0  0 0.8 0  0.04 0.8 0  0.08 0.8 0  0.12 0.8 0  0.16 0.8 0  0.2 0.8 0  0.24 0.8 0  0.28 0.8 0  0.32 0.8 0  0.36 0.8 0  0.4 0.8 0  0.44 0.8 0  0.48 0.8 0  0.52 0.8 0  0.5600000000000001 0.8 0  0.6 0.8 0  0.64 0.8 0  0.68 0.8 0  0.72 0.8 0  0.76 0.8 0  0.8 0.8 0  0.84 0.8 0  0.88 0.8 0  0.92 0.8 0  0.96 0.8 0  1 0.8 0  0 0.84 0  0.04 0.84 0  0.08 0.84 0  0.12 0.84 0  0.16 0.84 0  0.2 0.84 0  0.24 0.84 0  0.28 0.84 0  0.32 0.84 0  0.36 0.84 0  0.4 0.84 0  0.44 0.84 0  0.48 0.84 0  0.52 0.84 0  0.5600000000000001 0.84 0  0.6 0.84 0  0.64 0.84 0  0.68 0.84 0  0.72 0.84 0  0.76 0.84 0  0.8 0.84 0  0.84 0.84 0  0.88 0.84 0  0.92 0.84 0  0.96 0.84 0  1 0.84 0  0 0.88 0  0.04 0.88 0  0.08 0.88 0  0.12 0.88 0  0.16 0.88 0  0.2 0.88 0  0.24 0.88 0  0.28 0.88 0  0.32 0.88 0  0.36 0.88 0  0.4 0.88 0  0.44 0.88 0  0.48 0.88 0  0.52 0.88 0  0.5600000000000001 0.88 0  0.6 0.88 0  0.64 0.88 0  0.68 0.88 0  0.72 0.88 0  0.76 0.88 0  0.8 0.88 0  0.84 0.88 0  0.88 0.88 0  0.92 0.88 0  0.96 0.88 0  1 0.88 0  0 0.92 0  0.04 0.92 0  0.08 0.92 0  0.12 0.92 0  0.16 0.92 0  0.2 0.92 0  0.24 0.92 0  0.28 0.92 0  0.32 0.92 0  0.36 0.92 0  0.4 0.92 0  0.44 0.92 0  0.48 0.92 0  0.52 0.92 0  0.5600000000000001 0.92 0  0.6 0.92 0  0.64 0.92 0  0.68 0.92 0  0.72 0.92 0  0.76 0.92 0  0.8 0.92 0  0.84 0.92 0  0.88 0.92 0  0.92 0.92 0  0.96 0.92 0  1 0.92 0  0 0.96 0  0.04 0.96 0  0.08 0.96 0  0.12 0.96 0  0.16 0.96 0  0.2 0.96 0  0.24 0.96 0  0.28 0.96 0  0.32 0.96 0  0.36 0.96 0  0.4 0.96 0  0.44 0.96 0  0.48 0.96 0  0.52 0.96 0  0.5600000000000001 0.96 0  0.6 0.96 0  0.64 0.96 0  0.68 0.96 0  0.72 0.96 0  0.76 0.96 0  0.8 0.96 0  0.84 0.96 0  0.88 0.96 0  0.92 0.96 0  0.96 0.96 0  1 0.96 0  0 1 0  0.04 1 0  0.08 1 0  0.12 1 0  0.16 1 0  0.2 1 0  0.24 1 0  0.28 1 0  0.32 1 0  0.36 1 0  0.4 1 0  0.44 1 0  0.48 1 0  0.52 1 0  0.5600000000000001 1 0  0.6 1 0  0.64 1 0  0.68 1 0  0.72 1 0  0.76 1 0  0.8 1 0  0.84 1 0  0.88 1 0  0.92 1 0  0.96 1 0  1 1 0  </DataArray>
</Points>
<Cells>
[...]
<PointData  Scalars="Indicator Function"> 
<DataArray  type="Float64"  Name="Indicator Function"  format="ascii">-2.6690228773035651e-20  -8.5506412734157352e-19  1.6390595027042094e-17  1.5778064082729168e-17  -5.3065092387974579e-19  -1.2366116690036910e-19  -7.1649406397337176e-20  -1.0539323493458100e-18  -9.0659262723878482e-18  -5.3013393628184312e-19  4.7627626219610815e-17  8.3241615409349541e-18  2.4074124304840448e-35  -4.3333423748712807e-34  2.6119951991978204e-17  3.0092655381050560e-36  -6.7708474607363760e-36  4.6222318665293660e-33  0.0000000000000000e+00  -2.7083389842945504e-35  1.5703109484606637e-19  -5.0725069022911482e-21  -8.6903704594397083e-21  7.2680120125876683e-19  -4.2979198317249326e-22  -1.5046327690525280e-36  -6.7838932680716392e-21  4.8080841742670637e-04  3.2991091528447904e-03  1.4630236856605063e-02  2.7282831723306027e-04  4.4553630813816223e-03  2.5814419196187603e-03  1.2607290656403007e-02  7.8389148942237721e-03  1.5323367861608183e-02  1.8883600607773215e-03  1.4698680764578136e-02  7.6009741980602582e-03  2.0239903326753372e-03  1.4665398849556834e-03  1.3792717424386512e-03  8.3703280824007462e-04  6.1339426571370545e-04  3.9941466037994724e-04  8.0514600068877802e-05  1.3165495705118804e-04  1.2883259400934120e-04  1.5779867716697927e-04  7.7652458067886988e-05  1.5484888122099673e-05  4.2979198317248912e-22  -2.6321926856233661e-19  1.2220775677683257e-04  5.0203246596275375e-09  4.4104166638142235e-03  2.3311515806810377e-02  4.8616623572432724e-03  2.5630318400779267e-02  2.4258452268803361e-02  4.6041740052976142e-02  1.6537577681258846e-03  2.2238881243608500e-02  1.0470567238747232e-02  3.0099545479738980e-02  1.2380091226251664e-04  4.2323552759220883e-03  4.1118366059666881e-03  2.7992908001789568e-03  1.8216015736035361e-03  1.0529398879019060e-03  5.9203888315727759e-04  2.9397744681330002e-04  2.6332950592763239e-04  3.6386791203603050e-04  3.8151102924134856e-04  2.9991544520378994e-05  -2.5232338784883769e-20  -9.3462283835009528e-20  4.7417367992562956e-03  6.4122476309008370e-03  7.1184104301832106e-03  3.8924430205849896e-02  3.8664605442353234e-03  8.6230575580189921e-03  3.9192525894317392e-04  2.6640863209448654e-02  2.5047633185031705e-02  4.1741736105380380e-02  9.4541974951808071e-03  4.4799706309262964e-02  2.6426706758085304e-02  9.1605717640338511e-03  9.2867345518476349e-03  7.6525444736622976e-03  4.2378180607965353e-03  2.7141340824375572e-03  1.5199429970002194e-03  7.2858843241354644e-04  3.9545359708388839e-04  5.1202586617041170e-04  5.3165288470995739e-04  3.6213044102285707e-04  -5.0255694192654770e-20  -4.5495172296184712e-19  3.8013956974206242e-03  3.4978951356725387e-03  2.3793588554639673e-03  1.0223694184506304e-04  5.5518932292998771e-02  5.5541004431543858e-03  6.3027534607322938e-02  4.5887946229498620e-02  1.1659027349155494e-01  1.8718759637539280e-02  6.8339200016437451e-02  4.5985022506723407e-02  9.4334987628864705e-02  2.5314918661184290e-02  2.1396528441285666e-02  1.8169871501922976e-02  1.1812733355302104e-02  6.2678198713618976e-03  3.2625079709212219e-03  1.5685099442751169e-03  7.5200942186254001e-04  3.0778369805503088e-04  5.8436666623131752e-04  5.2748921510522976e-04  1.3176690116653745e-19  -1.2037062152420224e-34  9.5555121639959006e-03  8.0887460579082658e-03  5.0032502820144100e-03  6.1426349282207825e-03  7.6358941813453582e-02  2.5058449780644559e-02  1.9486434213371324e-02  1.7570600461234161e-02  8.8986889933577298e-02  1.0145939074380318e-01  1.7501228246232994e-01  9.7075591427141630e-02  1.5517449956554302e-01  1.0805583147131556e-01  5.9603696526400386e-02  4.1519436788902186e-02  2.7344549194406671e-02  1.3787716462440388e-02  6.7834842552447474e-03  3.0373657355294427e-03  1.1691358797894659e-03  3.5399412631726166e-04  3.0476842393604438e-04  4.1502941277920516e-04  -2.3038760498206569e-20  -3.6111186457260672e-35  1.4061762476276137e-02  8.9131293578682842e-03  7.7855041651530088e-03  5.7926489374488434e-03  2.9934226121658716e-02  1.6666955586042964e-01  2.1728623519689280e-02  1.8629614116078153e-01  1.5314188897188585e-02  3.4933415439596260e-01  1.1956256828841350e-01  2.0575688103127857e-01  2.1568026232224852e-01  2.6640463722321756e-01  1.1576785130665510e-01  6.2175601026475492e-02  4.4038460357635180e-02  2.8585941390779124e-02  1.4558738374682082e-02  6.5952302142929485e-03  2.3883930563345910e-03  8.9638738661757412e-04  1.6217671470860603e-04  1.3462117115717716e-04  -7.4729761910350845e-21  5.0104271209449183e-34  9.6828274979071718e-03  3.4274984929451020e-03  2.0406482218798257e-02  3.5882787417485539e-02  2.8472285120410841e-02  1.3225549174004406e-01  2.7587952285466059e-04  1.6136141213769181e-01  1.1867528708958126e-01  7.0107196824957738e-02  3.2198545825196621e-02  3.8296276209180874e-01  9.9051236019651566e-03  3.6689231036046027e-01  4.6706229335605859e-01  2.7231774351241223e-03  4.8250166997190078e-02  5.2785931173922412e-02  3.0288202332681657e-02  1.3889893902220441e-02  5.6813335664834584e-03  1.8803911647513501e-03  7.6866548703084802e-04  1.4930083144437892e-04  1.7672249876031805e-20  -1.4444474582904269e-34  1.8065659662787774e-02  1.6583870631578332e-02  5.0279726626148704e-03  1.4849698035975602e-02  5.3047386657548525e-02  8.6630522116993555e-02  1.3467724105480139e-01  1.9454156038106998e-01  2.8767442363010676e-01  1.0540582718378755e-01  1.8453338773742595e-01  3.2194223794379410e-02  1.1919158153409391e-01  1.4260395669391697e-02  8.1220921834013735e-02  7.1652747557065619e-02  2.5346486768760969e-02  7.3841706223533241e-02  5.0096451656884998e-02  2.6306735595692968e-02  1.1109170520142438e-02  3.8875370768309790e-03  1.5294669674018049e-03  5.4066864045258193e-04  -3.6111186457260672e-35  -1.1504725414844129e-19  2.7291104850694402e-03  1.3120719748057709e-02  3.7708379241588638e-02  8.1270711899791223e-02  7.0557885155331485e-02  4.1083678400007415e-02  2.0846287167847327e-01  4.2048559119088924e-01  8.2605834734412950e-02  4.4556834431507875e-02  1.1874303349471597e-02  1.0762090964174374e-01  9.6956635473387939e-02  5.4689273772277308e-02  5.1885590566955173e-02  1.1057165169033877e-01  7.0530119276245459e-02  3.2498055759240051e-02  6.2078421028905338e-02  3.9359002765756629e-02  1.8873428743582141e-02  7.2365752595192883e-03  2.1489315231784478e-03  8.6728285880686886e-04  2.4074124304840448e-35  2.5277830520082471e-34  2.8920388826674396e-03  4.7844666235310343e-03  3.0093400679802643e-03  2.7577800317337663e-02  1.1554938907458566e-01  3.6297796209543698e-01  1.1451033672873730e-01  1.4844875233165281e-01  4.3843486704410899e-02  5.4322657054677918e-02  2.2316000859115608e-02  8.0598253361198510e-02  7.3454362971185891e-02  9.1978581371217491e-02  4.8729413609708387e-02  1.3162162438984046e-01  1.1269771717956602e-01  6.8533949708065686e-02  5.6492081999781514e-02  4.1883084389526259e-02  2.5255162832090457e-02  1.1423562871429758e-02  3.7657173597307287e-03  1.0839605201320420e-03  3.4907480242018650e-34  -5.4166779685891008e-35  3.4094386162340246e-03  5.7443218832882025e-04  2.3436065425355524e-02  4.7146647475595153e-02  9.8699133704612474e-02  7.2775734399301184e-02  4.6402237646745448e-01  5.9222953486092259e-02  1.5744252624188933e-02  2.4743096328927953e-02  2.0007786540047288e-02  1.5034051706686587e-02  1.0115327431799336e-01  9.2913716232639804e-02  2.9525189745528528e-02  7.7911470236828748e-02  2.4683592475693325e-01  2.6453962378072271e-01  3.6412733514932835e-02  2.1376075702663148e-02  2.3260161761597509e-02  1.4489271390605137e-02  6.0064286525059194e-03  1.6780675654470359e-03  -7.4629785345005389e-34  -2.6655302026273828e-19  1.1081456257962983e-02  8.8187247813211068e-03  7.3492098062768896e-03  3.3076709306139075e-02  1.2268293620008622e-01  1.7195949536956967e-01  3.0031469461544606e-02  1.5119206938339175e-01  6.0425836037026219e-02  1.3233873024443000e-02  4.0049382547190704e-02  1.0106916547115262e-02  8.0700120115319893e-02  7.4924904828634467e-02  1.1539366864741517e-01  5.3214795351907304e-02  1.6320688391219781e-01  1.9136398187505302e-01  4.5695870607306260e-01  3.0054034322946198e-02  8.9056424304616837e-03  1.3532587522651946e-02  8.1285485631098792e-03  2.4657999044196805e-03  1.4444474582904269e-34  -9.0277966143151681e-35  4.8017923309189945e-03  1.4533477017603937e-02  2.9701043532850725e-02  6.1994334229282730e-02  9.1543060975052354e-02  1.3636009447919992e-01  2.4676531602448712e-01  7.7627750831527939e-02  9.3611064361530646e-02  3.5820228540024916e-02  7.9807563714367931e-03  1.6041456682001961e-02  2.0144305214122353e-02  1.1147551860536244e-01  1.0110070542672954e-01  5.0573366443001835e-03  2.1651439752324173e-01  4.7148969406057473e-01  2.6945920630380826e-02  6.4249237368121034e-02  3.2465941879827050e-02  5.2904831052019421e-03  8.1731963941288188e-03  3.8100439594162699e-03  0.0000000000000000e+00  -1.3088103674078923e-20  1.2667434102423276e-03  4.7947430393601477e-03  1.1394745775537354e-02  4.2803355339984119e-02  1.2786850991361554e-01  2.0320286617619954e-01  1.2372275085191248e-01  1.0871691479376737e-01  1.2978461376795722e-01  6.3580118149050846e-02  6.1787415023446014e-02  1.5341280235706019e-02  8.9860241618229236e-03  1.1194464735902049e-01  2.5528734613562625e-02  1.0326278943351495e-01  5.5693520271109867e-02  2.4159427942207848e-01  7.3567262172681036e-01  7.4876898069657152e-02  1.5158189362930657e-02  2.4498018108301104e-02  4.1213360993001876e-03  4.6964150482921791e-03  2.9129690408856942e-33  -2.5948092670071134e-20  7.9513197789849461e-03  7.0732531846375239e-03  1.6424757051587534e-02  2.7576958276614577e-02  5.5471288317216871e-02  8.1195076697987811e-02  2.6656101969548640e-01  1.2791224459331293e-01  9.3967564059773342e-02  1.1980548345717673e-01  7.2296602564980425e-02  8.2329085414125189e-02  2.3471661700410699e-02  4.1521107869265288e-03  2.9679840629952253e-01  2.2172272166389112e-01  1.3661709985879400e-01  1.2449718410376696e-01  3.4375643220118535e-03  1.1283184912713971e-01  2.8345100000900021e-02  3.3771782231125043e-02  1.5370174398265107e-02  2.6162348133704186e-03  1.2037062152420224e-34  0.0000000000000000e+00  4.6743928191962897e-04  7.2423123631609214e-03  1.3834961242598210e-02  3.3156150335071931e-02  6.7425081130272221e-02  9.7332586203682028e-02  2.0753294625728336e-02  1.8266164413894434e-01  5.6849722372804043e-02  1.8705725271420034e-01  5.7668377970022763e-02  1.3144993895296683e-01  9.9712176777268444e-03  7.0055155813276399e-02  2.1579002798077360e-01  9.7950446188211512e-02  5.3379133141945612e-01  3.6193838764298919e-01  1.7919091526619715e-01  6.1425985239688695e-02  3.9174614716592421e-02  7.8286333779626991e-03  2.5746442654576051e-02  7.6683624287917944e-03  1.9259299443872359e-34  6.0185310762101120e-36  5.8007711351750607e-04  2.7788479808853587e-03  4.6386016732840943e-03  1.6534276483601784e-02  4.1587985467864144e-02  8.6027266186611565e-02  1.3375834819895777e-01  9.8311294202169767e-03  2.1798612569315010e-01  2.2928107099552678e-01  2.6508596947162782e-01  1.5855104341745296e-01  1.4126908050859807e-01  5.1462329774592606e-02  1.7437082064354206e-01  4.9263212513402144e-01  1.3600194202678359e-01  1.0262767277639571e-01  5.6145300767861284e-02  6.1729095886148506e-02  5.6330201940955088e-02  2.9660356387184030e-02  1.9140045422663864e-02  1.3165238972173992e-02  -1.2903730627394480e-32  -7.9864440188728927e-21  1.2363432546674904e-03  4.5571877453683433e-04  6.5222401204058852e-03  7.7224324903527415e-03  2.1320226177975517e-02  4.0348732481889610e-02  5.8762382757691668e-02  7.3474911876556900e-02  2.6826175944364516e-01  9.0230593174248877e-02  3.3812635898524723e-01  1.6874805102116056e-01  5.2339482165220519e-01  2.0170957409147494e-01  8.7268740261681008e-02  6.8602049486311067e-01  2.3247275478594334e-01  1.2206584949329162e-01  4.2967360149463688e-02  2.9277960220355493e-02  4.3450078508101696e-02  4.2799850506431127e-02  1.9410414768257445e-02  8.4558971085832366e-03  1.5407439555097887e-33  -1.3885188980539239e-20  1.0899613503359033e-03  1.4037089563349672e-03  2.1182000457356052e-03  7.2665163339937352e-03  1.3339082919035475e-02  2.8159799967966331e-02  4.1366489474025728e-02  3.5141030109097818e-02  5.7236492467746002e-02  1.4100643823953580e-02  4.8550392800028590e-02  5.0066059852972067e-01  1.8343406473036433e-02  5.9135679473657798e-01  4.4391441198128906e-01  7.7796078809526575e-02  9.1693869747585963e-02  7.7825226036583511e-02  7.6362735341733545e-02  2.7881053011403055e-02  4.1330898361071948e-02  3.5107111306628795e-02  3.0655114003545484e-02  2.9325829224226925e-03  -1.6279105410480998e-19  -2.8646297124024321e-20  1.1407730866154517e-03  1.8178830068288521e-03  6.5389072587663827e-04  5.9533227826696674e-03  7.1977278704820936e-03  1.7188548760409497e-02  2.9286324767194786e-02  3.6262082781083498e-02  2.4447245208281548e-02  1.2123178404143597e-02  2.3199935711216441e-02  1.3619738213903429e-01  2.8269015027248309e-02  1.2421368348824127e-01  1.8143592218226309e-02  1.0773302548023748e-01  2.6837399565587460e-02  5.7066343474088350e-02  6.5430739492948101e-02  4.1098715878999798e-02  2.6084885509673826e-02  2.3778700519442784e-02  2.0172448869377992e-02  1.3019912326171473e-02  -3.0814879110195774e-33  -1.9462450260502380e-20  6.4795880435653951e-04  1.4421387727413027e-03  2.2245249414291225e-03  1.5271975766119844e-03  7.1022751555851757e-03  9.0290939312939571e-03  1.8915434793680491e-02  2.6507892419943675e-02  2.5578678098572494e-02  1.7742363488920557e-02  2.8398128398464492e-02  2.9923608248706417e-02  7.3883093487337279e-02  3.0488104910738275e-02  7.0870734994783163e-02  2.5388979764329488e-02  2.3953636399457343e-02  8.4693933427665933e-03  5.4022123590357886e-02  4.7346804416987597e-02  1.3318241091874015e-02  1.8628030102965543e-02  8.8110393417013422e-03  4.7184477025387266e-03  1.5407439555097887e-33  -3.8618198302451825e-21  3.5060433496366132e-04  9.8167862276166444e-04  1.4202160633148258e-03  1.5361927013044570e-03  4.2693006281377859e-03  5.8962032919895021e-03  1.1372357295151521e-02  1.8805045554371964e-02  2.3863107236168402e-02  2.1585886550697930e-02  1.7631316422743466e-02  2.9132094935277859e-02  1.7312249364848389e-02  6.1241141489310957e-03  8.9190799225634491e-03  2.1118260739263504e-02  1.8713974757852483e-02  8.1800052776320603e-03  3.1242278447941519e-02  3.3050044490820787e-02  2.8241281158808303e-02  9.2661605106740055e-03  3.6136294121730137e-03  3.1640939828264949e-03  0.0000000000000000e+00  -1.2086174129418934e-21  6.9568361393856730e-05  3.2683352242980277e-04  8.2479091882629364e-04  1.3642744046472566e-03  1.3608866125589848e-03  5.2394777738081115e-03  5.5742966354894972e-03  1.1988847262090130e-02  1.8010039228026836e-02  2.2362575845461870e-02  6.9291127591159952e-03  9.6938130918287728e-03  2.0252979109555910e-02  2.3341511976610871e-02  2.9324646962699701e-02  3.5298256425719508e-03  1.2757825337293214e-03  9.3821572574253990e-03  7.1316611257505715e-03  1.3893414054568252e-02  1.4245724315458782e-02  1.3532238126614828e-02  5.7345085530362550e-03  2.2424419631947609e-03  6.2240267473070621e-20  0.0000000000000000e+00  3.7603415937672019e-05  9.9813071859326555e-05  2.8899135745038499e-04  4.7832517344325779e-04  8.2053032855080980e-04  1.7919356467230754e-03  3.1380037897587179e-03  5.1640782633155819e-03  9.4009590585020040e-03  1.5014462206656268e-02  2.4091501599369070e-02  6.9324470078043730e-03  3.4096137007541450e-03  9.5984305725684508e-03  6.0259660255013673e-03  2.3077020203476475e-02  7.8808936522381228e-03  2.8042899237532668e-03  2.9741285829897822e-03  3.0519523923242769e-03  4.1601678793328038e-03  1.6619394359470479e-03  2.4298186332263935e-03  1.2988311921177269e-02  -7.2099614729521910e-19  7.5231638452626401e-37  -2.4232514854478696e-21  2.4933323370777738e-20  -2.7221999304952560e-20  4.2129717533470784e-35  1.2037062152420224e-35  -9.9472410681926462e-20  2.4675977412461459e-34  1.4333196472248185e-19  3.8518598887744717e-34  -2.1353467039833205e-19  6.6867349433531694e-19  -3.8482811425290955e-19  0.0000000000000000e+00  1.3039409392706944e-17  -3.3450831135602758e-19  -1.2810319584819741e-18  2.1873873968333813e-19  -1.5566936205375793e-19  0.0000000000000000e+00  1.1593247109170428e-17  -2.3093570829706386e-19  -1.5407439555097887e-33  -1.6177811532852781e-32  -7.2099614729521833e-19  2.9606776483035265e-18  </DataArray> 
</PointData> 
</Piece>
</UnstructuredGrid>
</VTKFile>