<?xml version="1.0"?>
<VTKFile type="UnstructuredGrid"  version="0.1"  >
<UnstructuredGrid>
<Piece  NumberOfPoints="40401" NumberOfCells="80000">
<Points>
<DataArray  type="Float64"  NumberOfComponents="3"  format="ascii">0 0 0  0.005 0 0  0.01 0 0  0.015 0 0  0.02 0 0  0.025 0 0  0.03 0 0  0.035 0 0  0.04 0 0  0.045 0 0  0.05 0 0  0.055 0 0  0.06 0 0  0.065 0 0  0.07000000000000001 0 0  0.075 0 0  0.08 0 0  0.08500000000000001 0 0  0.09 0 0  0.095 0 0  0.1 0 0  0.105 0 0  0.11 0 0  0.115 0 0  0.12 0 0  0.125 0 0  0.13 0 0  0.135 0 0  0.14 0 0  0.145 0 0  0.15 0 0  0.155 0 0  0.16 0 0  0.165 0 0  0.17 0 0  0.175 0 0  0.18 0 0  0.185 0 0  0.19 0 0  0.195 0 0  0.2 0 0  0.205 0 0  0.21 0 0  0.215 0 0  0.22 0 0  0.225 0 0  0.23 0 0  0.235 0 0  0.24 0 0  0.245 0 0  0.25 0 0  0.255 0 0  0.26 0 0  0.265 0 0  0.27 0 0  0.275 0 0  0.28 0 0  0.285 0 0  0.29 0 0  0.295 0 0  0.3 0 0  0.305 0 0  0.31 0 0  0.315 0 0  0.32 0 0  0.325 0 0  0.33 0 0  0.335 0 0  0.34 0 0  0.345 0 0  0.35 0 0  0.355 0 0  0.36 0 0  0.365 0 0  0.37 0 0  0.375 0 0  0.38 0 0  0.385 0 0  0.39 0 0  0.395 0 0  0.4 0 0  0.405 0 0  0.41 0 0  0.415 0 0  0.42 0 0  0.425 0 0  0.43 0 0  0.435 0 0  0.44 0 0  0.445 0 0  0.45 0 0  0.455 0 0  0.46 0 0  0.465 0 0  0.47 0 0  0.475 0 0  0.48 0 0  0.485 0 0  0.49 0 0  0.495 0 0  0.5 0 0  0.505 0 0  0.51 0 0  0.515 0 0  0.52 0 0  0.525 0 0  0.53 0 0  0.535 0 0  0.54 0 0  0.545 0 0  0.55 0 0  0.555 0 0  0.5600000000000001 0 0  0.5649999999999999 0 0  0.57 0 0  0.575 0 0  0.58 0 0  0.585 0 0  0.59 0 0  0.595 0 0  0.6 0 0  0.605 0 0  0.61 0 0  0.615 0 0  0.62 0 0  0.625 0 0  0.63 0 0  0.635 0 0  0.64 0 0  0.645 0 0  0.65 0 0  0.655 0 0  0.66 0 0  0.665 0 0  0.67 0 0  0.675 0 0  0.68 0 0  0.6850000000000001 0 0  0.6899999999999999 0 0  0.695 0 0  0.7 0 0  0.705 0 0  0.71 0 0  0.715 0 0  0.72 0 0  0.725 0 0  0.73 0 0  0.735 0 0  0.74 0 0  0.745 0 0  0.75 0 0  0.755 0 0  0.76 0 0  0.765 0 0  0.77 0 0  0.775 0 0  0.78 0 0  0.785 0 0  0.79 0 0  0.795 0 0  0.8 0 0  0.805 0 0  0.8100000000000001 0 0  0.8149999999999999 0 0  0.82 0 0  0.825 0 0  0.83 0 0  0.835 0 0  0.84 0 0  0.845 0 0  0.85 0 0  0.855 0 0  0.86 0 0  0.865 0 0  0.87 0 0  0.875 0 0  0.88 0 0  0.885 0 0  0.89 0 0  0.895 0 0  0.9 0 0  0.905 0 0  0.91 0 0  0.915 0 0  0.92 0 0  0.925 0 0  0.93 0 0  0.9350000000000001 0 0  0.9399999999999999 0 0  0.945 0 0  0.95 0 0  0.955 0 0  0.96 0 0  0.965 0 0  0.97 0 0  0.975 0 0  0.98 0 0  0.985 0 0  0.99 0 0  0.995 0 0  1 0 0  0 0.005 0  0.005 0.005 0  0.01 0.005 0  0.015 0.005 0  0.02 0.005 0  0.025 0.005 0  0.03 0.005 0  0.035 0.005 0  0.04 0.005 0  0.045 0.005 0  0.05 0.005 0  0.055 0.005 0  0.06 0.005 0  0.065 0.005 0  0.07000000000000001 0.005 0  0.075 0.005 0  0.08 0.005 0  0.08500000000000001 0.005 0  0.09 0.005 0  0.095 0.005 0  0.1 0.005 0  0.105 0.005 0  0.11 0.005 0  0.115 0.005 0  0.12 0.005 0  0.125 0.005 0  0.13 0.005 0  0.135 0.005 0  0.14 0.005 0  0.145 0.005 0  0.15 0.005 0  0.155 0.005 0  0.16 0.005 0  0.165 0.005 0  0.17 0.005 0  0.175 0.005 0  0.18 0.005 0  0.185 0.005 0  0.19 0.005 0  0.195 0.005 0  0.2 0.005 0  0.205 0.005 0  0.21 0.005 0  0.215 0.005 0  0.22 0.005 0  0.225 0.005 0  0.23 0.005 0  0.235 0.005 0  0.24 0.005 0  0.245 0.005 0  0.25 0.005 0  0.255 0.005 0  0.26 0.005 0  0.265 0.005 0  0.27 0.005 0  0.275 0.005 0  0.28 0.005 0  0.285 0.005 0  0.29 0.005 0  0.295 0.005 0  0.3 0.005 0  0.305 0.005 0  0.31 0.005 0  0.315 0.005 0  0.32 0.005 0  0.325 0.005 0  0.33 0.005 0  0.335 0.005 0  0.34 0.005 0  0.345 0.005 0  0.35 0.005 0  0.355 0.005 0  0.36 0.005 0  0.365 0.005 0  0.37 0.005 0  0.375 0.005 0  0.38 0.005 0  0.385 0.005 0  0.39 0.005 0  0.395 0.005 0  0.4 0.005 0  0.405 0.005 0  0.41 0.005 0  0.415 0.005 0  0.42 0.005 0  0.425 0.005 0  0.43 0.005 0  0.435 0.005 0  0.44 0.005 0  0.445 0.005 0  0.45 0.005 0  0.455 0.005 0  0.46 0.005 0  0.465 0.005 0  0.47 0.005 0  0.475 0.005 0  0.48 0.005 0  0.485 0.005 0  0.49 0.005 0  0.495 0.005 0  0.5 0.005 0  0.505 0.005 0  0.51 0.005 0  0.515 0.005 0  0.52 0.005 0  0.525 0.005 0  0.53 0.005 0  0.535 0.005 0  0.54 0.005 0  0.545 0.005 0  0.55 0.005 0  0.555 0.005 0  0.5600000000000001 0.005 0  0.5649999999999999 0.005 0  0.57 0.005 0  0.575 0.005 0  0.58 0.005 0  0.585 0.005 0  0.59 0.005 0  0.595 0.005 0  0.6 0.005 0  0.605 0.005 0  0.61 0.005 0  0.615 0.005 0  0.62 0.005 0  0.625 0.005 0  0.63 0.005 0  0.635 0.005 0  0.64 0.005 0  0.645 0.005 0  0.65 0.005 0  0.655 0.005 0  0.66 0.005 0  0.665 0.005 0  0.67 0.005 0  0.675 0.005 0  0.68 0.005 0  0.6850000000000001 0.005 0  0.6899999999999999 0.005 0  0.695 0.005 0  0.7 0.005 0  0.705 0.005 0  0.71 0.005 0  0.715 0.005 0  0.72 0.005 0  0.725 0.005 0  0.73 0.005 0  0.735 0.005 0  0.74 0.005 0  0.745 0.005 0  0.75 0.005 0  0.755 0.005 0  0.76 0.005 0  0.765 0.005 0  0.77 0.005 0  0.775 0.005 0  0.78 0.005 0  0.785 0.005 0  0.79 0.005 0  0.795 0.005 0  0.8 0.005 0  0.805 0.005 0  0.8100000000000001 0.005 0  0.8149999999999999 0.005 0  0.82 0.005 0  0.825 0.005 0  0.83 0.005 0  0.835 0.005 0  0.84 0.005 0  0.845 0.005 0  0.85 0.005 0  0.855 0.005 0  0.86 0.005 0  0.865 0.005 0  0.87 0.005 0  0.875 0.005 0  0.88 0.005 0  0.885 0.005 0  0.89 0.005 0  0.895 0.005 0  0.9 0.005 0  0.905 0.005 0  0.91 0.005 0  0.915 0.005 0  0.92 0.005 0  0.925 0.005 0  0.93 0.005 0  0.9350000000000001 0.005 0  0.9399999999999999 0.005 0  0.945 0.005 0  0.95 0.005 0  0.955 0.005 0  0.96 0.005 0  0.965 0.005 0  0.97 0.005 0  0.975 0.005 0  0.98 0.005 0  0.985 0.005 0  0.99 0.005 0  0.995 0.005 0  1 0.005 0  0 0.01 0  0.005 0.01 0  0.01 0.01 0  0.015 0.01 0  0.02 0.01 0  0.025 0.01 0  0.03 0.01 0  0.035 0.01 0  0.04 0.01 0  0.045 0.01 0  0.05 0.01 0  0.055 0.01 0  0.06 0.01 0  0.065 0.01 0  0.07000000000000001 0.01 0  0.075 0.01 0  0.08 0.01 0  0.08500000000000001 0.01 0  0.09 0.01 0  0.095 0.01 0  0.1 0.01 0  0.105 0.01 0  0.11 0.01 0  0.115 0.01 0  0.12 0.01 0  0.125 0.01 0  0.13 0.01 0  0.135 0.01 0  0.14 0.01 0  0.145 0.01 0  0.15 0.01 0  0.155 0.01 0  0.16 0.01 0  0.165 0.01 0  0.17 0.01 0  0.175 0.01 0  0.18 0.01 0  0.185 0.01 0  0.19 0.01 0  0.195 0.01 0  0.2 0.01 0  0.205 0.01 0  0.21 0.01 0  0.215 0.01 0  0.22 0.01 0  0.225 0.01 0  0.23 0.01 0  0.235 0.01 0  0.24 0.01 0  0.245 0.01 0  0.25 0.01 0  0.255 0.01 0  0.26 0.01 0  0.265 0.01 0  0.27 0.01 0  0.275 0.01 0  0.28 0.01 0  0.285 0.01 0  0.29 0.01 0  0.295 0.01 0  0.3 0.01 0  0.305 0.01 0  0.31 0.01 0  0.315 0.01 0  0.32 0.01 0  0.325 0.01 0  0.33 0.01 0  0.335 0.01 0  0.34 0.01 0  0.345 0.01 0  0.35 0.01 0  0.355 0.01 0  0.36 0.01 0  0.365 0.01 0  0.37 0.01 0  0.375 0.01 0  0.38 0.01 0  0.385 0.01 0  0.39 0.01 0  0.395 0.01 0  0.4 0.01 0  0.405 0.01 0  0.41 0.01 0  0.415 0.01 0  0.42 0.01 0  0.425 0.01 0  0.43 0.01 0  0.435 0.01 0  0.44 0.01 0  0.445 0.01 0  0.45 0.01 0  0.455 0.01 0  0.46 0.01 0  0.465 0.01 0  0.47 0.01 0  0.475 0.01 0  0.48 0.01 0  0.485 0.01 0  0.49 0.01 0  0.495 0.01 0  0.5 0.01 0  0.505 0.01 0  0.51 0.01 0  0.515 0.01 0  0.52 0.01 0  0.525 0.01 0  0.53 0.01 0  0.535 0.01 0  0.54 0.01 0  0.545 0.01 0  0.55 0.01 0  0.555 0.01 0  0.5600000000000001 0.01 0  0.5649999999999999 0.01 0  0.57 0.01 0  0.575 0.01 0  0.58 0.01 0  0.585 0.01 0  0.59 0.01 0  0.595 0.01 0  0.6 0.01 0  0.605 0.01 0  0.61 0.01 0  0.615 0.01 0  0.62 0.01 0  0.625 0.01 0  0.63 0.01 0  0.635 0.01 0  0.64 0.01 0  0.645 0.01 0  0.65 0.01 0  0.655 0.01 0  0.66 0.01 0  0.665 0.01 0  0.67 0.01 0  0.675 0.01 0  0.68 0.01 0  0.6850000000000001 0.01 0  0.6899999999999999 0.01 0  0.695 0.01 0  0.7 0.01 0  0.705 0.01 0  0.71 0.01 0  0.715 0.01 0  0.72 0.01 0  0.725 0.01 0  0.73 0.01 0  0.735 0.01 0  0.74 0.01 0  0.745 0.01 0  0.75 0.01 0  0.755 0.01 0  0.76 0.01 0  0.765 0.01 0  0.77 0.01 0  0.775 0.01 0  0.78 0.01 0  0.785 0.01 0  0.79 0.01 0  0.795 0.01 0  0.8 0.01 0  0.805 0.01 0  0.8100000000000001 0.01 0  0.8149999999999999 0.01 0  0.82 0.01 0  0.825 0.01 0  0.83 0.01 0  0.835 0.01 0  0.84 0.01 0  0.845 0.01 0  0.85 0.01 0  0.855 0.01 0  0.86 0.01 0  0.865 0.01 0  0.87 0.01 0  0.875 0.01 0  0.88 0.01 0  0.885 0.01 0  0.89 0.01 0  0.895 0.01 0  0.9 0.01 0  0.905 0.01 0  0.91 0.01 0  0.915 0.01 0  0.92 0.01 0  0.925 0.01 0  0.93 0.01 0  0.9350000000000001 0.01 0  0.9399999999999999 0.01 0  0.945 0.01 0  0.95 0.01 0  0.955 0.01 0  0.96 0.01 0  0.965 0.01 0  0.97 0.01 0  0.975 0.01 0  0.98 0.01 0  0.985 0.01 0  0.99 0.01 0  0.995 0.01 0  1 0.01 0  0 0.015 0  0.005 0.015 0  0.01 0.015 0  0.015 0.015 0  0.02 0.015 0  0.025 0.015 0  0.03 0.015 0  0.035 0.015 0  0.04 0.015 0  0.045 0.015 0  0.05 0.015 0  0.055 0.015 0  0.06 0.015 0  0.065 0.015 0  0.07000000000000001 0.015 0  0.075 0.015 0  0.08 0.015 0  0.08500000000000001 0.015 0  0.09 0.015 0  0.095 0.015 0  0.1 0.015 0  0.105 0.015 0  0.11 0.015 0  0.115 0.015 0  0.12 0.015 0  0.125 0.015 0  0.13 0.015 0  0.135 0.015 0  0.14 0.015 0  0.145 0.015 0  0.15 0.015 0  0.155 0.015 0  0.16 0.015 0  0.165 0.015 0  0.17 0.015 0  0.175 0.015 0  0.18 0.015 0  0.185 0.015 0  0.19 0.015 0  0.195 0.015 0  0.2 0.015 0  0.205 0.015 0  0.21 0.015 0  0.215 0.015 0  0.22 0.015 0  0.225 0.015 0  0.23 0.015 0  0.235 0.015 0  0.24 0.015 0  0.245 0.015 0  0.25 0.015 0  0.255 0.015 0  0.26 0.015 0  0.265 0.015 0  0.27 0.015 0  0.275 0.015 0  0.28 0.015 0  0.285 0.015 0  0.29 0.015 0  0.295 0.015 0  0.3 0.015 0  0.305 0.015 0  0.31 0.015 0  0.315 0.015 0  0.32 0.015 0  0.325 0.015 0  0.33 0.015 0  0.335 0.015 0  0.34 0.015 0  0.345 0.015 0  0.35 0.015 0  0.355 0.015 0  0.36 0.015 0  0.365 0.015 0  0.37 0.015 0  0.375 0.015 0  0.38 0.015 0  0.385 0.015 0  0.39 0.015 0  0.395 0.015 0  0.4 0.015 0  0.405 0.015 0  0.41 0.015 0  0.415 0.015 0  0.42 0.015 0  0.425 0.015 0  0.43 0.015 0  0.435 0.015 0  0.44 0.015 0  0.445 0.015 0  0.45 0.015 0  0.455 0.015 0  0.46 0.015 0  0.465 0.015 0  0.47 0.015 0  0.475 0.015 0  0.48 0.015 0  0.485 0.015 0  0.49 0.015 0  0.495 0.015 0  0.5 0.015 0  0.505 0.015 0  0.51 0.015 0  0.515 0.015 0  0.52 0.015 0  0.525 0.015 0  0.53 0.015 0  0.535 0.015 0  0.54 0.015 0  0.545 0.015 0  0.55 0.015 0  0.555 0.015 0  0.5600000000000001 0.015 0  0.
[...]
<PointData  Scalars="Indicator Function"> 
<DataArray  type="Float64"  Name="Indicator Function"  format="ascii">1.2037062152420224e-34  1.4261229468722472e-18  9.9320588242170380e-19  1.5418878604537082e-17  8.5071749389977779e-18  -1.1818954902639900e-19  -7.6601767770041690e-20  8.7560159205673677e-19  4.9291347067266529e-17  -4.2710890950812675e-20  1.4994955584094183e-18  6.8321021360860652e-17  -4.5148408438584456e-22  -2.8407466679711729e-33  5.4747517138463462e-17  -2.2846902465247283e-19  -9.6018514568489719e-20  4.7049072138561746e-18  -1.1839509395132812e-19  -2.5037089277034066e-33  -1.1009975837016966e-17  -1.3263626755036330e-19  -3.0339207996689218e-19  3.5161868217992227e-18  -1.4472585936818269e-19  -6.0252076438801003e-20  -4.0408126866411895e-19  -4.3002821605271337e-19  -6.6438422652445165e-18  2.4074124304840448e-35  -4.8661042241498344e-19  -5.4217744503417596e-19  -4.8148248609680896e-35  -2.4896086580930603e-19  3.5509774288521853e-16  -2.7050533714188025e-19  -4.3773683709962645e-19  -6.4006277106718881e-19  -1.9831439533949428e-20  -3.9481563859938335e-33  -1.0818180135051675e-17  0.0000000000000000e+00  -1.2400264766191176e-19  -2.5037057590011139e-19  -1.9939332664083879e-19  -1.4680677010768953e-19  5.5147701394934149e-16  -3.0461271366167884e-19  -5.2473919797756457e-19  -2.6236959898878257e-19  -4.3958350610720852e-19  -4.6494762201128816e-19  -4.6358980187403922e-19  -7.4127676018510674e-19  -3.7063838009255361e-19  -4.3128937520290977e-19  1.7562675218039222e-15  -2.4644918765452555e-19  -3.9905069546042405e-19  -6.3098392014578558e-19  -3.7997706796888842e-19  -8.5451427000733924e-19  -2.9632521147550802e-19  -7.0061516835849693e-19  -4.3757800508604976e-19  -7.5108570468097341e-19  -8.7141390995074261e-19  -1.8195507309584848e-19  4.9317045378595027e-17  -1.0615108949044182e-18  -1.1225288691987521e-18  -5.2108051295351914e-19  -5.0242491989757845e-19  -1.2005352107231741e-18  -1.8598788138835669e-18  -2.2886160564076895e-18  -2.4900587705662483e-18  -2.5356968419856651e-18  -2.3090724879149928e-18  -1.8778464619024146e-18  -9.5200607975982001e-19  5.6108701013633770e-16  -6.6872241827577451e-19  -1.0054011617617470e-18  -6.8615847795244414e-19  -5.9780443451610711e-19  -3.6378684790775145e-19  -5.4088294118957304e-19  -2.8528035793431260e-19  -5.1025071723798960e-19  -2.5512535861899489e-19  -3.6407147183308250e-19  -2.3839858274781799e-19  6.3170786953445665e-16  -1.3482647478420483e-19  -3.2999990366426377e-20  2.4074124304840448e-35  -5.0548670431565765e-21  -6.0195521622867941e-20  -1.0593044658572047e-19  3.4437398855912025e-16  7.0259833333834528e-16  6.7459966616446176e-17  -4.3003754784341906e-17  2.3540418977124929e-16  4.8185462052751862e-17  1.9843738523972256e-16  2.0065262027683061e-16  3.4230812551451794e-17  1.1467179350750102e-16  3.0814879110195774e-31  4.3892860333859579e-18  -2.1396665916871701e-21  4.1900922128612668e-19  1.7488348765001438e-18  5.6482251987806243e-18  -5.6381463294470494e-18  8.0245676027647831e-18  7.1332326091661360e-19  1.1285691280115572e-17  -3.5196355556503479e-18  4.0176909129869839e-18  1.1928339124995632e-17  9.1003284718633776e-18  7.5042583644841740e-19  1.0252000539812800e-18  4.3393961811481094e-18  -2.3011803418785932e-19  1.6331196960187010e-18  2.7186971060936912e-21  6.3014927949051344e-19  -1.9334374465337521e-20  6.5584385656742752e-20  -3.6634860252063166e-20  5.0972974403904767e-19  1.0772906792806636e-19  1.4320859728261509e-18  -1.3948869043854116e-22  1.2140547151588978e-18  3.8822744671415438e-19  1.0991889397365156e-18  5.9352167327526330e-19  8.4683437209009624e-20  1.0108295687029438e-18  4.3458194036017106e-19  3.0356902759661715e-18  3.7600601953579935e-19  3.6976315451067410e-18  7.9136262002681616e-18  6.7472125973548418e-19  1.1066105213801014e-18  1.6522207879009499e-17  8.9303207307962564e-18  8.1462756756522311e-19  -3.2732599817138287e-19  1.0163680087371873e-18  1.7117407834701414e-19  5.0366279927686816e-19  2.1319365962281237e-19  -1.0335758808492870e-19  3.1992963003637567e-19  -7.5097892408942573e-20  -1.6190708783555469e-21  2.1365836110394426e-18  4.4307264146953296e-19  1.8933503337264720e-18  1.6498896768795944e-19  9.5315508314844242e-20  2.2272079915286792e-18  2.7065946521909742e-19  1.6264475956269796e-18  2.2088516204166933e-19  9.6399762422205973e-19  1.2155701307332069e-19  3.5230083925275749e-19  4.6391143960546012e-20  5.8370673373205148e-19  1.1668651824168926e-19  6.5168462595725099e-19  6.4024511477656912e-20  1.0742201365131859e-19  7.3986097742128100e-20  1.2851298136463107e-21  -1.9622173784666764e-21  3.5205545452902629e-21  4.2444276876119821e-22  4.7251455077681567e-20  -7.4790828071068043e-37  2.1688496343703826e-20  2.0834419903348645e-20  3.4963496389291046e-20  5.6688573181979927e-21  3.5427988324008233e-20  3.6067953437646670e-22  1.6742461553417442e-20  4.9568416900242131e-22  -9.0537117309258281e-22  1.2742919523799437e-20  3.7567278600580186e-21  1.7732949790772385e-20  -5.2309498611591794e-37  6.0185310762101120e-35  7.5682460303000735e-04  1.4801102164800135e-04  1.7007054710928180e-03  2.1773975790693239e-03  1.8933803104956694e-03  2.1291136358175091e-03  1.3799347711403163e-03  1.8703789496951615e-03  1.5388220205659311e-03  1.3020896148432584e-04  8.3166914931324238e-04  2.6665646478143680e-04  4.7062481115685604e-04  6.7294353041493487e-03  5.2398640246251035e-03  4.1157320571623074e-03  1.7297157857253144e-03  4.2656328080135676e-03  1.3916709564024961e-03  3.7248830889504655e-03  4.7787251609250365e-03  2.9412708522922114e-03  5.4654258331442622e-03  5.2142986105713799e-03  1.6729833919746303e-04  5.9743177708613216e-03  1.0573148019563524e-02  4.3471183549141403e-03  3.9008970304050430e-03  1.6363196090737657e-02  5.8439602288204483e-04  9.4748025462573875e-03  8.9697604999094127e-03  5.3128341108855150e-03  9.7459818844312131e-03  1.5771131651585734e-02  4.4870583465475358e-03  1.1530345829087671e-02  3.5725145478126191e-04  2.7214796928894647e-03  1.5660180549695703e-03  4.4676662224251255e-03  9.0205506586262391e-03  7.1839016924787596e-03  1.1521388889149684e-03  2.0685662161524683e-03  7.1422299146957867e-04  5.4874148149562027e-03  9.4528610259138092e-03  1.5837664914421120e-02  1.6751503497894702e-02  1.1437713023022225e-02  2.6324349243796231e-03  1.3353654963792223e-02  1.5538837355622153e-02  6.0044405297561129e-03  8.8792677574934531e-03  1.4377316507020026e-02  1.7544392170380778e-03  1.3690116653712163e-02  9.4346393921973075e-03  1.0676240895852640e-02  7.9749817805621868e-03  8.6336699543166848e-03  3.5658695854458916e-03  1.8284750090835987e-02  6.5556223951405311e-03  4.5492385260100460e-03  9.1074978310090766e-03  1.4568731367460492e-02  1.2937316704414245e-02  2.9182936636628601e-03  9.0508827281295407e-03  1.7101478346567413e-02  2.4953858959357537e-02  2.8751112195648448e-02  3.0481354907186939e-02  3.0438375957171266e-02  2.6377364005996062e-02  2.0639592501332835e-02  6.8300206535766555e-03  2.7065656649521417e-03  1.0693349302568232e-02  1.2765022538588152e-02  5.9782209932008560e-03  1.0769087314108678e-02  1.1688575936642060e-03  9.7436808495696744e-03  2.6731362997153114e-04  9.1918597600741496e-03  1.3117057159069582e-02  8.5892141474294033e-03  6.0560987199466502e-03  3.0710348216473156e-03  2.4288178463912893e-03  5.9447497726987104e-04  1.8212077865573876e-04  2.1687722300009664e-03  1.7774501872305571e-03  1.0195481854673853e-03  2.4674436104776859e-03  3.0619697704525029e-03  1.9391408663060987e-03  5.0891669799716017e-04  5.7151721824283495e-04  5.3616505615267261e-05  1.4149993586941108e-04  1.7304051301614827e-03  1.7850402595457875e-04  1.5357204692334765e-04  6.9328311394636216e-05  3.8967395686846876e-05  1.9061108816656670e-05  1.7840536350614237e-04  2.5694287778316741e-04  3.5175231816407965e-04  9.7393090682781279e-05  1.7047181515248433e-04  2.0238394910416203e-04  4.8983470121345218e-04  3.3071211406788620e-04  1.4823514418385076e-04  1.0691959651865691e-04  4.9731228892294206e-05  8.3465240030164921e-05  3.6951984415594992e-05  5.2663147106076497e-06  1.0402312587994132e-05  1.6077641104785401e-05  1.5955539003403497e-05  1.4885669542705225e-05  1.5760721731102706e-05  1.8694678976989068e-05  2.0354033011472630e-05  2.0189420441049739e-05  1.5312475581925050e-05  7.9760766937307131e-06  1.7612063306071081e-07  1.5236109806836852e-05  3.2701274513147596e-05  4.4697266672927192e-05  4.4811127751088010e-05  4.0961990831555607e-05  3.8220319252964312e-05  1.8548110435738715e-05  2.9524689254850830e-06  1.9630375266333541e-05  8.9978642486561713e-05  1.6549421914244651e-04  1.9567409550775590e-04  1.4554631894047159e-04  5.4576021306140236e-05  1.4655063725996323e-05  5.1324308993665200e-05  6.6101896821728204e-05  6.6177161400060417e-05  5.8393210432245042e-05  4.8544374926932770e-05  3.8869669234612243e-05  3.0871227270115016e-05  2.4169610183351503e-05  2.0757289767930541e-05  2.6188558108992710e-05  4.1409058399374247e-05  6.1311514906578810e-05  7.9318067704728490e-05  8.6649362654094814e-05  8.2316495562090986e-05  7.1891648589740800e-05  5.9627144266536668e-05  4.7784962547292138e-05  3.7782598715467237e-05  2.9435693207395584e-05  2.3933649031855914e-05  2.2064204486296366e-05  1.9969641439090094e-05  1.5444904793194082e-05  1.0163901066352919e-05  5.8750583900931871e-06  2.9805466207728517e-06  1.2353091163687099e-06  3.1873434249004082e-07  5.7877101498619211e-08  2.9925087939906644e-07  4.5742849718287715e-07  4.3646173847310627e-07  3.2004439082713968e-07  1.9481295452478130e-07  8.9233655478826967e-08  1.3142889538514250e-09  7.5563092065311947e-08  1.2263628482961314e-07  1.5086335638506548e-07  1.6691833935578324e-07  1.7920708000730476e-07  2.0130670154542483e-07  2.4125443664685256e-07  2.2118966663805400e-07  5.0745931683294892e-08  1.4084825440210961e-24  7.8240903990731457e-35  2.5519450189267121e-03  3.5612388041803759e-03  1.1549551323650753e-03  2.7413792111355452e-03  3.9137865934891110e-03  3.3589128060285399e-04  7.5950975850108595e-03  2.5073563159027664e-04  6.1560313976668475e-03  4.3919542823004495e-03  4.8074813760093640e-03  1.0347689449972419e-02  4.7240903499745288e-03  2.1888091136908583e-03  7.4448427919986803e-03  9.9269739649638280e-03  1.6498711590814431e-02  6.5450846793545835e-03  3.6387828310902601e-03  8.3503337184494299e-03  1.9563712339506198e-02  7.9871534532306148e-03  1.2577601782352956e-02  5.2967081707202060e-03  1.1059745146197055e-02  5.4605409296085280e-04  6.0453446170243424e-03  1.2437784511829268e-03  2.3862052450109285e-02  2.1401427477317097e-03  1.2420286219306055e-02  2.2719845536324133e-02  9.4938785521791521e-03  2.2615856049083338e-02  1.3663254004544104e-02  1.1070360201900368e-03  6.8965814825531081e-04  2.0277220107720553e-02  8.6326459653205175e-03  1.5046773552157399e-02  2.6623887344044549e-02  2.2734008312779851e-02  2.5184795319505741e-02  3.2747474153454269e-02  3.1573881175408464e-02  2.1993688818327094e-02  1.9992798180197353e-02  3.2082812746142525e-02  3.0916162734345928e-02  1.7950757162935954e-02  7.9429655478598718e-03  3.0872610819153046e-02  4.3876652043341145e-02  3.6465649626026393e-02  1.8304855508359297e-02  7.1301222538368422e-03  2.5220162050702082e-02  1.5353736715302258e-02  1.3116851525721923e-02  1.5673910838429096e-02  1.6844358688850043e-02  3.6685310444469384e-02  6.9930079755232298e-03  1.2029679717365020e-02  1.6688147799683323e-02  1.8021193299527682e-02  2.6891211852850799e-02  6.9936330469083895e-03  1.6186286088938184e-02  1.3176214124842163e-02  1.8758044380770965e-02  9.0963463586535079e-03  5.5308197785703533e-03  1.9743283071427874e-02  3.3645991864654570e-02  3.4844380061511825e-02  4.3176733958460438e-02  3.9489180634131482e-02  4.2432778650105377e-02  2.9861152617370757e-02  1.7849588181683768e-02  7.2446858844858850e-04  9.6686320353691364e-03  1.5959574567216594e-02  1.7109556789906420e-02  9.9185433753817970e-03  1.4710270199642796e-02  1.7543781528030964e-02  7.8734359159272349e-03  1.5932402143209158e-02  1.0041118329079902e-02  2.4874652747529063e-05  1.9369851469202240e-03  4.3631898857084614e-03  6.8697662304105459e-03  4.7439164113644806e-03  3.5215832527326391e-03  1.7859062457414125e-03  4.2839628725594237e-03  7.2970979108537464e-03  5.3856190747978176e-03  1.7801190250690583e-03  2.2696446320027218e-03  3.8192961055711857e-03  2.5612535136756930e-03  2.4761099960760695e-03  1.6598329822413457e-03  2.5247760909765087e-03  1.2919112972799008e-03  4.1036913584726399e-04  3.7834977550564580e-04  5.8010365175351557e-06  1.3142321129176366e-04  1.1838793643811671e-04  4.4793521353677133e-04  8.5786982286531583e-05  5.9571797029755048e-04  1.6245680230691633e-04  5.3025132952609513e-04  3.3211248842269912e-04  7.8800826461455811e-04  1.5143344713588702e-04  1.7375189253030529e-04  4.1462517626394137e-05  1.2862432376826755e-04  7.6330666305328291e-05  2.0929120580386827e-05  1.4463355363544392e-06  1.6127429116023399e-05  2.1473609150903167e-05  2.1095217496078524e-05  2.1366741302453546e-05  2.4458117666717873e-05  2.7876085127042238e-05  2.7722442821364697e-05  2.4458934668133392e-05  1.3336065316386781e-05  4.3804396150558617e-06  1.1821247214085007e-05  3.7213794691868454e-05  5.7623007598772726e-05  6.3741801263517286e-05  5.5710537092303365e-05  5.4220304541940574e-05  4.2177791150944778e-05  5.1364454633877293e-06  5.4672631171041335e-06  8.6382959414029939e-05  1.9621092266688069e-04  2.6566754602265610e-04  2.3492930072899275e-04  1.1325842057055224e-04  3.7384886469864473e-06  5.2311553793647117e-05  8.0029035791554185e-05  8.9979179947315228e-05  8.4900317505318983e-05  7.3008715054600644e-05  5.9822958239686009e-05  4.7800753080547212e-05  3.8217384147086255e-05  3.0949033460772833e-05  3.2773785532192725e-05  4.9663060839523823e-05  7.5422791854309334e-05  1.0159046892018840e-04  1.1785184688870499e-04  1.1648029176095343e-04  1.0428176671859107e-04  8.8521754445400482e-05  7.2332085177039898e-05  5.7633393147890073e-05  4.5421966862218466e-05  3.5509525536440092e-05  3.1133670985709643e-05  2.9391374438489302e-05  2.4105510636168448e-05  1.6341357189705790e-05  9.7459209361480189e-06  5.2727775290869427e-06  2.4337805160079002e-06  7.2181341239881759e-07  8.6844671333641188e-08  4.5786906418750054e-07  7.7561397979527842e-07  8.4675102018162597e-07  6.8370597923215775e-07  4.8381255059190782e-07  3.1294393089447787e-07  1.7306093417448642e-07  4.8162126848718991e-08  4.8448247961321965e-08  1.1423248058671679e-07  1.6201432419470553e-07  1.8943104407915089e-07  2.1568162549190494e-07  2.9667312720497005e-07  3.9870634812198750e-07  3.4345265568454277e-07  8.5794535397171937e-23  -1.3890520518158342e-20  8.2882421484451038e-04  1.0270985159800713e-03  1.3572615896481109e-04  2.4676999442168027e-03  8.9017224888705490e-03  3.3275317141738916e-04  8.1056690705763931e-03  8.0843852693719392e-03  4.5147983039046024e-03  7.9432925247363007e-03  2.6228995960851241e-03  5.5997100631391917e-03  6.5199842407761485e-03  4.5388645021369873e-05  8.8388350931339413e-03  1.5055706645474847e-02  1.9750101005954413e-02  1.2220743705015578e-02  9.3852144376862876e-03  6.6304505380718028e-03  1.3277271927440769e-03  4.6932457536234505e-03  8.9252955603436011e-03  1.8043679989654587e-02  2.1938038039766364e-03  1.2676480179492997e-03  1.1890284260315267e-02  2.7163832633819378e-02  3.7974768906752173e-03  1.3082548560368461e-02  2.6296214020288474e-02  1.1051726772852618e-02  2.7982316785846083e-02  4.1426399619480213e-03  7.0489451212577990e-03  1.7427767559892740e-02  3.6806200423589161e-02  2.4349350025867206e-02  3.2754316692901485e-02  1.4295849634567526e-02  4.1910400290200997e-03  1.2346217187184660e-02  5.8534326542107580e-03  6.4337059061744372e-03  5.1598905019690760e-03  6.7363290354908551e-03  1.5089550964796944e-02  1.5646312118302450e-02  2.7080663569075968e-02  3.6215745207717510e-02  4.3579468098203712e-02  3.6819849913321816e-02  1.7128999641996413e-02  1.8316504710979703e-02  4.5629635894852090e-02  4.8151934093542931e-02  1.7206660505355739e-02  2.5992713652126659e-02  4.0556292980844906e-02  7.9368522272486950e-03  2.9710474794251870e-02  2.0006544852378863e-02  2.7485744746503931e-02  2.8015391910764468e-02  1.1260555908734541e-02  4.5773151993467641e-03  4.1183135146322741e-02  5.4992969226644811e-03  1.7724874253066413e-02  1.6704041661321254e-02  2.0288833443596648e-02  1.6504133697572955e-02  2.7457910481881458e-03  1.9427283685659689e-02  2.7074421588569184e-02  4.1105600462095403e-02  4.2652131822011337e-02  4.7115918731694108e-02  4.4209954993414222e-02  3.9439183136827614e-02  2.8504863199315927e-02  4.7252839410766934e-03  7.5275737768463894e-03  1.6455590042499239e-02  1.6558749206883466e-02  7.2930771932246327e-03  2.6468068132691463e-02  1.7617009319000623e-03  2.7791636984257660e-02  4.3389549071532526e-03  2.6425555679237687e-02  3.7943594048086927e-02  2.6654259674642199e-02  1.8558689742139298e-02  1.2275340188531927e-02  9.8899981414165509e-03  5.0017239866157722e-03  1.5429428800107557e-03  3.2082180562974382e-03  2.7357830577216997e-03  4.0055072920945648e-03  8.1808543740369919e-03  8.3736072364953163e-03  4.6013267180810072e-03  4.3121961316381697e-04  1.2144650199782473e-04  8.8261074745569080e-04  7.2532497966562039e-04  4.0261672231425615e-03  6.2676939138968997e-04  1.6844774644565258e-04  3.5607498377028822e-04  1.0239215615032067e-04  7.4787649188177256e-05  3.4541562706991939e-04  5.0931590650402320e-04  8.3373530775605095e-04  1.2873063443542048e-04  4.6280862387752719e-05  4.6780447749956175e-04  1.1047214632725968e-03  4.9247910312147825e-04  7.0734391766195048e-07  1.6647073143156397e-04  9.1275141291433410e-05  1.3034759477865258e-04  3.0143871643180074e-05  4.6281752241703035e-06  7.4420772082237910e-06  1.9834791463373179e-05  2.3675332781001346e-05  2.3929558284750678e-05  2.6302947979874521e-05  3.0988653750771896e-05  3.1860957387001379e-05  2.9519440678963149e-05  2.0146588916402582e-05  6.9438450542880197e-06  3.2852173593973625e-06  2.9476222890053301e-05  5.7219516029977614e-05  7.1771717136262972e-05  6.5462266171602219e-05  5.6662234358865431e-05  5.7740971285686462e-05  2.4883821415335478e-05  9.9495689648007859e-06  4.6367657088211328e-05  1.7764476455836946e-04  2.8424996044954903e-04  2.9661143248814231e-04  1.7882634759341045e-04  2.7385276063145220e-05  4.7167076494230666e-05  7.2552828773964285e-05  8.8614740886858593e-05  9.2617570528465980e-05  8.4408914398182276e-05  7.2088028221230818e-05  5.8838382175175920e-05  4.7741232570254636e-05  3.8403586084888830e-05  3.4344958932448775e-05  4.6336620777451224e-05  7.3633944450573823e-05  1.0353798175867667e-04  1.2702784110999975e-04  1.3211406644355781e-04  1.2041796804576819e-04  1.0386526766642125e-04  8.6956921908345859e-05  7.0613149881110828e-05  5.6543045608396831e-05  4.4329136286242683e-05  3.6200321435071742e-05  3.4471099214655211e-05  3.0927173775174057e-05  2.2047829193604395e-05  1.3151009516513928e-05  7.3663832744257446e-06  3.8955054643762983e-06  1.6496654243294579e-06  2.7928625787451015e-07  3.2977235098477906e-07  7.8537755883165617e-07  1.0966131264031783e-06  1.0116098053961250e-06  7.7116593844135819e-07  5.6384914891046289e-07  3.9831715924774353e-07  2.4774636317325526e-07  1.1815206029812839e-07  3.5210716641841392e-08  2.5971264774999356e-08  7.9247714454655103e-08  1.2710555405168645e-07  1.8270089862390368e-07  2.7944061979702051e-07  2.8192348740813448e-07  -2.4891092878661938e-36  -3.1296361596292583e-34  2.5022937211824174e-04  1.8702862904812221e-03  7.1717386234003422e-03  2.8992308568568726e-04  5.7455462101582201e-04  2.5170328973845506e-03  4.1294833039953859e-03  6.7048616166902148e-03  2.1951180536847843e-03  5.8046273994241731e-03  6.1438297163165503e-03  5.1775882970336784e-03  1.2931511874360898e-02  9.1688058025263877e-03  1.1143124443945829e-03  1.7402319402538776e-02  2.4490118241352965e-04  1.9784255654357281e-02  1.1984195964317929e-02  9.76337863638