<?xml version="1.0"?>
<VTKFile type="UnstructuredGrid"  version="0.1"  >
<UnstructuredGrid>
<Piece  NumberOfPoints="40401" NumberOfCells="80000">
<Points>
<DataArray  type="Float64"  NumberOfComponents="3"  format="ascii">0 0 0  0.005 0 0  0.01 0 0  0.015 0 0  0.02 0 0  0.025 0 0  0.03 0 0  0.035 0 0  0.04 0 0  0.045 0 0  0.05 0 0  0.055 0 0  0.06 0 0  0.065 0 0  0.07000000000000001 0 0  0.075 0 0  0.08 0 0  0.08500000000000001 0 0  0.09 0 0  0.095 0 0  0.1 0 0  0.105 0 0  0.11 0 0  0.115 0 0  0.12 0 0  0.125 0 0  0.13 0 0  0.135 0 0  0.14 0 0  0.145 0 0  0.15 0 0  0.155 0 0  0.16 0 0  0.165 0 0  0.17 0 0  0.175 0 0  0.18 0 0  0.185 0 0  0.19 0 0  0.195 0 0  0.2 0 0  0.205 0 0  0.21 0 0  0.215 0 0  0.22 0 0  0.225 0 0  0.23 0 0  0.235 0 0  0.24 0 0  0.245 0 0  0.25 0 0  0.255 0 0  0.26 0 0  0.265 0 0  0.27 0 0  0.275 0 0  0.28 0 0  0.285 0 0  0.29 0 0  0.295 0 0  0.3 0 0  0.305 0 0  0.31 0 0  0.315 0 0  0.32 0 0  0.325 0 0  0.33 0 0  0.335 0 0  0.34 0 0  0.345 0 0  0.35 0 0  0.355 0 0  0.36 0 0  0.365 0 0  0.37 0 0  0.375 0 0  0.38 0 0  0.385 0 0  0.39 0 0  0.395 0 0  0.4 0 0  0.405 0 0  0.41 0 0  0.415 0 0  0.42 0 0  0.425 0 0  0.43 0 0  0.435 0 0  0.44 0 0  0.445 0 0  0.45 0 0  0.455 0 0  0.46 0 0  0.465 0 0  0.47 0 0  0.475 0 0  0.48 0 0  0.485 0 0  0.49 0 0  0.495 0 0  0.5 0 0  0.505 0 0  0.51 0 0  0.515 0 0  0.52 0 0  0.525 0 0  0.53 0 0  0.535 0 0  0.54 0 0  0.545 0 0  0.55 0 0  0.555 0 0  0.5600000000000001 0 0  0.5649999999999999 0 0  0.57 0 0  0.575 0 0  0.58 0 0  0.585 0 0  0.59 0 0  0.595 0 0  0.6 0 0  0.605 0 0  0.61 0 0  0.615 0 0  0.62 0 0  0.625 0 0  0.63 0 0  0.635 0 0  0.64 0 0  0.645 0 0  0.65 0 0  0.655 0 0  0.66 0 0  0.665 0 0  0.67 0 0  0.675 0 0  0.68 0 0  0.6850000000000001 0 0  0.6899999999999999 0 0  0.695 0 0  0.7 0 0  0.705 0 0  0.71 0 0  0.715 0 0  0.72 0 0  0.725 0 0  0.73 0 0  0.735 0 0  0.74 0 0  0.745 0 0  0.75 0 0  0.755 0 0  0.76 0 0  0.765 0 0  0.77 0 0  0.775 0 0  0.78 0 0  0.785 0 0  0.79 0 0  0.795 0 0  0.8 0 0  0.805 0 0  0.8100000000000001 0 0  0.8149999999999999 0 0  0.82 0 0  0.825 0 0  0.83 0 0  0.835 0 0  0.84 0 0  0.845 0 0  0.85 0 0  0.855 0 0  0.86 0 0  0.865 0 0  0.87 0 0  0.875 0 0  0.88 0 0  0.885 0 0  0.89 0 0  0.895 0 0  0.9 0 0  0.905 0 0  0.91 0 0  0.915 0 0  0.92 0 0  0.925 0 0  0.93 0 0  0.9350000000000001 0 0  0.9399999999999999 0 0  0.945 0 0  0.95 0 0  0.955 0 0  0.96 0 0  0.965 0 0  0.97 0 0  0.975 0 0  0.98 0 0  0.985 0 0  0.99 0 0  0.995 0 0  1 0 0  0 0.005 0  0.005 0.005 0  0.01 0.005 0  0.015 0.005 0  0.02 0.005 0  0.025 0.005 0  0.03 0.005 0  0.035 0.005 0  0.04 0.005 0  0.045 0.005 0  0.05 0.005 0  0.055 0.005 0  0.06 0.005 0  0.065 0.005 0  0.07000000000000001 0.005 0  0.075 0.005 0  0.08 0.005 0  0.08500000000000001 0.005 0  0.09 0.005 0  0.095 0.005 0  0.1 0.005 0  0.105 0.005 0  0.11 0.005 0  0.115 0.005 0  0.12 0.005 0  0.125 0.005 0  0.13 0.005 0  0.135 0.005 0  0.14 0.005 0  0.145 0.005 0  0.15 0.005 0  0.155 0.005 0  0.16 0.005 0  0.165 0.005 0  0.17 0.005 0  0.175 0.005 0  0.18 0.005 0  0.185 0.005 0  0.19 0.005 0  0.195 0.005 0  0.2 0.005 0  0.205 0.005 0  0.21 0.005 0  0.215 0.005 0  0.22 0.005 0  0.225 0.005 0  0.23 0.005 0  0.235 0.005 0  0.24 0.005 0  0.245 0.005 0  0.25 0.005 0  0.255 0.005 0  0.26 0.005 0  0.265 0.005 0  0.27 0.005 0  0.275 0.005 0  0.28 0.005 0  0.285 0.005 0  0.29 0.005 0  0.295 0.005 0  0.3 0.005 0  0.305 0.005 0  0.31 0.005 0  0.315 0.005 0  0.32 0.005 0  0.325 0.005 0  0.33 0.005 0  0.335 0.005 0  0.34 0.005 0  0.345 0.005 0  0.35 0.005 0  0.355 0.005 0  0.36 0.005 0  0.365 0.005 0  0.37 0.005 0  0.375 0.005 0  0.38 0.005 0  0.385 0.005 0  0.39 0.005 0  0.395 0.005 0  0.4 0.005 0  0.405 0.005 0  0.41 0.005 0  0.415 0.005 0  0.42 0.005 0  0.425 0.005 0  0.43 0.005 0  0.435 0.005 0  0.44 0.005 0  0.445 0.005 0  0.45 0.005 0  0.455 0.005 0  0.46 0.005 0  0.465 0.005 0  0.47 0.005 0  0.475 0.005 0  0.48 0.005 0  0.485 0.005 0  0.49 0.005 0  0.495 0.005 0  0.5 0.005 0  0.505 0.005 0  0.51 0.005 0  0.515 0.005 0  0.52 0.005 0  0.525 0.005 0  0.53 0.005 0  0.535 0.005 0  0.54 0.005 0  0.545 0.005 0  0.55 0.005 0  0.555 0.005 0  0.5600000000000001 0.005 0  0.5649999999999999 0.005 0  0.57 0.005 0  0.575 0.005 0  0.58 0.005 0  0.585 0.005 0  0.59 0.005 0  0.595 0.005 0  0.6 0.005 0  0.605 0.005 0  0.61 0.005 0  0.615 0.005 0  0.62 0.005 0  0.625 0.005 0  0.63 0.005 0  0.635 0.005 0  0.64 0.005 0  0.645 0.005 0  0.65 0.005 0  0.655 0.005 0  0.66 0.005 0  0.665 0.005 0  0.67 0.005 0  0.675 0.005 0  0.68 0.005 0  0.6850000000000001 0.005 0  0.6899999999999999 0.005 0  0.695 0.005 0  0.7 0.005 0  0.705 0.005 0  0.71 0.005 0  0.715 0.005 0  0.72 0.005 0  0.725 0.005 0  0.73 0.005 0  0.735 0.005 0  0.74 0.005 0  0.745 0.005 0  0.75 0.005 0  0.755 0.005 0  0.76 0.005 0  0.765 0.005 0  0.77 0.005 0  0.775 0.005 0  0.78 0.005 0  0.785 0.005 0  0.79 0.005 0  0.795 0.005 0  0.8 0.005 0  0.805 0.005 0  0.8100000000000001 0.005 0  0.8149999999999999 0.005 0  0.82 0.005 0  0.825 0.005 0  0.83 0.005 0  0.835 0.005 0  0.84 0.005 0  0.845 0.005 0  0.85 0.005 0  0.855 0.005 0  0.86 0.005 0  0.865 0.005 0  0.87 0.005 0  0.875 0.005 0  0.88 0.005 0  0.885 0.005 0  0.89 0.005 0  0.895 0.005 0  0.9 0.005 0  0.905 0.005 0  0.91 0.005 0  0.915 0.005 0  0.92 0.005 0  0.925 0.005 0  0.93 0.005 0  0.9350000000000001 0.005 0  0.9399999999999999 0.005 0  0.945 0.005 0  0.95 0.005 0  0.955 0.005 0  0.96 0.005 0  0.965 0.005 0  0.97 0.005 0  0.975 0.005 0  0.98 0.005 0  0.985 0.005 0  0.99 0.005 0  0.995 0.005 0  1 0.005 0  0 0.01 0  0.005 0.01 0  0.01 0.01 0  0.015 0.01 0  0.02 0.01 0  0.025 0.01 0  0.03 0.01 0  0.035 0.01 0  0.04 0.01 0  0.045 0.01 0  0.05 0.01 0  0.055 0.01 0  0.06 0.01 0  0.065 0.01 0  0.07000000000000001 0.01 0  0.075 0.01 0  0.08 0.01 0  0.08500000000000001 0.01 0  0.09 0.01 0  0.095 0.01 0  0.1 0.01 0  0.105 0.01 0  0.11 0.01 0  0.115 0.01 0  0.12 0.01 0  0.125 0.01 0  0.13 0.01 0  0.135 0.01 0  0.14 0.01 0  0.145 0.01 0  0.15 0.01 0  0.155 0.01 0  0.16 0.01 0  0.165 0.01 0  0.17 0.01 0  0.175 0.01 0  0.18 0.01 0  0.185 0.01 0  0.19 0.01 0  0.195 0.01 0  0.2 0.01 0  0.205 0.01 0  0.21 0.01 0  0.215 0.01 0  0.22 0.01 0  0.225 0.01 0  0.23 0.01 0  0.235 0.01 0  0.24 0.01 0  0.245 0.01 0  0.25 0.01 0  0.255 0.01 0  0.26 0.01 0  0.265 0.01 0  0.27 0.01 0  0.275 0.01 0  0.28 0.01 0  0.285 0.01 0  0.29 0.01 0  0.295 0.01 0  0.3 0.01 0  0.305 0.01 0  0.31 0.01 0  0.315 0.01 0  0.32 0.01 0  0.325 0.01 0  0.33 0.01 0  0.335 0.01 0  0.34 0.01 0  0.345 0.01 0  0.35 0.01 0  0.355 0.01 0  0.36 0.01 0  0.365 0.01 0  0.37 0.01 0  0.375 0.01 0  0.38 0.01 0  0.385 0.01 0  0.39 0.01 0  0.395 0.01 0  0.4 0.01 0  0.405 0.01 0  0.41 0.01 0  0.415 0.01 0  0.42 0.01 0  0.425 0.01 0  0.43 0.01 0  0.435 0.01 0  0.44 0.01 0  0.445 0.01 0  0.45 0.01 0  0.455 0.01 0  0.46 0.01 0  0.465 0.01 0  0.47 0.01 0  0.475 0.01 0  0.48 0.01 0  0.485 0.01 0  0.49 0.01 0  0.495 0.01 0  0.5 0.01 0  0.505 0.01 0  0.51 0.01 0  0.515 0.01 0  0.52 0.01 0  0.525 0.01 0  0.53 0.01 0  0.535 0.01 0  0.54 0.01 0  0.545 0.01 0  0.55 0.01 0  0.555 0.01 0  0.5600000000000001 0.01 0  0.5649999999999999 0.01 0  0.57 0.01 0  0.575 0.01 0  0.58 0.01 0  0.585 0.01 0  0.59 0.01 0  0.595 0.01 0  0.6 0.01 0  0.605 0.01 0  0.61 0.01 0  0.615 0.01 0  0.62 0.01 0  0.625 0.01 0  0.63 0.01 0  0.635 0.01 0  0.64 0.01 0  0.645 0.01 0  0.65 0.01 0  0.655 0.01 0  0.66 0.01 0  0.665 0.01 0  0.67 0.01 0  0.675 0.01 0  0.68 0.01 0  0.6850000000000001 0.01 0  0.6899999999999999 0.01 0  0.695 0.01 0  0.7 0.01 0  0.705 0.01 0  0.71 0.01 0  0.715 0.01 0  0.72 0.01 0  0.725 0.01 0  0.73 0.01 0  0.735 0.01 0  0.74 0.01 0  0.745 0.01 0  0.75 0.01 0  0.755 0.01 0  0.76 0.01 0  0.765 0.01 0  0.77 0.01 0  0.775 0.01 0  0.78 0.01 0  0.785 0.01 0  0.79 0.01 0  0.795 0.01 0  0.8 0.01 0  0.805 0.01 0  0.8100000000000001 0.01 0  0.8149999999999999 0.01 0  0.82 0.01 0  0.825 0.01 0  0.83 0.01 0  0.835 0.01 0  0.84 0.01 0  0.845 0.01 0  0.85 0.01 0  0.855 0.01 0  0.86 0.01 0  0.865 0.01 0  0.87 0.01 0  0.875 0.01 0  0.88 0.01 0  0.885 0.01 0  0.89 0.01 0  0.895 0.01 0  0.9 0.01 0  0.905 0.01 0  0.91 0.01 0  0.915 0.01 0  0.92 0.01 0  0.925 0.01 0  0.93 0.01 0  0.9350000000000001 0.01 0  0.9399999999999999 0.01 0  0.945 0.01 0  0.95 0.01 0  0.955 0.01 0  0.96 0.01 0  0.965 0.01 0  0.97 0.01 0  0.975 0.01 0  0.98 0.01 0  0.985 0.01 0  0.99 0.01 0  0.995 0.01 0  1 0.01 0  0 0.015 0  0.005 0.015 0  0.01 0.015 0  0.015 0.015 0  0.02 0.015 0  0.025 0.015 0  0.03 0.015 0  0.035 0.015 0  0.04 0.015 0  0.045 0.015 0  0.05 0.015 0  0.055 0.015 0  0.06 0.015 0  0.065 0.015 0  0.07000000000000001 0.015 0  0.075 0.015 0  0.08 0.015 0  0.08500000000000001 0.015 0  0.09 0.015 0  0.095 0.015 0  0.1 0.015 0  0.105 0.015 0  0.11 0.015 0  0.115 0.015 0  0.12 0.015 0  0.125 0.015 0  0.13 0.015 0  0.135 0.015 0  0.14 0.015 0  0.145 0.015 0  0.15 0.015 0  0.155 0.015 0  0.16 0.015 0  0.165 0.015 0  0.17 0.015 0  0.175 0.015 0  0.18 0.015 0  0.185 0.015 0  0.19 0.015 0  0.195 0.015 0  0.2 0.015 0  0.205 0.015 0  0.21 0.015 0  0.215 0.015 0  0.22 0.015 0  0.225 0.015 0  0.23 0.015 0  0.235 0.015 0  0.24 0.015 0  0.245 0.015 0  0.25 0.015 0  0.255 0.015 0  0.26 0.015 0  0.265 0.015 0  0.27 0.015 0  0.275 0.015 0  0.28 0.015 0  0.285 0.015 0  0.29 0.015 0  0.295 0.015 0  0.3 0.015 0  0.305 0.015 0  0.31 0.015 0  0.315 0.015 0  0.32 0.015 0  0.325 0.015 0  0.33 0.015 0  0.335 0.015 0  0.34 0.015 0  0.345 0.015 0  0.35 0.015 0  0.355 0.015 0  0.36 0.015 0  0.365 0.015 0  0.37 0.015 0  0.375 0.015 0  0.38 0.015 0  0.385 0.015 0  0.39 0.015 0  0.395 0.015 0  0.4 0.015 0  0.405 0.015 0  0.41 0.015 0  0.415 0.015 0  0.42 0.015 0  0.425 0.015 0  0.43 0.015 0  0.435 0.015 0  0.44 0.015 0  0.445 0.015 0  0.45 0.015 0  0.455 0.015 0  0.46 0.015 0  0.465 0.015 0  0.47 0.015 0  0.475 0.015 0  0.48 0.015 0  0.485 0.015 0  0.49 0.015 0  0.495 0.015 0  0.5 0.015 0  0.505 0.015 0  0.51 0.015 0  0.515 0.015 0  0.52 0.015 0  0.525 0.015 0  0.53 0.015 0  0.535 0.015 0  0.54 0.015 0  0.545 0.015 0  0.55 0.015 0  0.555 0.015 0  0.5600000000000001 0.015 0  0.
[...]
<PointData  Scalars="Indicator Function"> 
<DataArray  type="Float64"  Name="Indicator Function"  format="ascii">1.4444474582904269e-34  1.5034291303763442e-18  1.0007996053434853e-18  1.6015484269032388e-17  8.7879118537229256e-18  -1.2248685821860010e-19  -7.9751485142938707e-20  8.9586364054185813e-19  5.1007707123357851e-17  -4.3060135386189762e-20  1.6033457013546084e-18  7.0428779331498034e-17  9.0277966143151681e-36  -2.9851914138002156e-33  5.7326826482139421e-17  -2.2834956813756345e-19  -1.0584097518587232e-19  5.1862077841079434e-18  -1.1860352221611911e-19  -2.6000054249227684e-33  -1.1846441094040770e-17  -1.3504052260896585e-19  -3.1098175625736610e-19  4.5246547391288238e-18  -1.4880444025082941e-19  -6.4694135326886517e-20  -4.2284004388445513e-19  -4.5696015754488976e-19  -6.8839543906977930e-18  3.6111186457260672e-35  -5.0869816137886577e-19  -5.6454859203808832e-19  0.0000000000000000e+00  -2.5827590382492869e-19  3.6837233201690191e-16  -2.7971552612145995e-19  -4.5260900546359616e-19  -6.6111135367215966e-19  -2.2072688984055311e-20  -4.0444528832131953e-33  -1.1248866973959430e-17  1.9259299443872359e-34  -1.2903560370271980e-19  -2.5828004155603360e-19  -2.0779833904154343e-19  -1.5389099353175934e-19  5.6699420401887239e-16  -3.1562485999952800e-19  -5.4061644296568364e-19  -2.7030822148284216e-19  -4.5411271017513190e-19  -4.8130181598200129e-19  -4.8030785491135590e-19  -7.6595936970105490e-19  -3.8297968485052774e-19  -4.4518118923195932e-19  1.8134017238285249e-15  -2.5382665735038834e-19  -4.1220370962929737e-19  -6.5541299223928002e-19  -3.9178532635784485e-19  -8.8174913176792794e-19  -3.0548081743747868e-19  -7.2391214653395069e-19  -4.5143524469786854e-19  -7.7981249635834279e-19  -8.9752348022095382e-19  -1.8661838527653328e-19  5.1331407994362199e-17  -1.0974952916476096e-18  -1.1593369472107634e-18  -5.3651526031509181e-19  -5.1777542599798574e-19  -1.2374616559543864e-18  -1.9197803237730450e-18  -2.3662465032767158e-18  -2.5769062907294303e-18  -2.6235160383088831e-18  -2.3862442088365031e-18  -1.9383242899029847e-18  -9.7978598972604994e-19  5.8459295967642598e-16  -6.9314397650741004e-19  -1.0390397287725248e-18  -7.0848050528106545e-19  -6.1831645339566461e-19  -3.7638045346144042e-19  -5.5843637188407820e-19  -2.9435043285329484e-19  -5.2660187006092050e-19  -2.6330093503046054e-19  -3.7478170503319244e-19  -2.4958329196144460e-19  6.3343012991942052e-16  -1.3072441884795148e-19  -3.9849608372092778e-20  2.4074124304840448e-35  -1.1124580947796072e-20  -5.7008993976851196e-20  -1.2776804620813942e-19  3.2287822927037827e-16  7.2649242544206568e-16  7.4596789743765707e-17  -4.0080900455969295e-17  2.7731870132324379e-16  8.8621094791099178e-17  2.3080482031502040e-16  2.2189321741424178e-16  3.4067727255746274e-17  1.1817399019122193e-16  3.4512664603419266e-31  6.8415123925614305e-18  -1.5948877902116651e-21  2.6394115414948584e-19  2.0706195744719370e-18  6.8981726261089571e-18  -6.9261526313472931e-18  9.0044413525907567e-18  9.8588226368045595e-19  1.0250648275162176e-17  -4.3780079135276884e-18  4.7150156277210927e-18  1.3671656764144393e-17  1.5925118296804899e-17  9.9794388452208794e-19  1.5006966660976274e-18  1.1370144443075178e-17  1.3834955609598677e-18  1.6784623900858861e-19  -2.4555606790937257e-33  9.9320138799532279e-20  1.1538574996563862e-19  1.3201880071084915e-19  1.1480868839131292e-19  3.9919609643286942e-19  1.0246338136564913e-19  1.3841501421508705e-18  -1.3849814851288993e-22  1.2083599083021373e-18  4.0566552071651060e-19  1.0821293733515818e-18  7.0341097255442716e-19  8.6259300730824690e-20  1.0951356938083460e-18  4.5978106051283410e-19  3.2226726780331691e-18  3.6061506857105917e-19  3.6986902502433366e-18  8.2461153623906219e-18  6.9694139903050830e-19  1.1667253056878165e-18  1.7357098131702198e-17  9.3945160701892290e-18  8.5468038059493734e-19  -3.4422337069683542e-19  1.0483977448150820e-18  1.7856189671064531e-19  5.1596647866139299e-19  2.2275811116654702e-19  -1.3452677534564056e-19  3.3538514192633702e-19  -7.3238101587352508e-20  -1.7537330323237295e-21  2.1742402649432118e-18  4.6430697192057385e-19  2.1456700224457029e-18  1.8752211310151943e-19  1.0759518194677442e-19  2.4468208568897608e-18  2.9046754230412030e-19  1.7184437040810136e-18  2.3318395397346536e-19  1.0113322811420266e-18  1.1874808088528059e-19  2.9237789396603626e-19  4.8589869570821984e-20  6.8594243290954764e-19  1.2970792729426443e-19  7.1790595707811744e-19  7.0355433973311782e-20  6.3838859368995443e-20  7.7089456689065076e-20  5.2828323382814376e-21  -2.6378684137877123e-21  4.7268208904764779e-21  1.1259588611491628e-21  5.9186400709070933e-20  -1.0940719925153688e-23  1.4583140595088268e-20  2.9775722827522575e-20  3.5345876666490164e-20  7.9260315192081251e-21  3.7701158085669932e-20  4.7854207940709767e-22  1.7439972549921310e-20  5.6975776781637155e-22  -9.5231733376478804e-22  1.4104604716613131e-20  4.0227088404882264e-21  1.9116602090252389e-20  -5.6423728839469800e-37  4.2129717533470784e-35  7.8682301703320782e-04  1.4452007252299871e-04  1.7587320744179291e-03  2.2584699751092121e-03  1.9776259162026509e-03  2.2065270761242799e-03  1.4366750350879218e-03  1.9358616747746020e-03  1.5729803040894629e-03  1.2960189830529812e-04  8.7814895164282415e-04  2.5026679460940510e-04  4.6063352362384270e-04  6.9137006902543659e-03  5.5298971930525425e-03  4.1135801198981760e-03  1.9066615056305388e-03  4.2731422276587371e-03  1.6422451587239579e-03  4.0161179089170662e-03  4.8653475784132443e-03  3.1104785579362084e-03  5.6021492863988255e-03  5.3612449733176862e-03  1.6430310992275227e-04  6.1469452878173073e-03  1.1012748989415330e-02  4.5526090338231726e-03  4.0916255649533217e-03  1.7011813525225083e-02  6.5798463750711992e-04  9.8410109961875273e-03  9.3053701137982333e-03  5.5086241943700870e-03  1.0077813913682789e-02  1.6306957986803053e-02  4.6578113052349254e-03  1.1909523384193370e-02  3.9762621553462551e-04  2.8629630151219758e-03  1.6581438503797301e-03  4.6489975740247672e-03  9.3055191912719271e-03  7.4867241782056154e-03  1.1954443228713051e-03  2.1745315230657083e-03  6.9754343141845024e-04  5.6857920075309596e-03  9.7388800443624652e-03  1.6361134658631427e-02  1.7340725432874262e-02  1.1848288636610348e-02  2.7283127873024395e-03  1.3798297327866445e-02  1.6039342703500003e-02  6.2075133472677575e-03  9.1450691156792531e-03  1.4851203784697916e-02  1.8543625219287886e-03  1.4115553998355346e-02  9.7561477608301937e-03  1.1006106364642096e-02  8.2285954535055821e-03  8.9265441667643140e-03  3.6690623158307542e-03  1.8889419442365930e-02  6.7236359231344729e-03  4.6676051681476703e-03  9.4110288377403425e-03  1.5065203127150017e-02  1.3352156210245955e-02  2.9889216006115517e-03  9.3274128623445137e-03  1.7628420979393544e-02  2.5769477313413208e-02  2.9741768824988416e-02  3.1550532430296777e-02  3.1485797194965227e-02  2.7243855521441693e-02  2.1295818438200203e-02  7.0023460538321657e-03  2.8181790164522069e-03  1.1077482309025397e-02  1.3178934586779637e-02  6.1733828649424430e-03  1.1138598996439045e-02  1.2109679816144020e-03  1.0059895345309064e-02  2.7259832620323660e-04  9.4864159431158716e-03  1.3502933977062115e-02  8.9921857654032787e-03  6.0703589058350499e-03  3.3529608664552655e-03  2.3549217760474358e-03  7.1786672566166883e-04  4.0080526888917808e-04  2.0539654722473125e-03  2.0232320655176623e-03  1.2900484684126123e-03  2.3477089006117098e-03  3.3847585349902022e-03  1.8073424616591176e-03  7.4343962949596375e-04  3.7731746309143700e-04  1.6154568389622239e-04  3.3855465799648798e-05  1.6921556311630460e-03  1.4758939380593027e-04  1.2251377925980288e-04  3.6471197339956839e-05  3.3448044350949964e-05  1.2006922055307859e-05  2.2082773709462028e-04  3.1380411786345732e-04  4.2510098813090493e-04  1.1264342779925698e-04  2.1072686054322622e-04  2.5486364192101166e-04  5.7147062411203335e-04  3.7358833775203001e-04  1.5942225379756981e-04  1.0207714107983178e-04  1.1872804558114816e-04  1.6352303258887997e-04  9.5431414045711062e-05  5.3192174344817813e-05  2.8018814340556998e-05  1.0629782047147384e-05  1.1676590105785695e-06  4.4729814008794926e-06  9.7511301531410862e-06  1.5684539457322431e-05  1.9020024860453852e-05  1.9675380061743999e-05  1.5032325144363298e-05  7.7609136454863120e-06  4.4074307141222059e-07  1.6575756169689215e-05  3.4824587353837080e-05  4.7342034334663363e-05  4.7336136033663428e-05  4.3416712608737521e-05  4.0452051258130476e-05  1.9640217768855782e-05  2.6681072161668869e-06  2.1415667576969911e-05  9.5230333179967958e-05  1.7429117539612211e-04  2.0546076167660663e-04  1.5261025663177658e-04  5.7291386842745334e-05  1.5271493890073539e-05  5.3743786958395093e-05  6.9283969704100797e-05  6.9394771973954684e-05  6.1274371827516459e-05  5.0904780905778022e-05  4.0795556791237531e-05  3.2461539651194397e-05  2.5439053522392927e-05  2.2108903835309204e-05  2.7597710129609836e-05  4.2723695272000608e-05  6.3580817710182075e-05  8.3922592184792401e-05  9.2262934131438792e-05  8.7372445171651783e-05  7.6034210504445293e-05  6.2872309189051454e-05  5.0233044669025869e-05  3.9673930537139759e-05  3.0849917812024754e-05  2.5475061340405373e-05  2.4109275873347426e-05  2.1915556926816153e-05  1.6784833084958373e-05  1.0914156140962521e-05  6.1989717031697012e-06  3.0181867165349888e-06  1.0945327456290818e-06  1.1861824843120640e-07  2.3791761750146382e-07  5.3662693285883682e-07  7.4883323720272908e-07  6.9593886538556043e-07  5.1556641853726943e-07  3.2948514628119073e-07  1.7908246421443103e-07  5.1845730948618475e-08  5.1966142350600677e-08  1.1635263663195502e-07  1.5507653781845739e-07  1.7643431145119478e-07  1.8919821537786855e-07  2.1462132631694042e-07  2.5660670222754499e-07  2.3569823318578352e-07  5.3187308433341927e-08  1.4762443610132542e-24  7.8240903990731457e-35  2.6287399094716037e-03  3.7108198119376826e-03  1.1991673762562929e-03  2.8490232464456161e-03  4.0655700553293532e-03  3.3707399954512567e-04  7.8820923920955438e-03  2.5022162518216837e-04  6.3815969638450366e-03  4.5848106842901384e-03  4.9651291377498259e-03  1.0674948186491074e-02  4.9335764345330305e-03  2.3509856573255303e-03  7.6249862975929662e-03  1.0084863235090192e-02  1.7308890776252146e-02  6.5903382809023910e-03  3.5403490618119513e-03  8.3649860059027501e-03  2.0413619288372386e-02  8.1628154479722811e-03  1.2954180770500227e-02  5.5638260859365921e-03  1.1419086212423936e-02  5.5999062880503084e-04  6.3529368210586403e-03  1.3915279717824820e-03  2.4767448246266557e-02  2.1312883636920026e-03  1.2947882928985813e-02  2.3581511970110949e-02  9.7823742071555496e-03  2.3397310666549334e-02  1.4160715297545473e-02  1.1667011298037012e-03  6.8076282043122601e-04  2.0955353525270618e-02  8.9454505466181004e-03  1.5485203455419688e-02  2.7585479381695897e-02  2.3459996234935086e-02  2.6068434387670539e-02  3.3803084514232258e-02  3.2679581174748375e-02  2.2765009186073812e-02  2.0605040795653246e-02  3.3217582232994342e-02  3.1969999657159132e-02  1.8613478458932301e-02  8.1598178419604803e-03  3.1933485853015454e-02  4.5440297812454518e-02  3.7745384149031377e-02  1.8977117445792779e-02  7.2696806245591732e-03  2.6006010790986651e-02  1.5912708519199289e-02  1.3489517108468642e-02  1.6200342200864439e-02  1.7365439291200904e-02  3.7871117070823426e-02  7.2166363149437337e-03  1.2422989219113809e-02  1.7269367823232271e-02  1.8677457188362934e-02  2.7705418054684228e-02  7.2208299320442202e-03  1.6702556797761392e-02  1.3636984560231574e-02  1.9378998409895931e-02  9.3349650067465761e-03  5.7017357446569085e-03  2.0314734840551307e-02  3.4752848928732698e-02  3.6004081600300004e-02  4.4696798928720353e-02  4.0839875556029505e-02  4.3849238940296256e-02  3.0805388537302896e-02  1.8379505231512449e-02  8.1220683668983243e-04  9.9993825194271153e-03  1.6514183158480755e-02  1.7651246367688989e-02  1.0243063437441609e-02  1.5222991281753633e-02  1.8162092603100994e-02  8.0933790367668217e-03  1.6441533149147595e-02  1.0359789423931584e-02  1.2431528958782901e-04  1.7916539649708403e-03  4.7863335910251414e-03  6.8850555105233928e-03  5.0487259440015796e-03  3.4215533391198758e-03  2.1725550010416326e-03  4.2067777708192965e-03  7.8414013832562527e-03  5.2648700695770876e-03  2.1217416439817311e-03  2.6354067121107595e-03  3.6605254638586954e-03  2.9247268435659453e-03  2.2270839639819103e-03  1.8996340776435531e-03  2.4643528517296533e-03  1.2644639122540177e-03  4.7877671118332733e-04  3.4817732579380277e-04  3.1460386616172460e-05  1.4948622476157190e-04  1.5157621241450593e-04  5.4418958289484734e-04  1.1206882731955866e-04  7.1948839629892966e-04  1.9908976892190358e-04  6.5615810141429634e-04  3.7988256505784140e-04  9.1400777804803474e-04  1.4001954989864177e-04  1.7949648182909200e-04  1.6699086899554217e-05  2.5397574144461049e-04  1.6394791697613590e-04  8.1238190382721548e-05  5.5221443486089492e-05  2.8785594284322531e-05  8.4999132163257335e-06  2.5057384257612073e-06  1.0423523544208319e-05  1.8632697897593500e-05  2.5314911041971269e-05  2.6726741310181736e-05  2.4114554375709675e-05  1.3107046107386596e-05  4.0412594443689468e-06  1.3156008696810972e-05  3.9610555716925773e-05  6.0978985796993906e-05  6.7206526152328771e-05  5.8805200973999490e-05  5.7443339787851263e-05  4.4458066730560571e-05  5.6274243528090062e-06  6.7081472591785120e-06  9.1844079485845989e-05  2.0678584393022943e-04  2.7912335134472674e-04  2.4616950691655633e-04  1.1866101393169902e-04  4.0801996768051891e-06  5.4720424079734394e-05  8.3858283064067963e-05  9.4356437616241993e-05  8.9078691386289694e-05  7.6635777477378566e-05  6.2717657257995509e-05  5.0296809356953691e-05  4.0162220286187809e-05  3.2778737010363624e-05  3.4875101461425261e-05  5.1696594680644322e-05  7.7673304241880021e-05  1.0663079118195269e-04  1.2563532865330374e-04  1.2385052031048751e-04  1.1031845888058653e-04  9.3426292898561290e-05  7.6145716090094242e-05  6.0580897146881571e-05  4.7670454065294041e-05  3.7405277743279200e-05  3.3762601148990233e-05  3.2339922733363909e-05  2.6232747263142280e-05  1.7526190026832731e-05  1.0350370625797452e-05  5.4823909344253323e-06  2.3544113705561765e-06  4.5806992578035088e-07  3.4724822046954693e-07  7.3874507549030687e-07  1.1831252137973977e-06  1.2567123664773835e-06  9.9845149793365496e-07  7.0868886790950199e-07  4.6883355636107853e-07  2.7869384917515260e-07  1.0622791331715237e-07  2.2963394034976226e-08  1.0742580578638610e-07  1.6837380466207028e-07  1.9995212251408167e-07  2.2645530243543262e-07  3.1430283933990482e-07  4.2575983287789422e-07  3.6824896752134353e-07  9.1988658570747584e-23  -1.5329086985392224e-20  8.6374337296213463e-04  1.0361090299077799e-03  1.3448574799188804e-04  2.5371479691099447e-03  9.2400810962418312e-03  3.6462180392332481e-04  8.4182240741742312e-03  8.3930001242951986e-03  4.6740018358839217e-03  8.1943706844395791e-03  2.7104654876394310e-03  5.8258669783704435e-03  6.7066754687722455e-03  1.0756307463252454e-05  9.0379353087423949e-03  1.5777858432622867e-02  2.0192599194081364e-02  1.2839962988292928e-02  9.4707385656057717e-03  7.2156526526903761e-03  1.1288236336872307e-03  4.7716546764739040e-03  9.3596513937742529e-03  1.8580129099191319e-02  2.1962810055981045e-03  1.2967219861347631e-03  1.2221086646961947e-02  2.8263705162490362e-02  3.8565323923287144e-03  1.3622907389059311e-02  2.7352399017639896e-02  1.1371624886474196e-02  2.9009811317798024e-02  4.3263338779361664e-03  7.3208624803341119e-03  1.8032826785266902e-02  3.8047414695498424e-02  2.5236978391711282e-02  3.3858556371181805e-02  1.4832937007907256e-02  4.2418543496610421e-03  1.2812863090502421e-02  6.0203077597984411e-03  6.6234468192704560e-03  5.4537287965229211e-03  6.9218732086167335e-03  1.5676537147243780e-02  1.6128299162431102e-02  2.8001995681504598e-02  3.7407004966180407e-02  4.5047441805319596e-02  3.8118555808594079e-02  1.7768965937574429e-02  1.8969105851503919e-02  4.7211487302109494e-02  4.9776758961125815e-02  1.7819097451181685e-02  2.6788079865508081e-02  4.1906441916816445e-02  8.3099394579304667e-03  3.0608420138634813e-02  2.0694178117079423e-02  2.8320849777168613e-02  2.8916637681869459e-02  1.1645314742490368e-02  4.7025927621511922e-03  4.2572174291045470e-02  5.5393050003604049e-03  1.8217679882617448e-02  1.7276727282377290e-02  2.0997773005149104e-02  1.7010980427250407e-02  2.9093547869137198e-03  1.9998501726218042e-02  2.7875479572450550e-02  4.2482115456150042e-02  4.4133508849782496e-02  4.8764633892685323e-02  4.5680453077473537e-02  4.0687365559078759e-02  2.9390728044182482e-02  4.7924600776749543e-03  7.7919327152899918e-03  1.7036361972279524e-02  1.7079687752313177e-02  7.5274810096410882e-03  2.7353997498982638e-02  1.8299064720965442e-03  2.8740322915256064e-02  4.5149235225718041e-03  2.7284258181057161e-02  3.9114082696470660e-02  2.7769581879681624e-02  1.8885301496018171e-02  1.2936110224386921e-02  1.0022622454590081e-02  5.2871032236970292e-03  1.2031006950916508e-03  3.0175899865730509e-03  3.0747151750550473e-03  4.5267834880527427e-03  8.1738318120588502e-03  8.9941082884433185e-03  4.4692606972883990e-03  7.9081568161731733e-04  4.3415245832244660e-04  5.6163190285924314e-04  8.4916015991722254e-04  4.0075527356153544e-03  6.8320213101668258e-04  2.4188678469545718e-04  3.1312577700050932e-04  1.0723812670481505e-04  7.8470705728641391e-05  4.2157987792545135e-04  6.1367638808315075e-04  1.0279301612398806e-03  1.4694473960362697e-04  6.4361015579950310e-05  5.8956434443221972e-04  1.3029072182503235e-03  5.4042376979632678e-04  4.8441166843557510e-05  1.5295593540205153e-04  2.2128722750602750e-04  2.6214717888874318e-04  9.2183475443481631e-05  5.7498070269085585e-05  4.7725363854798275e-05  2.2294345928846949e-05  3.8786401101724860e-06  7.0295761234795141e-06  1.6472786716357445e-05  2.6164539377120058e-05  2.9712305014693871e-05  2.8663215700910783e-05  1.9634133744079761e-05  6.6374336884409116e-06  4.1400419506692400e-06  3.1651792484762145e-05  6.0498591387539358e-05  7.5682412103203923e-05  6.8807615671858120e-05  5.9923010774179551e-05  6.0993001260005409e-05  2.6072184978069090e-05  9.8887740087935062e-06  5.0109265983117060e-05  1.8756332363263905e-04  2.9886690865370838e-04  3.1088971833464243e-04  1.8694937876771183e-04  2.8727089282626574e-05  4.9212621052673822e-05  7.5950446615642475e-05  9.2911154442663619e-05  9.7163216178177225e-05  8.8631310963808996e-05  7.5634076256542098e-05  6.1775400829057199e-05  5.0308499087710694e-05  4.0403648561751660e-05  3.6656747773988695e-05  4.8869558726496949e-05  7.5890892942093809e-05  1.0730337294008031e-04  1.3501495760300831e-04  1.4113544949723931e-04  1.2754068982487814e-04  1.0954608115918165e-04  9.1635430110678843e-05  7.4261437061537582e-05  5.9469369651415694e-05  4.6498715550287074e-05  3.8680826696967822e-05  3.7966795694363394e-05  3.3896066453839348e-05  2.3620095472315367e-05  1.3885660225137185e-05  7.7417379692291613e-06  3.9870932787418296e-06  1.4805605609513136e-06  7.5819493939422372e-09  5.7876937877776541e-07  1.1713737920738902e-06  1.5988099752095152e-06  1.4241872435808254e-06  1.0622622562081245e-06  7.7044131578855942e-07  5.4954960170257807e-07  3.4773118295267035e-07  1.7125433133652157e-07  6.3131478550485334e-08  1.4639721239332290e-08  7.9088899447213033e-08  1.2935215857501914e-07  1.9203235935184371e-07  2.9380146363669387e-07  2.9937404650569378e-07  -2.6338420298111879e-36  -2.8888949165808538e-34  2.7614428174137072e-04  1.9325032980071616e-03  7.4689962839065843e-03  2.9103891675691130e-04  5.8400596718552326e-04  2.6149520460405991e-03  4.3177567429894424e-03  6.9530374464087585e-03  2.2675468865409904e-03  6.0345200552362485e-03  6.4244379722042553e-03  5.3228110121272603e-03  1.3329933662446889e-02  9.5466009352527300e-03  1.2306039936738108e-03  1.7933406038053903e-02  5.4273634514401346e-04  2.0796540678939223e-02  1.2226888956715976e-02  9.843642597979245