<?xml version="1.0"?>
<VTKFile type="UnstructuredGrid"  version="0.1"  >
<UnstructuredGrid>
<Piece  NumberOfPoints="2601" NumberOfCells="5000">
<Points>
<DataArray  type="Float64"  NumberOfComponents="3"  format="ascii">0 0 0  0.02 0 0  0.04 0 0  0.06 0 0  0.08 0 0  0.1 0 0  0.12 0 0  0.14 0 0  0.16 0 0  0.18 0 0  0.2 0 0  0.22 0 0  0.24 0 0  0.26 0 0  0.28 0 0  0.3 0 0  0.32 0 0  0.34 0 0  0.36 0 0  0.38 0 0  0.4 0 0  0.42 0 0  0.44 0 0  0.46 0 0  0.48 0 0  0.5 0 0  0.52 0 0  0.54 0 0  0.5600000000000001 0 0  0.58 0 0  0.6 0 0  0.62 0 0  0.64 0 0  0.66 0 0  0.68 0 0  0.7 0 0  0.72 0 0  0.74 0 0  0.76 0 0  0.78 0 0  0.8 0 0  0.82 0 0  0.84 0 0  0.86 0 0  0.88 0 0  0.9 0 0  0.92 0 0  0.9399999999999999 0 0  0.96 0 0  0.98 0 0  1 0 0  0 0.02 0  0.02 0.02 0  0.04 0.02 0  0.06 0.02 0  0.08 0.02 0  0.1 0.02 0  0.12 0.02 0  0.14 0.02 0  0.16 0.02 0  0.18 0.02 0  0.2 0.02 0  0.22 0.02 0  0.24 0.02 0  0.26 0.02 0  0.28 0.02 0  0.3 0.02 0  0.32 0.02 0  0.34 0.02 0  0.36 0.02 0  0.38 0.02 0  0.4 0.02 0  0.42 0.02 0  0.44 0.02 0  0.46 0.02 0  0.48 0.02 0  0.5 0.02 0  0.52 0.02 0  0.54 0.02 0  0.5600000000000001 0.02 0  0.58 0.02 0  0.6 0.02 0  0.62 0.02 0  0.64 0.02 0  0.66 0.02 0  0.68 0.02 0  0.7 0.02 0  0.72 0.02 0  0.74 0.02 0  0.76 0.02 0  0.78 0.02 0  0.8 0.02 0  0.82 0.02 0  0.84 0.02 0  0.86 0.02 0  0.88 0.02 0  0.9 0.02 0  0.92 0.02 0  0.9399999999999999 0.02 0  0.96 0.02 0  0.98 0.02 0  1 0.02 0  0 0.04 0  0.02 0.04 0  0.04 0.04 0  0.06 0.04 0  0.08 0.04 0  0.1 0.04 0  0.12 0.04 0  0.14 0.04 0  0.16 0.04 0  0.18 0.04 0  0.2 0.04 0  0.22 0.04 0  0.24 0.04 0  0.26 0.04 0  0.28 0.04 0  0.3 0.04 0  0.32 0.04 0  0.34 0.04 0  0.36 0.04 0  0.38 0.04 0  0.4 0.04 0  0.42 0.04 0  0.44 0.04 0  0.46 0.04 0  0.48 0.04 0  0.5 0.04 0  0.52 0.04 0  0.54 0.04 0  0.5600000000000001 0.04 0  0.58 0.04 0  0.6 0.04 0  0.62 0.04 0  0.64 0.04 0  0.66 0.04 0  0.68 0.04 0  0.7 0.04 0  0.72 0.04 0  0.74 0.04 0  0.76 0.04 0  0.78 0.04 0  0.8 0.04 0  0.82 0.04 0  0.84 0.04 0  0.86 0.04 0  0.88 0.04 0  0.9 0.04 0  0.92 0.04 0  0.9399999999999999 0.04 0  0.96 0.04 0  0.98 0.04 0  1 0.04 0  0 0.06 0  0.02 0.06 0  0.04 0.06 0  0.06 0.06 0  0.08 0.06 0  0.1 0.06 0  0.12 0.06 0  0.14 0.06 0  0.16 0.06 0  0.18 0.06 0  0.2 0.06 0  0.22 0.06 0  0.24 0.06 0  0.26 0.06 0  0.28 0.06 0  0.3 0.06 0  0.32 0.06 0  0.34 0.06 0  0.36 0.06 0  0.38 0.06 0  0.4 0.06 0  0.42 0.06 0  0.44 0.06 0  0.46 0.06 0  0.48 0.06 0  0.5 0.06 0  0.52 0.06 0  0.54 0.06 0  0.5600000000000001 0.06 0  0.58 0.06 0  0.6 0.06 0  0.62 0.06 0  0.64 0.06 0  0.66 0.06 0  0.68 0.06 0  0.7 0.06 0  0.72 0.06 0  0.74 0.06 0  0.76 0.06 0  0.78 0.06 0  0.8 0.06 0  0.82 0.06 0  0.84 0.06 0  0.86 0.06 0  0.88 0.06 0  0.9 0.06 0  0.92 0.06 0  0.9399999999999999 0.06 0  0.96 0.06 0  0.98 0.06 0  1 0.06 0  0 0.08 0  0.02 0.08 0  0.04 0.08 0  0.06 0.08 0  0.08 0.08 0  0.1 0.08 0  0.12 0.08 0  0.14 0.08 0  0.16 0.08 0  0.18 0.08 0  0.2 0.08 0  0.22 0.08 0  0.24 0.08 0  0.26 0.08 0  0.28 0.08 0  0.3 0.08 0  0.32 0.08 0  0.34 0.08 0  0.36 0.08 0  0.38 0.08 0  0.4 0.08 0  0.42 0.08 0  0.44 0.08 0  0.46 0.08 0  0.48 0.08 0  0.5 0.08 0  0.52 0.08 0  0.54 0.08 0  0.5600000000000001 0.08 0  0.58 0.08 0  0.6 0.08 0  0.62 0.08 0  0.64 0.08 0  0.66 0.08 0  0.68 0.08 0  0.7 0.08 0  0.72 0.08 0  0.74 0.08 0  0.76 0.08 0  0.78 0.08 0  0.8 0.08 0  0.82 0.08 0  0.84 0.08 0  0.86 0.08 0  0.88 0.08 0  0.9 0.08 0  0.92 0.08 0  0.9399999999999999 0.08 0  0.96 0.08 0  0.98 0.08 0  1 0.08 0  0 0.1 0  0.02 0.1 0  0.04 0.1 0  0.06 0.1 0  0.08 0.1 0  0.1 0.1 0  0.12 0.1 0  0.14 0.1 0  0.16 0.1 0  0.18 0.1 0  0.2 0.1 0  0.22 0.1 0  0.24 0.1 0  0.26 0.1 0  0.28 0.1 0  0.3 0.1 0  0.32 0.1 0  0.34 0.1 0  0.36 0.1 0  0.38 0.1 0  0.4 0.1 0  0.42 0.1 0  0.44 0.1 0  0.46 0.1 0  0.48 0.1 0  0.5 0.1 0  0.52 0.1 0  0.54 0.1 0  0.5600000000000001 0.1 0  0.58 0.1 0  0.6 0.1 0  0.62 0.1 0  0.64 0.1 0  0.66 0.1 0  0.68 0.1 0  0.7 0.1 0  0.72 0.1 0  0.74 0.1 0  0.76 0.1 0  0.78 0.1 0  0.8 0.1 0  0.82 0.1 0  0.84 0.1 0  0.86 0.1 0  0.88 0.1 0  0.9 0.1 0  0.92 0.1 0  0.9399999999999999 0.1 0  0.96 0.1 0  0.98 0.1 0  1 0.1 0  0 0.12 0  0.02 0.12 0  0.04 0.12 0  0.06 0.12 0  0.08 0.12 0  0.1 0.12 0  0.12 0.12 0  0.14 0.12 0  0.16 0.12 0  0.18 0.12 0  0.2 0.12 0  0.22 0.12 0  0.24 0.12 0  0.26 0.12 0  0.28 0.12 0  0.3 0.12 0  0.32 0.12 0  0.34 0.12 0  0.36 0.12 0  0.38 0.12 0  0.4 0.12 0  0.42 0.12 0  0.44 0.12 0  0.46 0.12 0  0.48 0.12 0  0.5 0.12 0  0.52 0.12 0  0.54 0.12 0  0.5600000000000001 0.12 0  0.58 0.12 0  0.6 0.12 0  0.62 0.12 0  0.64 0.12 0  0.66 0.12 0  0.68 0.12 0  0.7 0.12 0  0.72 0.12 0  0.74 0.12 0  0.76 0.12 0  0.78 0.12 0  0.8 0.12 0  0.82 0.12 0  0.84 0.12 0  0.86 0.12 0  0.88 0.12 0  0.9 0.12 0  0.92 0.12 0  0.9399999999999999 0.12 0  0.96 0.12 0  0.98 0.12 0  1 0.12 0  0 0.14 0  0.02 0.14 0  0.04 0.14 0  0.06 0.14 0  0.08 0.14 0  0.1 0.14 0  0.12 0.14 0  0.14 0.14 0  0.16 0.14 0  0.18 0.14 0  0.2 0.14 0  0.22 0.14 0  0.24 0.14 0  0.26 0.14 0  0.28 0.14 0  0.3 0.14 0  0.32 0.14 0  0.34 0.14 0  0.36 0.14 0  0.38 0.14 0  0.4 0.14 0  0.42 0.14 0  0.44 0.14 0  0.46 0.14 0  0.48 0.14 0  0.5 0.14 0  0.52 0.14 0  0.54 0.14 0  0.5600000000000001 0.14 0  0.58 0.14 0  0.6 0.14 0  0.62 0.14 0  0.64 0.14 0  0.66 0.14 0  0.68 0.14 0  0.7 0.14 0  0.72 0.14 0  0.74 0.14 0  0.76 0.14 0  0.78 0.14 0  0.8 0.14 0  0.82 0.14 0  0.84 0.14 0  0.86 0.14 0  0.88 0.14 0  0.9 0.14 0  0.92 0.14 0  0.9399999999999999 0.14 0  0.96 0.14 0  0.98 0.14 0  1 0.14 0  0 0.16 0  0.02 0.16 0  0.04 0.16 0  0.06 0.16 0  0.08 0.16 0  0.1 0.16 0  0.12 0.16 0  0.14 0.16 0  0.16 0.16 0  0.18 0.16 0  0.2 0.16 0  0.22 0.16 0  0.24 0.16 0  0.26 0.16 0  0.28 0.16 0  0.3 0.16 0  0.32 0.16 0  0.34 0.16 0  0.36 0.16 0  0.38 0.16 0  0.4 0.16 0  0.42 0.16 0  0.44 0.16 0  0.46 0.16 0  0.48 0.16 0  0.5 0.16 0  0.52 0.16 0  0.54 0.16 0  0.5600000000000001 0.16 0  0.58 0.16 0  0.6 0.16 0  0.62 0.16 0  0.64 0.16 0  0.66 0.16 0  0.68 0.16 0  0.7 0.16 0  0.72 0.16 0  0.74 0.16 0  0.76 0.16 0  0.78 0.16 0  0.8 0.16 0  0.82 0.16 0  0.84 0.16 0  0.86 0.16 0  0.88 0.16 0  0.9 0.16 0  0.92 0.16 0  0.9399999999999999 0.16 0  0.96 0.16 0  0.98 0.16 0  1 0.16 0  0 0.18 0  0.02 0.18 0  0.04 0.18 0  0.06 0.18 0  0.08 0.18 0  0.1 0.18 0  0.12 0.18 0  0.14 0.18 0  0.16 0.18 0  0.18 0.18 0  0.2 0.18 0  0.22 0.18 0  0.24 0.18 0  0.26 0.18 0  0.28 0.18 0  0.3 0.18 0  0.32 0.18 0  0.34 0.18 0  0.36 0.18 0  0.38 0.18 0  0.4 0.18 0  0.42 0.18 0  0.44 0.18 0  0.46 0.18 0  0.48 0.18 0  0.5 0.18 0  0.52 0.18 0  0.54 0.18 0  0.5600000000000001 0.18 0  0.58 0.18 0  0.6 0.18 0  0.62 0.18 0  0.64 0.18 0  0.66 0.18 0  0.68 0.18 0  0.7 0.18 0  0.72 0.18 0  0.74 0.18 0  0.76 0.18 0  0.78 0.18 0  0.8 0.18 0  0.82 0.18 0  0.84 0.18 0  0.86 0.18 0  0.88 0.18 0  0.9 0.18 0  0.92 0.18 0  0.9399999999999999 0.18 0  0.96 0.18 0  0.98 0.18 0  1 0.18 0  0 0.2 0  0.02 0.2 0  0.04 0.2 0  0.06 0.2 0  0.08 0.2 0  0.1 0.2 0  0.12 0.2 0  0.14 0.2 0  0.16 0.2 0  0.18 0.2 0  0.2 0.2 0  0.22 0.2 0  0.24 0.2 0  0.26 0.2 0  0.28 0.2 0  0.3 0.2 0  0.32 0.2 0  0.34 0.2 0  0.36 0.2 0  0.38 0.2 0  0.4 0.2 0  0.42 0.2 0  0.44 0.2 0  0.46 0.2 0  0.48 0.2 0  0.5 0.2 0  0.52 0.2 0  0.54 0.2 0  0.5600000000000001 0.2 0  0.58 0.2 0  0.6 0.2 0  0.62 0.2 0  0.64 0.2 0  0.66 0.2 0  0.68 0.2 0  0.7 0.2 0  0.72 0.2 0  0.74 0.2 0  0.76 0.2 0  0.78 0.2 0  0.8 0.2 0  0.82 0.2 0  0.84 0.2 0  0.86 0.2 0  0.88 0.2 0  0.9 0.2 0  0.92 0.2 0  0.9399999999999999 0.2 0  0.96 0.2 0  0.98 0.2 0  1 0.2 0  0 0.22 0  0.02 0.22 0  0.04 0.22 0  0.06 0.22 0  0.08 0.22 0  0.1 0.22 0  0.12 0.22 0  0.14 0.22 0  0.16 0.22 0  0.18 0.22 0  0.2 0.22 0  0.22 0.22 0  0.24 0.22 0  0.26 0.22 0  0.28 0.22 0  0.3 0.22 0  0.32 0.22 0  0.34 0.22 0  0.36 0.22 0  0.38 0.22 0  0.4 0.22 0  0.42 0.22 0  0.44 0.22 0  0.46 0.22 0  0.48 0.22 0  0.5 0.22 0  0.52 0.22 0  0.54 0.22 0  0.5600000000000001 0.22 0  0.58 0.22 0  0.6 0.22 0  0.62 0.22 0  0.64 0.22 0  0.66 0.22 0  0.68 0.22 0  0.7 0.22 0  0.72 0.22 0  0.74 0.22 0  0.76 0.22 0  0.78 0.22 0  0.8 0.22 0  0.82 0.22 0  0.84 0.22 0  0.86 0.22 0  0.88 0.22 0  0.9 0.22 0  0.92 0.22 0  0.9399999999999999 0.22 0  0.96 0.22 0  0.98 0.22 0  1 0.22 0  0 0.24 0  0.02 0.24 0  0.04 0.24 0  0.06 0.24 0  0.08 0.24 0  0.1 0.24 0  0.12 0.24 0  0.14 0.24 0  0.16 0.24 0  0.18 0.24 0  0.2 0.24 0  0.22 0.24 0  0.24 0.24 0  0.26 0.24 0  0.28 0.24 0  0.3 0.24 0  0.32 0.24 0  0.34 0.24 0  0.36 0.24 0  0.38 0.24 0  0.4 0.24 0  0.42 0.24 0  0.44 0.24 0  0.46 0.24 0  0.48 0.24 0  0.5 0.24 0  0.52 0.24 0  0.54 0.24 0  0.5600000000000001 0.24 0  0.58 0.24 0  0.6 0.24 0  0.62 0.24 0  0.64 0.24 0  0.66 0.24 0  0.68 0.24 0  0.7 0.24 0  0.72 0.24 0  0.74 0.24 0  0.76 0.24 0  0.78 0.24 0  0.8 0.24 0  0.82 0.24 0  0.84 0.24 0  0.86 0.24 0  0.88 0.24 0  0.9 0.24 0  0.92 0.24 0  0.9399999999999999 0.24 0  0.96 0.24 0  0.98 0.24 0  1 0.24 0  0 0.26 0  0.02 0.26 0  0.04 0.26 0  0.06 0.26 0  0.08 0.26 0  0.1 0.26 0  0.12 0.26 0  0.14 0.26 0  0.16 0.26 0  0.18 0.26 0  0.2 0.26 0  0.22 0.26 0  0.24 0.26 0  0.26 0.26 0  0.28 0.26 0  0.3 0.26 0  0.32 0.26 0  0.34 0.26 0  0.36 0.26 0  0.38 0.26 0  0.4 0.26 0  0.42 0.26 0  0.44 0.26 0  0.46 0.26 0  0.48 0.26 0  0.5 0.26 0  0.52 0.26 0  0.54 0.26 0  0.5600000000000001 0.26 0  0.58 0.26 0  0.6 0.26 0  0.62 0.26 0  0.64 0.26 0  0.66 0.26 0  0.68 0.26 0  0.7 0.26 0  0.72 0.26 0  0.74 0.26 0  0.76 0.26 0  0.78 0.26 0  0.8 0.26 0  0.82 0.26 0  0.84 0.26 0  0.86 0.26 0  0.88 0.26 0  0.9 0.26 0  0.92 0.26 0  0.9399999999999999 0.26 0  0.96 0.26 0  0.98 0.26 0  1 0.26 0  0 0.28 0  0.02 0.28 0  0.04 0.28 0  0.06 0.28 0  0.08 0.28 0  0.1 0.28 0  0.12 0.28 0  0.14 0.28 0  0.16 0.28 0  0.18 0.28 0  0.2 0.28 0  0.22 0.28 0  0.24 0.28 0  0.26 0.28 0  0.28 0.28 0  0.3 0.28 0  0.32 0.28 0  0.34 0.28 0  0.36 0.28 0  0.38 0.28 0  0.4 0.28 0  0.42 0.28 0  0.44 0.28 0  0.46 0.28 0  0.48 0.28 0  0.5 0.28 0  0.52 0.28 0  0.54 0.28 0  0.5600000000000001 0.28 0  0.58 0.28 0  0.6 0.28 0  0.62 0.28 0  0.64 0.28 0  0.66 0.28 0  0.68 0.28 0  0.7 0.28 0  0.72 0.28 0  0.74 0.28 0  0.76 0.28 0  0.78 0.28 0  0.8 0.28 0  0.82 0.28 0  0.84 0.28 0  0.86 0.28
[...]
<PointData  Scalars="Indicator Function"> 
<DataArray  type="Float64"  Name="Indicator Function"  format="ascii">-7.5197533803908852e-22  1.5176038488406620e-17  -1.6168966039420383e-18  2.9789219232505914e-17  9.3919594035356829e-18  -4.2801677059165885e-19  -1.9343018559157532e-18  4.1817872005289012e-16  2.1313630216475655e-16  -9.9806590514241179e-19  1.7890417625984569e-16  4.7217023176958964e-16  -2.9791553773910302e-19  -1.0215326171359963e-32  -5.2840390252796797e-17  -2.0713899029627900e-18  -7.7124545211839275e-19  2.4027161333283217e-16  -9.2016270573625561e-19  -1.3848222860405706e-18  1.3159684960750229e-16  -1.0920965907234604e-18  -9.8708794415773311e-19  4.8013415419995711e-16  2.1106045808594964e-34  -6.6662119229349079e-19  -3.0721076205763714e-19  -1.5114248249671017e-19  1.6241031686040132e-16  -9.8526890037860213e-22  -2.4928691616133907e-20  -1.2464345808066949e-20  -7.7026274976091341e-20  -9.0865770435901972e-20  -6.4419170403049728e-19  -5.0211259596270144e-20  5.2765114521487412e-36  -2.1272305336383176e-20  -6.3274838508791810e-20  -7.2427252971726834e-20  4.1112369266519949e-17  -3.5148471525291255e-20  -6.3652319061799583e-20  -7.2382393773178374e-20  -5.9649851361927968e-20  -3.1651439094771797e-20  3.9383179564306781e-18  -4.9381473419307210e-21  -2.1875882139303625e-21  -9.5307052862436821e-22  1.0553022904297482e-35  -8.2683158177949186e-19  7.9737920010150808e-03  2.4793018103845214e-03  1.8523845310442796e-03  1.0908217145665595e-02  1.5420929348359340e-02  7.5626452459677160e-04  3.4845284470096945e-02  1.5895975758452911e-02  3.2057853596533549e-02  1.7979556953962226e-02  3.1961971301677451e-03  1.0733538437997635e-02  1.0308978102821774e-02  1.8639610381570113e-02  1.9055594668631340e-02  2.7787045846173246e-02  3.6513719338604950e-02  2.2733196799011732e-02  9.1014074239730448e-03  2.0396036813560125e-02  3.4752214596230430e-02  2.2973558980238389e-03  1.7781795589962748e-02  1.5641145246329934e-02  1.8806912492502382e-03  1.1068434188215842e-02  5.4454818228161471e-03  6.3439950448631352e-04  3.5498053220838277e-05  1.2442855869356084e-04  4.4907538509301851e-04  6.1743779647357370e-04  1.0788631148834623e-03  1.0974606420617111e-03  1.2032640440798744e-03  3.0289361799032454e-04  8.9610164173110183e-05  3.8320778554498664e-04  9.4825426374799896e-04  8.3060626610574487e-04  3.9608864688509053e-04  4.3513424961323134e-04  9.2909111682533798e-04  8.3937972808761333e-04  6.5486632942133021e-04  2.4274847254115046e-04  2.0283164790608438e-05  7.8816171720774914e-05  3.4337984620564030e-05  -5.2536708933429952e-21  1.3507869317500778e-33  2.0176535523713780e-02  2.3244756093962145e-02  8.7337110893791724e-03  1.1207052563320684e-02  1.3778702955275104e-02  2.9207274589179589e-02  3.3863437295430010e-02  9.9522438768411652e-03  3.3966182103986428e-02  2.3159476664792199e-02  5.1408269473573159e-02  8.5102303493311479e-02  6.2074912563192773e-02  7.1702967630910769e-03  4.6073887335138154e-02  5.7977260743305184e-02  2.5724965068614760e-03  6.1686445747432095e-02  6.8228937355254322e-03  3.6945086458445825e-02  1.8137376852802516e-02  6.6789689331443913e-02  6.1550317093044551e-02  4.6262834951539052e-02  1.9530464045182411e-02  2.5988989847852643e-02  1.6803268069672877e-03  6.1311946739648722e-03  4.4093555961265251e-03  4.5443871206148946e-04  3.1563221765814394e-05  3.8639071269960129e-05  1.6718249137260626e-03  1.7200063862665032e-03  1.4040278670750671e-03  1.6731574552458111e-03  4.3448719125366563e-04  3.5974376736491124e-04  1.0152793068549184e-03  1.4047347382541192e-03  1.2328579725635495e-04  8.8835869594349457e-04  7.6813183034778220e-04  1.5037767326283097e-03  7.7372040982611216e-04  6.1967148687689278e-04  1.0406844712438535e-05  2.1177260289533383e-04  1.3900743512196517e-04  3.4724082389961199e-20  -1.6906780810930256e-19  1.1127309763027525e-02  3.9657964194542072e-03  8.5741796961397564e-03  1.6727550964192390e-02  1.9357182166610632e-02  3.0105930968312246e-02  4.6590371760356804e-03  7.7206336398940145e-02  5.4934014352746224e-02  7.8262839192459008e-02  5.9604439275471592e-02  2.5685428557827843e-02  3.6933450818526343e-03  1.2407571761287491e-02  2.5271810721675298e-02  3.5667995699332274e-02  5.5474974323167767e-02  8.6132237248525700e-02  4.0613902726643079e-02  3.6181168978124938e-03  4.2313191343699326e-02  5.7326053114384483e-02  7.8263230085855087e-03  5.5913051157642162e-02  5.7572742602177165e-02  1.1391472105416293e-02  2.6091558886519543e-02  1.8048106137199725e-02  2.4548046577088103e-03  2.8439369547491886e-03  5.6377469568271300e-04  6.2482853915296784e-04  1.4905325995691983e-03  2.0463986921837752e-03  1.7678809804264216e-03  1.9488441539226092e-03  5.4059976208170927e-04  2.3084237255649170e-07  1.3813400689516086e-04  1.3493221783104530e-03  9.9982887164995178e-04  1.6315512529735782e-03  8.4612556083109574e-04  1.4881488757858394e-03  1.3567123993190788e-03  7.8821601841796941e-04  2.3578198213889198e-04  1.5019519104681440e-04  1.8845985567620408e-04  -2.6154058873656894e-20  -5.0958513028094441e-19  3.3732889678349885e-02  3.1278034675545981e-03  2.5983584017735272e-02  1.4571879736856015e-03  1.9850611450565755e-02  2.2281885583980192e-02  5.7913099642256965e-02  3.6207159828820827e-02  7.4483951128111311e-03  3.1875810548252920e-02  1.7709238385989780e-02  5.8676288480329221e-02  1.2597077014315980e-01  1.1485454992190777e-01  2.5040487221177680e-02  8.5054853379153875e-02  1.0612454069934975e-01  9.2465285301998462e-03  1.1247563438373059e-01  8.1065866130395191e-03  3.9651074527797286e-02  2.1140042698520774e-02  1.0068062573265606e-01  1.0227494011782928e-01  5.9591859989108764e-02  1.8659450941453458e-02  3.6164373345714207e-02  8.7555082651249137e-05  1.6253145600707564e-02  9.1268360455384421e-03  6.8359688878688482e-05  3.8327713971954443e-04  2.5288460529916370e-04  2.6874829927734756e-03  2.1439889153541804e-03  1.5579058233684113e-03  2.3251256811231353e-03  9.5993426749870425e-04  8.6005434858602166e-04  9.8998717595886023e-04  1.5016087727492235e-03  7.0438538090706953e-04  2.1183396129444555e-03  1.0282299962385540e-03  2.1642444831474418e-03  9.6485556196136658e-04  8.1155066972224724e-04  1.5247988235224649e-05  1.7863822499777966e-04  4.2431097079520825e-20  -2.9420291728903381e-19  2.1800470127413256e-02  1.9535716090052078e-02  2.3183117658306159e-02  1.0805283726171013e-02  2.2388105747968637e-02  3.4225901908828606e-02  2.5257002041652484e-02  3.7297637314284687e-03  1.0444817868638649e-01  7.9371162560694902e-02  1.0177086905322433e-01  8.1132302589223423e-02  4.5558851488640258e-02  3.2079290506487584e-02  4.2660575773157865e-03  2.7211977434458381e-02  3.3721785409179202e-02  7.9026940267090631e-02  1.1537164353415244e-01  5.8054239992344464e-02  1.7299403994567166e-02  5.7865459023918479e-02  7.3695075688674672e-02  1.4896906168209682e-02  9.2374412433773104e-02  8.7297948192372299e-02  2.2368742406369473e-02  3.9050662815385710e-02  2.5192381283815426e-02  8.6302307086206142e-05  7.3438674482630226e-03  8.9884336751858910e-04  4.9879425184017393e-04  1.6471483331587480e-03  2.7478479584410352e-03  1.9491717738575830e-03  2.0467334973360268e-03  9.0593651224708295e-04  5.4525391527986014e-04  4.2327938583386338e-04  1.4747588665718031e-03  9.4655831753307591e-04  2.6366165643130534e-03  1.6284670989047494e-03  1.8946064296272880e-03  2.0273304451627781e-03  1.0296537513264472e-03  5.7363625450942664e-04  4.1371753712304409e-05  2.1106045808594965e-35  -4.6286098662350878e-19  9.3556901514889462e-03  2.5592700500620777e-02  2.8644954576367614e-02  4.0320054277253298e-02  3.5006438823715811e-03  2.6090757806068818e-02  2.4907232920733321e-02  7.6528585820765382e-02  4.1690428899859147e-02  6.9505407297241611e-03  2.9292453097333134e-02  1.0665927812505535e-02  5.6872532598973922e-02  1.4631693220824235e-01  1.4213676211494128e-01  3.2963830446502043e-02  1.1792302231449428e-01  1.4901801485117683e-01  2.6097677094175053e-02  1.6076730023820188e-01  2.1697266403254745e-02  3.0463536130842468e-02  2.6776864483866156e-02  1.2724569418990320e-01  1.2749107954575245e-01  6.0160229049799889e-02  6.1505854766338132e-03  3.6342104702687790e-02  6.1979897380057148e-03  2.5381871582949356e-02  1.1328331085779724e-02  3.0322817840735118e-03  3.1717060817772598e-04  6.8649712989383115e-04  3.1023650906793505e-03  2.3129791912055693e-03  1.5280698656222774e-03  2.4972643438704195e-03  1.0935647103763784e-03  6.9909269209104420e-04  7.6170748075994111e-04  1.6778275390492189e-03  9.7510012100213671e-04  3.2042363089281418e-03  1.3952627335529493e-03  2.6860602204155197e-03  1.4860301315659436e-03  1.1203915128192401e-03  3.7194103871830816e-04  2.6382557260743705e-35  -4.6846123161658402e-19  1.3283019004803878e-02  1.3578464424925182e-02  1.3730611376656513e-02  3.3676803978139963e-02  3.2913042573086283e-02  4.3102654188450003e-02  4.3203214434464621e-02  1.8526310160315557e-02  1.9002387735572786e-02  1.3115306260988960e-01  8.7594054862397200e-02  1.0607901202284649e-01  8.2935636911106655e-02  4.2617481394067833e-02  3.7004481286191840e-02  5.6114803981129648e-03  2.1976238233038261e-02  3.3594750576059325e-02  8.6416042861827094e-02  1.3507226898786043e-01  6.8255019812823586e-02  1.6592178147291605e-02  7.0186203933406868e-02  9.9649584583769935e-02  1.0110034267247969e-02  1.1429915635317897e-01  9.6792560869069927e-02  1.0403048694116752e-02  4.2959124907161771e-02  2.5154169934177607e-02  5.3785444841424604e-03  1.1236932262947454e-02  3.2541335742361185e-04  8.5239889261565802e-04  9.4922067439922838e-04  3.0332854465569912e-03  1.6429197643010628e-03  1.7296722243561095e-03  9.6518946345852457e-04  1.1843197690072497e-03  5.4130008705182114e-04  1.6358245693510551e-03  1.0426829854456835e-03  3.0860686137467157e-03  2.4951481480512678e-03  2.0637501427042204e-03  2.4951611648474392e-03  1.2893709409133986e-03  7.5368822787353869e-04  -6.1709714206936264e-20  -3.7272899819097511e-19  8.5734446717739173e-03  4.7633433050977992e-03  2.4346240798618614e-02  4.3702043133480896e-02  3.6844188036938993e-02  1.6489291276409444e-02  2.5466626419556496e-02  5.2251390097295992e-03  9.6911374464369066e-02  6.0776810325703867e-02  1.7194048957937781e-02  5.0262274468918587e-02  1.6779500600723789e-02  6.9531211134204338e-02  1.7603779840424821e-01  1.7049497189902557e-01  4.0541480906770601e-02  1.5103448226819138e-01  1.9953550525971900e-01  3.7096635826622489e-02  2.1434812708164730e-01  4.6204376893679400e-02  2.2275711675986770e-02  2.8369334503179130e-02  1.5888043605993840e-01  1.4621378599000656e-01  6.9589638041581289e-02  7.2447864185251534e-03  4.4950199951853141e-02  1.2306107152545712e-02  2.8538118275995308e-02  1.0454571424024126e-02  8.0093011466339133e-03  2.9072252969110130e-04  1.2979316338410159e-03  2.5275957422422309e-03  2.1703000072060673e-03  9.6610854476983691e-04  1.8741902213891245e-03  1.3451355497766807e-03  3.0687930934090942e-04  7.6758587110574449e-04  2.1477174115170279e-03  9.3777376057104444e-04  3.7506172652516769e-03  1.8883896004149117e-03  2.7983274415556755e-03  1.8176125947921770e-03  9.9868842588291310e-04  2.7719172121045734e-20  -2.9767764472321177e-19  1.3379510618301565e-02  1.3287509306496373e-02  1.0808396415453317e-02  4.7922599447320592e-03  4.3579443998850317e-02  5.0092919805763511e-02  5.2724223128875265e-02  7.1578139579151837e-02  7.0980776626721233e-03  4.3257637379582152e-02  1.8542949589340399e-01  8.2449466374838951e-02  1.1214191555015599e-01  7.3985579392885206e-02  3.6268248638427300e-02  2.1510457943749822e-02  1.3323583517484142e-02  3.3417631880725712e-03  3.4811248561081386e-02  6.9265027573275142e-02  1.4871672961723995e-01  6.1824584734392257e-02  7.9647152602174021e-03  9.7539185429597539e-02  1.3976510192712407e-01  8.9971756932729994e-03  1.1781881683097141e-01  1.0313433178315377e-01  1.8280942442037228e-02  4.1007194191134397e-02  1.8761052257350409e-02  7.8389771405379914e-03  1.4148967634110381e-02  4.9491768587354833e-03  2.0037484035650200e-03  2.6472882198424314e-04  2.5566418967685215e-03  9.4845592040194602e-04  9.6549889049863519e-04  2.1796237113747929e-04  1.9488278178001646e-03  5.2770816206488484e-04  2.1533051475038016e-03  1.7246779390134690e-03  2.8199754646574234e-03  2.9183024263591721e-03  2.0519668819164063e-03  2.4891162525170632e-03  1.2801197761895880e-03  -7.1060922490184021e-20  4.2212091617189930e-35  1.6053186183403800e-02  1.6696833542795560e-02  1.2365415077679525e-02  5.4659338096612470e-03  6.8979456148049026e-02  3.2103807780822800e-02  4.1215968827484961e-02  2.9754618027646697e-02  1.0758462683831769e-02  8.6923380101359110e-02  5.4189036759322427e-02  3.9317147229391294e-02  1.1472365483248397e-01  1.0137511839755049e-02  1.1977412633916222e-01  2.0292825608918560e-01  2.3087171173918200e-01  5.6694847455520489e-02  1.7975055340040080e-01  2.6426076042284580e-01  1.5260963533323195e-02  3.0032072978040003e-01  8.3685965649795996e-02  1.9859887142403592e-02  3.5297051521756537e-02  2.2039056898363099e-01  1.5014568487217458e-01  1.0439075807655789e-01  2.1279341298670290e-02  7.8834292078486815e-02  1.9097104403335390e-02  2.0631539130733730e-02  9.2020643742295495e-03  1.3789039658847148e-02  3.6864582302797268e-03  3.0753958666487153e-03  6.3287722986233696e-04  1.4173267682409897e-03  1.6889656715569166e-04  6.9193089307347834e-04  2.0139565694805598e-03  1.7050570354419344e-03  1.5946437000134417e-03  3.1110852224254058e-03  1.0449911206507639e-04  3.2083997106939276e-03  1.8742345981926378e-03  2.0987828590123877e-03  1.3789428123527742e-03  -1.9136675748942714e-19  -2.3936951372693627e-19  9.6643771708240216e-03  5.9875114027374086e-03  2.3232530073206539e-02  1.9508561948555297e-02  1.5185506913124907e-02  1.3623102557393246e-02  1.1043898966623560e-01  8.2188191211383307e-02  1.0788277195250369e-01  3.8395551049421692e-03  6.1058732465203394e-02  2.1375697290992360e-01  1.4687802577284867e-01  7.1210160197865247e-02  8.0451745169715178e-02  5.4553373845400509e-02  4.4574632485418458e-02  3.5960253048315915e-03  5.8988781228320207e-02  5.9486985514573598e-02  3.9084830471655958e-02  1.7027612383094967e-01  7.8242079520924407e-02  1.1958493376883120e-01  1.9742934748697699e-01  2.1558205773456671e-01  2.0630324584597255e-02  7.6905627441376273e-02  1.4858869168454084e-01  6.8615924202880263e-02  5.5020308818230237e-02  4.6778759559058334e-03  2.3487727551394417e-03  1.9112337681357006e-02  1.3582421841915564e-02  5.2860073375344038e-03  2.7157622661977301e-03  2.8760489058419705e-04  4.9251888913670356e-04  5.4858590074939931e-04  1.3823390509803471e-03  2.8096076252413305e-03  2.3705973339465366e-03  2.9032063390727913e-03  2.7349850392151117e-03  1.9249802037702604e-03  2.4247430935849289e-03  1.5044398205351715e-03  1.2124841476788440e-03  -1.3607719821001949e-19  -1.8995441227735467e-34  1.1467986430302973e-02  8.1239766545023306e-03  1.0330833404621487e-03  4.7004469389308242e-03  5.9976411624515563e-03  7.2647998537575267e-02  2.8019823467989279e-02  3.0436219627471083e-02  4.5451588010053647e-02  1.0742392261960548e-01  1.1438853442699808e-01  6.6282573559188013e-02  5.2285006276396026e-02  1.7434316707157560e-01  1.0059589077268738e-01  4.6497201974408570e-02  3.5615490785589277e-01  2.4434426350979935e-01  9.5509870788320891e-02  1.7683943794860596e-01  3.9827177749411397e-01  2.5136335695126188e-03  3.9508739497513051e-01  1.1435631725752876e-01  4.9855348199611023e-02  1.4102337210847887e-01  4.3293718753250321e-01  3.4588841972580851e-02  2.3428884396601574e-01  1.0628087874067427e-02  1.6955277510804623e-01  5.8364875954808201e-02  1.0229775333907242e-02  1.7751219179920726e-02  2.2771234568636226e-02  1.2353939220346390e-02  6.6799490695638002e-03  2.4661985641852100e-03  8.0998663968284018e-04  2.2175017992003940e-03  1.3688417881675564e-03  3.7269532137542624e-03  3.3861359655262884e-03  3.4873726741438461e-03  4.2058622403673739e-03  9.6563982659694683e-04  2.3127005277144368e-03  1.6651796114924321e-03  1.1797248477627589e-03  -6.5487884435430922e-20  -1.7977806300904201e-19  1.7472248302169202e-02  1.5120907246562848e-02  4.4773068952239795e-03  2.4762017088245721e-02  4.8303858673884011e-03  9.1517078672551880e-03  2.4826935602383665e-02  1.2077064812884536e-01  5.0883513683398648e-02  1.6463416352590654e-01  7.2567010509720711e-02  2.1914746576414063e-01  3.7192738389103486e-01  1.2215166775781705e-01  1.1516207256966005e-01  4.5883434279139941e-02  1.9697820759936105e-03  9.6749967139631979e-02  3.0410375242000059e-01  2.1497873959744640e-01  1.6973001382210301e-01  5.6670792831386124e-02  8.0867771597787708e-01  5.9754611584454671e-02  5.1666392009259064e-02  4.9735609458345924e-02  6.5013533839006654e-01  1.0893105669702387e-01  1.9174325844154760e-01  3.7651628796102349e-01  2.1446289633105678e-01  1.1151008756225046e-01  1.7839761991969363e-02  2.7602512882628841e-02  2.6360719608730820e-02  2.3731027689932953e-02  1.1709620888768551e-02  6.0016230270206871e-03  2.8887427807246591e-03  2.4542444508085259e-03  2.6586295544963959e-03  3.7627572122321895e-03  4.4122130594815168e-03  5.0135024346697355e-03  4.7506471720707129e-03  4.3313316151217460e-03  3.6436610231457676e-04  1.3759471594318622e-03  1.1269982371571751e-03  -6.2560969580192826e-20  1.8995441227735469e-33  3.2385936703076472e-03  1.0003481651594278e-02  2.1252010310303170e-02  2.7032833682807525e-02  8.1765071498071992e-03  6.7991616126810881e-04  6.0146694743360964e-02  3.6203155676741076e-03  6.1198991545809968e-02  4.9972948624612955e-02  7.9268965496633745e-02  2.6754368176853667e-03  3.5212968328031537e-02  4.0688863230528449e-02  4.4895010852244116e-01  2.3906556852174021e-03  1.5884248623342206e-01  3.7461557622164382e-01  3.1153313068915578e-01  8.7276587166782260e-01  8.4518161425599447e-01  2.3931865306033531e-01  1.7265537179399898e-01  4.9086475336703095e-01  2.5978381117042593e-02  1.2305930470337199e-01  1.0709588221824885e-01  4.2221717213292598e-01  1.1837486784874936e-01  2.7638263967220178e-01  1.4561767630173533e-01  2.3942220539153503e-01  1.3632123454804726e-01  6.9046209085207755e-02  4.7785809432452593e-02  3.6628500751426561e-02  2.4097518331182309e-02  1.1063669034091086e-02  5.0774390376127475e-03  3.2100108045344223e-03  3.7921145609737966e-03  3.2161203542164767e-03  5.6447917000079116e-03  4.9717152241600792e-03  6.2785647602455665e-03  6.0275501475304267e-03  2.9787556018287934e-03  1.3564832799546072e-04  3.1150777776544849e-04  1.8415481083848679e-18  7.5981764910941868e-34  1.4843979903735573e-02  1.2991940029514512e-03  5.3761783808344687e-03  4.2218836917513568e-03  2.3603438434474408e-03  5.0570408748262102e-02  3.0062632368910689e-02  2.4827546783481688e-02  1.3699668391372563e-01  1.6394364955434934e-03  2.4424227774879143e-01  1.1501603199346748e-01  2.3161583599723393e-01  2.3011891687716354e-01  4.2894997547873032e-01  8.1084701197864980e-03  2.3284252667550697e-02  5.4162942136987280e-01  5.2667918527791277e-02  1.8664303306543820e-01  1.3959422415993628e-01  2.0769647862762139e-01  1.9533880578442095e-01  1.2279441079527241e-01  1.6980660107753368e-01  4.6933150749033072e-02  5.7850442746162377e-02  4.7571025625951106e-02  8.2431763463985272e-02  1.6759786471194683e-02  2.9875122550652222e-01  3.1490803158677855e-01  3.3746472607492489e-01  1.1773002600814629e-01  9.0897244386494200e-02  4.9789763191543532e-02  3.7536829166411045e-02  2.1795728497134566e-02  9.1627828703115203e-03  5.1660573059960843e-03  3.9118585410031163e-03  3.7645469317246004e-03  5.2278125463810282e-03  5.3403871668321959e-03  6.6114415349285164e-03  6.6339947170067420e-03  5.6763448275461122e-03  1.5942301784543859e-03  6.3899828803850580e-04  1.2663627485156979e-34  -9.7629404904060899e-19  8.8785790981791655e-03  9.3327332749114957e-03  1.0040491171551801e-02  7.9677100615451416e-03  1.5769381865050711e-03  1.8519992151395583e-02  6.9369799564073355e-03  1.3115496630311720e-02  6.3410374589089893e-02  9.641841