<?xml version="1.0"?>
<VTKFile type="UnstructuredGrid"  version="0.1"  >
<UnstructuredGrid>
<Piece  NumberOfPoints="2601" NumberOfCells="5000">
<Points>
<DataArray  type="Float64"  NumberOfComponents="3"  format="ascii">0 0 0  0.02 0 0  0.04 0 0  0.06 0 0  0.08 0 0  0.1 0 0  0.12 0 0  0.14 0 0  0.16 0 0  0.18 0 0  0.2 0 0  0.22 0 0  0.24 0 0  0.26 0 0  0.28 0 0  0.3 0 0  0.32 0 0  0.34 0 0  0.36 0 0  0.38 0 0  0.4 0 0  0.42 0 0  0.44 0 0  0.46 0 0  0.48 0 0  0.5 0 0  0.52 0 0  0.54 0 0  0.5600000000000001 0 0  0.58 0 0  0.6 0 0  0.62 0 0  0.64 0 0  0.66 0 0  0.68 0 0  0.7 0 0  0.72 0 0  0.74 0 0  0.76 0 0  0.78 0 0  0.8 0 0  0.82 0 0  0.84 0 0  0.86 0 0  0.88 0 0  0.9 0 0  0.92 0 0  0.9399999999999999 0 0  0.96 0 0  0.98 0 0  1 0 0  0 0.02 0  0.02 0.02 0  0.04 0.02 0  0.06 0.02 0  0.08 0.02 0  0.1 0.02 0  0.12 0.02 0  0.14 0.02 0  0.16 0.02 0  0.18 0.02 0  0.2 0.02 0  0.22 0.02 0  0.24 0.02 0  0.26 0.02 0  0.28 0.02 0  0.3 0.02 0  0.32 0.02 0  0.34 0.02 0  0.36 0.02 0  0.38 0.02 0  0.4 0.02 0  0.42 0.02 0  0.44 0.02 0  0.46 0.02 0  0.48 0.02 0  0.5 0.02 0  0.52 0.02 0  0.54 0.02 0  0.5600000000000001 0.02 0  0.58 0.02 0  0.6 0.02 0  0.62 0.02 0  0.64 0.02 0  0.66 0.02 0  0.68 0.02 0  0.7 0.02 0  0.72 0.02 0  0.74 0.02 0  0.76 0.02 0  0.78 0.02 0  0.8 0.02 0  0.82 0.02 0  0.84 0.02 0  0.86 0.02 0  0.88 0.02 0  0.9 0.02 0  0.92 0.02 0  0.9399999999999999 0.02 0  0.96 0.02 0  0.98 0.02 0  1 0.02 0  0 0.04 0  0.02 0.04 0  0.04 0.04 0  0.06 0.04 0  0.08 0.04 0  0.1 0.04 0  0.12 0.04 0  0.14 0.04 0  0.16 0.04 0  0.18 0.04 0  0.2 0.04 0  0.22 0.04 0  0.24 0.04 0  0.26 0.04 0  0.28 0.04 0  0.3 0.04 0  0.32 0.04 0  0.34 0.04 0  0.36 0.04 0  0.38 0.04 0  0.4 0.04 0  0.42 0.04 0  0.44 0.04 0  0.46 0.04 0  0.48 0.04 0  0.5 0.04 0  0.52 0.04 0  0.54 0.04 0  0.5600000000000001 0.04 0  0.58 0.04 0  0.6 0.04 0  0.62 0.04 0  0.64 0.04 0  0.66 0.04 0  0.68 0.04 0  0.7 0.04 0  0.72 0.04 0  0.74 0.04 0  0.76 0.04 0  0.78 0.04 0  0.8 0.04 0  0.82 0.04 0  0.84 0.04 0  0.86 0.04 0  0.88 0.04 0  0.9 0.04 0  0.92 0.04 0  0.9399999999999999 0.04 0  0.96 0.04 0  0.98 0.04 0  1 0.04 0  0 0.06 0  0.02 0.06 0  0.04 0.06 0  0.06 0.06 0  0.08 0.06 0  0.1 0.06 0  0.12 0.06 0  0.14 0.06 0  0.16 0.06 0  0.18 0.06 0  0.2 0.06 0  0.22 0.06 0  0.24 0.06 0  0.26 0.06 0  0.28 0.06 0  0.3 0.06 0  0.32 0.06 0  0.34 0.06 0  0.36 0.06 0  0.38 0.06 0  0.4 0.06 0  0.42 0.06 0  0.44 0.06 0  0.46 0.06 0  0.48 0.06 0  0.5 0.06 0  0.52 0.06 0  0.54 0.06 0  0.5600000000000001 0.06 0  0.58 0.06 0  0.6 0.06 0  0.62 0.06 0  0.64 0.06 0  0.66 0.06 0  0.68 0.06 0  0.7 0.06 0  0.72 0.06 0  0.74 0.06 0  0.76 0.06 0  0.78 0.06 0  0.8 0.06 0  0.82 0.06 0  0.84 0.06 0  0.86 0.06 0  0.88 0.06 0  0.9 0.06 0  0.92 0.06 0  0.9399999999999999 0.06 0  0.96 0.06 0  0.98 0.06 0  1 0.06 0  0 0.08 0  0.02 0.08 0  0.04 0.08 0  0.06 0.08 0  0.08 0.08 0  0.1 0.08 0  0.12 0.08 0  0.14 0.08 0  0.16 0.08 0  0.18 0.08 0  0.2 0.08 0  0.22 0.08 0  0.24 0.08 0  0.26 0.08 0  0.28 0.08 0  0.3 0.08 0  0.32 0.08 0  0.34 0.08 0  0.36 0.08 0  0.38 0.08 0  0.4 0.08 0  0.42 0.08 0  0.44 0.08 0  0.46 0.08 0  0.48 0.08 0  0.5 0.08 0  0.52 0.08 0  0.54 0.08 0  0.5600000000000001 0.08 0  0.58 0.08 0  0.6 0.08 0  0.62 0.08 0  0.64 0.08 0  0.66 0.08 0  0.68 0.08 0  0.7 0.08 0  0.72 0.08 0  0.74 0.08 0  0.76 0.08 0  0.78 0.08 0  0.8 0.08 0  0.82 0.08 0  0.84 0.08 0  0.86 0.08 0  0.88 0.08 0  0.9 0.08 0  0.92 0.08 0  0.9399999999999999 0.08 0  0.96 0.08 0  0.98 0.08 0  1 0.08 0  0 0.1 0  0.02 0.1 0  0.04 0.1 0  0.06 0.1 0  0.08 0.1 0  0.1 0.1 0  0.12 0.1 0  0.14 0.1 0  0.16 0.1 0  0.18 0.1 0  0.2 0.1 0  0.22 0.1 0  0.24 0.1 0  0.26 0.1 0  0.28 0.1 0  0.3 0.1 0  0.32 0.1 0  0.34 0.1 0  0.36 0.1 0  0.38 0.1 0  0.4 0.1 0  0.42 0.1 0  0.44 0.1 0  0.46 0.1 0  0.48 0.1 0  0.5 0.1 0  0.52 0.1 0  0.54 0.1 0  0.5600000000000001 0.1 0  0.58 0.1 0  0.6 0.1 0  0.62 0.1 0  0.64 0.1 0  0.66 0.1 0  0.68 0.1 0  0.7 0.1 0  0.72 0.1 0  0.74 0.1 0  0.76 0.1 0  0.78 0.1 0  0.8 0.1 0  0.82 0.1 0  0.84 0.1 0  0.86 0.1 0  0.88 0.1 0  0.9 0.1 0  0.92 0.1 0  0.9399999999999999 0.1 0  0.96 0.1 0  0.98 0.1 0  1 0.1 0  0 0.12 0  0.02 0.12 0  0.04 0.12 0  0.06 0.12 0  0.08 0.12 0  0.1 0.12 0  0.12 0.12 0  0.14 0.12 0  0.16 0.12 0  0.18 0.12 0  0.2 0.12 0  0.22 0.12 0  0.24 0.12 0  0.26 0.12 0  0.28 0.12 0  0.3 0.12 0  0.32 0.12 0  0.34 0.12 0  0.36 0.12 0  0.38 0.12 0  0.4 0.12 0  0.42 0.12 0  0.44 0.12 0  0.46 0.12 0  0.48 0.12 0  0.5 0.12 0  0.52 0.12 0  0.54 0.12 0  0.5600000000000001 0.12 0  0.58 0.12 0  0.6 0.12 0  0.62 0.12 0  0.64 0.12 0  0.66 0.12 0  0.68 0.12 0  0.7 0.12 0  0.72 0.12 0  0.74 0.12 0  0.76 0.12 0  0.78 0.12 0  0.8 0.12 0  0.82 0.12 0  0.84 0.12 0  0.86 0.12 0  0.88 0.12 0  0.9 0.12 0  0.92 0.12 0  0.9399999999999999 0.12 0  0.96 0.12 0  0.98 0.12 0  1 0.12 0  0 0.14 0  0.02 0.14 0  0.04 0.14 0  0.06 0.14 0  0.08 0.14 0  0.1 0.14 0  0.12 0.14 0  0.14 0.14 0  0.16 0.14 0  0.18 0.14 0  0.2 0.14 0  0.22 0.14 0  0.24 0.14 0  0.26 0.14 0  0.28 0.14 0  0.3 0.14 0  0.32 0.14 0  0.34 0.14 0  0.36 0.14 0  0.38 0.14 0  0.4 0.14 0  0.42 0.14 0  0.44 0.14 0  0.46 0.14 0  0.48 0.14 0  0.5 0.14 0  0.52 0.14 0  0.54 0.14 0  0.5600000000000001 0.14 0  0.58 0.14 0  0.6 0.14 0  0.62 0.14 0  0.64 0.14 0  0.66 0.14 0  0.68 0.14 0  0.7 0.14 0  0.72 0.14 0  0.74 0.14 0  0.76 0.14 0  0.78 0.14 0  0.8 0.14 0  0.82 0.14 0  0.84 0.14 0  0.86 0.14 0  0.88 0.14 0  0.9 0.14 0  0.92 0.14 0  0.9399999999999999 0.14 0  0.96 0.14 0  0.98 0.14 0  1 0.14 0  0 0.16 0  0.02 0.16 0  0.04 0.16 0  0.06 0.16 0  0.08 0.16 0  0.1 0.16 0  0.12 0.16 0  0.14 0.16 0  0.16 0.16 0  0.18 0.16 0  0.2 0.16 0  0.22 0.16 0  0.24 0.16 0  0.26 0.16 0  0.28 0.16 0  0.3 0.16 0  0.32 0.16 0  0.34 0.16 0  0.36 0.16 0  0.38 0.16 0  0.4 0.16 0  0.42 0.16 0  0.44 0.16 0  0.46 0.16 0  0.48 0.16 0  0.5 0.16 0  0.52 0.16 0  0.54 0.16 0  0.5600000000000001 0.16 0  0.58 0.16 0  0.6 0.16 0  0.62 0.16 0  0.64 0.16 0  0.66 0.16 0  0.68 0.16 0  0.7 0.16 0  0.72 0.16 0  0.74 0.16 0  0.76 0.16 0  0.78 0.16 0  0.8 0.16 0  0.82 0.16 0  0.84 0.16 0  0.86 0.16 0  0.88 0.16 0  0.9 0.16 0  0.92 0.16 0  0.9399999999999999 0.16 0  0.96 0.16 0  0.98 0.16 0  1 0.16 0  0 0.18 0  0.02 0.18 0  0.04 0.18 0  0.06 0.18 0  0.08 0.18 0  0.1 0.18 0  0.12 0.18 0  0.14 0.18 0  0.16 0.18 0  0.18 0.18 0  0.2 0.18 0  0.22 0.18 0  0.24 0.18 0  0.26 0.18 0  0.28 0.18 0  0.3 0.18 0  0.32 0.18 0  0.34 0.18 0  0.36 0.18 0  0.38 0.18 0  0.4 0.18 0  0.42 0.18 0  0.44 0.18 0  0.46 0.18 0  0.48 0.18 0  0.5 0.18 0  0.52 0.18 0  0.54 0.18 0  0.5600000000000001 0.18 0  0.58 0.18 0  0.6 0.18 0  0.62 0.18 0  0.64 0.18 0  0.66 0.18 0  0.68 0.18 0  0.7 0.18 0  0.72 0.18 0  0.74 0.18 0  0.76 0.18 0  0.78 0.18 0  0.8 0.18 0  0.82 0.18 0  0.84 0.18 0  0.86 0.18 0  0.88 0.18 0  0.9 0.18 0  0.92 0.18 0  0.9399999999999999 0.18 0  0.96 0.18 0  0.98 0.18 0  1 0.18 0  0 0.2 0  0.02 0.2 0  0.04 0.2 0  0.06 0.2 0  0.08 0.2 0  0.1 0.2 0  0.12 0.2 0  0.14 0.2 0  0.16 0.2 0  0.18 0.2 0  0.2 0.2 0  0.22 0.2 0  0.24 0.2 0  0.26 0.2 0  0.28 0.2 0  0.3 0.2 0  0.32 0.2 0  0.34 0.2 0  0.36 0.2 0  0.38 0.2 0  0.4 0.2 0  0.42 0.2 0  0.44 0.2 0  0.46 0.2 0  0.48 0.2 0  0.5 0.2 0  0.52 0.2 0  0.54 0.2 0  0.5600000000000001 0.2 0  0.58 0.2 0  0.6 0.2 0  0.62 0.2 0  0.64 0.2 0  0.66 0.2 0  0.68 0.2 0  0.7 0.2 0  0.72 0.2 0  0.74 0.2 0  0.76 0.2 0  0.78 0.2 0  0.8 0.2 0  0.82 0.2 0  0.84 0.2 0  0.86 0.2 0  0.88 0.2 0  0.9 0.2 0  0.92 0.2 0  0.9399999999999999 0.2 0  0.96 0.2 0  0.98 0.2 0  1 0.2 0  0 0.22 0  0.02 0.22 0  0.04 0.22 0  0.06 0.22 0  0.08 0.22 0  0.1 0.22 0  0.12 0.22 0  0.14 0.22 0  0.16 0.22 0  0.18 0.22 0  0.2 0.22 0  0.22 0.22 0  0.24 0.22 0  0.26 0.22 0  0.28 0.22 0  0.3 0.22 0  0.32 0.22 0  0.34 0.22 0  0.36 0.22 0  0.38 0.22 0  0.4 0.22 0  0.42 0.22 0  0.44 0.22 0  0.46 0.22 0  0.48 0.22 0  0.5 0.22 0  0.52 0.22 0  0.54 0.22 0  0.5600000000000001 0.22 0  0.58 0.22 0  0.6 0.22 0  0.62 0.22 0  0.64 0.22 0  0.66 0.22 0  0.68 0.22 0  0.7 0.22 0  0.72 0.22 0  0.74 0.22 0  0.76 0.22 0  0.78 0.22 0  0.8 0.22 0  0.82 0.22 0  0.84 0.22 0  0.86 0.22 0  0.88 0.22 0  0.9 0.22 0  0.92 0.22 0  0.9399999999999999 0.22 0  0.96 0.22 0  0.98 0.22 0  1 0.22 0  0 0.24 0  0.02 0.24 0  0.04 0.24 0  0.06 0.24 0  0.08 0.24 0  0.1 0.24 0  0.12 0.24 0  0.14 0.24 0  0.16 0.24 0  0.18 0.24 0  0.2 0.24 0  0.22 0.24 0  0.24 0.24 0  0.26 0.24 0  0.28 0.24 0  0.3 0.24 0  0.32 0.24 0  0.34 0.24 0  0.36 0.24 0  0.38 0.24 0  0.4 0.24 0  0.42 0.24 0  0.44 0.24 0  0.46 0.24 0  0.48 0.24 0  0.5 0.24 0  0.52 0.24 0  0.54 0.24 0  0.5600000000000001 0.24 0  0.58 0.24 0  0.6 0.24 0  0.62 0.24 0  0.64 0.24 0  0.66 0.24 0  0.68 0.24 0  0.7 0.24 0  0.72 0.24 0  0.74 0.24 0  0.76 0.24 0  0.78 0.24 0  0.8 0.24 0  0.82 0.24 0  0.84 0.24 0  0.86 0.24 0  0.88 0.24 0  0.9 0.24 0  0.92 0.24 0  0.9399999999999999 0.24 0  0.96 0.24 0  0.98 0.24 0  1 0.24 0  0 0.26 0  0.02 0.26 0  0.04 0.26 0  0.06 0.26 0  0.08 0.26 0  0.1 0.26 0  0.12 0.26 0  0.14 0.26 0  0.16 0.26 0  0.18 0.26 0  0.2 0.26 0  0.22 0.26 0  0.24 0.26 0  0.26 0.26 0  0.28 0.26 0  0.3 0.26 0  0.32 0.26 0  0.34 0.26 0  0.36 0.26 0  0.38 0.26 0  0.4 0.26 0  0.42 0.26 0  0.44 0.26 0  0.46 0.26 0  0.48 0.26 0  0.5 0.26 0  0.52 0.26 0  0.54 0.26 0  0.5600000000000001 0.26 0  0.58 0.26 0  0.6 0.26 0  0.62 0.26 0  0.64 0.26 0  0.66 0.26 0  0.68 0.26 0  0.7 0.26 0  0.72 0.26 0  0.74 0.26 0  0.76 0.26 0  0.78 0.26 0  0.8 0.26 0  0.82 0.26 0  0.84 0.26 0  0.86 0.26 0  0.88 0.26 0  0.9 0.26 0  0.92 0.26 0  0.9399999999999999 0.26 0  0.96 0.26 0  0.98 0.26 0  1 0.26 0  0 0.28 0  0.02 0.28 0  0.04 0.28 0  0.06 0.28 0  0.08 0.28 0  0.1 0.28 0  0.12 0.28 0  0.14 0.28 0  0.16 0.28 0  0.18 0.28 0  0.2 0.28 0  0.22 0.28 0  0.24 0.28 0  0.26 0.28 0  0.28 0.28 0  0.3 0.28 0  0.32 0.28 0  0.34 0.28 0  0.36 0.28 0  0.38 0.28 0  0.4 0.28 0  0.42 0.28 0  0.44 0.28 0  0.46 0.28 0  0.48 0.28 0  0.5 0.28 0  0.52 0.28 0  0.54 0.28 0  0.5600000000000001 0.28 0  0.58 0.28 0  0.6 0.28 0  0.62 0.28 0  0.64 0.28 0  0.66 0.28 0  0.68 0.28 0  0.7 0.28 0  0.72 0.28 0  0.74 0.28 0  0.76 0.28 0  0.78 0.28 0  0.8 0.28 0  0.82 0.28 0  0.84 0.28 0  0.86 0.28
[...]
<PointData  Scalars="Indicator Function"> 
<DataArray  type="Float64"  Name="Indicator Function"  format="ascii">-1.2440021968215917e-21  1.5201430939717131e-17  -1.6185513039504016e-18  2.9834826752663391e-17  9.3948389400034255e-18  -4.2947329628942102e-19  -1.9375673444298337e-18  4.1899290761655661e-16  2.1348573019493630e-16  -9.9788131670213789e-19  1.7917581328288893e-16  4.7277309788126025e-16  -2.9958628927773966e-19  -1.0321374585142375e-32  -5.2881763029218770e-17  -2.0734882478169142e-18  -7.7138226339515976e-19  2.4054567048850027e-16  -9.1979665748907751e-19  -1.3848656713149490e-18  1.3211053370452998e-16  -1.0913399943265509e-18  -9.8697848680886586e-19  4.8031415728392168e-16  8.3236891815664323e-35  -6.6525914622758555e-19  -3.0666736319192737e-19  -1.5160885085434558e-19  1.6170514967358627e-16  -8.7796710647809722e-22  -2.6863865087842079e-20  -1.3431932543921044e-20  -7.8077982678735171e-20  -9.3658963078316551e-20  -5.0318220051443787e-19  -5.1025735126274823e-20  5.2023057384790202e-36  -2.1257688075880794e-20  -6.3804354271893015e-20  -7.2647131969428556e-20  4.1423061070580921e-17  -3.5118847568588354e-20  -6.3951300991132671e-20  -7.1878910642255161e-20  -6.0121190300754762e-20  -3.1963233679106223e-20  3.4906763094925637e-18  -5.4336193567020110e-21  -2.3589488705702776e-21  -1.0469196728164577e-21  5.2023057384790202e-36  -8.2899603864047829e-19  7.9874778307315233e-03  2.5028322223023115e-03  1.8518002030597266e-03  1.0908236728713328e-02  1.5473406217076924e-02  7.4811707228833186e-04  3.4904110281517721e-02  1.5881852416816316e-02  3.2108303013019729e-02  1.7976231704238888e-02  3.2067462100290210e-03  1.0793733606052290e-02  1.0320595503193853e-02  1.8654963588389650e-02  1.9121337218015236e-02  2.7791974991893804e-02  3.6527570030473008e-02  2.2719309933437043e-02  9.0880496795470410e-03  2.0403497245395228e-02  3.4772282600651468e-02  2.2736922668085643e-03  1.7779823781660466e-02  1.5639294685545990e-02  1.8707743828772509e-03  1.1048856180782848e-02  5.4622845137094556e-03  6.5234780127613665e-04  3.1632098668625616e-05  1.0781469032236457e-04  4.8393637119734735e-04  5.9258959937713281e-04  1.1102330951026007e-03  1.1320933373263511e-03  1.2119535342115123e-03  3.1322115969823139e-04  1.0134106831943575e-04  3.8294446438917981e-04  9.5792483229946001e-04  8.2973196971847859e-04  3.9461321395641778e-04  4.3533830831609408e-04  9.3437506709604669e-04  8.2766780718900664e-04  6.6921317734769576e-04  2.4119184047326640e-04  2.5786588809148662e-05  8.4990090035890782e-05  3.7719256387064258e-05  -4.8567462892844863e-21  1.4982640526819578e-33  2.0231272487457784e-02  2.3300691966814946e-02  8.7443486361107169e-03  1.1226330328722079e-02  1.3741412462914717e-02  2.9277022307686116e-02  3.3931442120551554e-02  9.9789670858181061e-03  3.4070309638238622e-02  2.3196995085993183e-02  5.1504672932012455e-02  8.5191079582677368e-02  6.2184432042077332e-02  7.1664337184068026e-03  4.6082156841565448e-02  5.8040651330161237e-02  2.6233212475107255e-03  6.1683839156621997e-02  6.7575038219858663e-03  3.6994375181269024e-02  1.8123306251043775e-02  6.6809780027797916e-02  6.1625343442441506e-02  4.6353530788109977e-02  1.9573311331249260e-02  2.5996300157339617e-02  1.7445191369642120e-03  6.1185966528709045e-03  4.4316612873398255e-03  4.4784798986642583e-04  6.3215571760716813e-05  1.0077793278755956e-04  1.7022326341979898e-03  1.7951271760128381e-03  1.4247463519386618e-03  1.6967944765601728e-03  4.0991631567320814e-04  3.6952694916338256e-04  1.0173864869191256e-03  1.4192504558864891e-03  1.4136609020449437e-04  9.0104692263577872e-04  7.6280569673605901e-04  1.5128149566392638e-03  7.7701714282587501e-04  6.1648160814418279e-04  1.2193261926787239e-05  2.3114655539507577e-04  1.4935686249728912e-04  3.7309371216809585e-20  -1.6962095277699113e-19  1.1137322781326396e-02  3.9672086313470968e-03  8.5609114321347352e-03  1.6764990165153235e-02  1.9349395555470481e-02  3.0247662695963129e-02  4.6626996614595965e-03  7.7318611806241139e-02  5.4999059574499208e-02  7.8393406493041815e-02  5.9668400791142495e-02  2.5707856262627806e-02  3.6075055919261097e-03  1.2433605801406622e-02  2.5301036108729080e-02  3.5824593386961333e-02  5.5452939189231852e-02  8.6247423513055629e-02  4.0574552168304440e-02  3.7070769981734524e-03  4.2360906867176668e-02  5.7343851856896430e-02  7.7522962444371993e-03  5.5937972450236934e-02  5.7649727607723161e-02  1.1436197435255386e-02  2.6066406081532652e-02  1.8113867619671143e-02  2.5263000679725755e-03  2.8444211090473681e-03  5.3353725578055326e-04  6.8728338090218351e-04  1.4420148648256698e-03  2.1431041953012117e-03  1.8424609588089918e-03  1.9413457437655723e-03  5.7373702279284774e-04  3.7883507235604603e-05  1.3223817089459987e-04  1.3571566844514705e-03  1.0010189077864667e-03  1.6510175043486001e-03  8.6503902717739733e-04  1.5001242219262433e-03  1.3421471057899585e-03  8.2732124107936080e-04  2.1776612614198235e-04  1.6016293325219077e-04  2.0496269478582305e-04  -2.8444287867554829e-20  -5.0962853748773084e-19  3.3793608962406706e-02  3.1247562464425554e-03  2.6049024206110067e-02  1.4196718381020274e-03  1.9897206744051366e-02  2.2224688438131156e-02  5.8087277825307738e-02  3.6252610989030036e-02  7.4955939277671392e-03  3.1972473556643517e-02  1.7741402552661809e-02  5.8783037951823817e-02  1.2612463922651010e-01  1.1509294636155983e-01  2.5098143426126079e-02  8.5117408621144364e-02  1.0629278881822132e-01  9.1591035010114598e-03  1.1254612988180011e-01  7.9927226317628632e-03  3.9683295261040648e-02  2.1119800567848901e-02  1.0071115652437787e-01  1.0243545088343305e-01  5.9737376234824273e-02  1.8695971166693189e-02  3.6184830333885878e-02  1.8834972247779591e-04  1.6260799003225000e-02  9.2037153630336876e-03  6.8551124966539695e-05  3.4145164016650254e-04  3.5302902574875131e-04  2.7140327094410449e-03  2.2666034081702340e-03  1.5778337696512146e-03  2.3285955602850108e-03  9.2499506956654303e-04  8.8549590549577995e-04  9.8829356699131404e-04  1.5136699693141769e-03  7.3127794722490562e-04  2.1487155682567843e-03  1.0328550315575676e-03  2.1903739442924969e-03  9.6518876348162792e-04  8.3603725437521846e-04  1.3979570228815268e-05  1.9709355677310125e-04  4.6811938404565924e-20  -2.9550048271015082e-19  2.1873392087853358e-02  1.9591764722935053e-02  2.3231807128794767e-02  1.0807523699348285e-02  2.2422723083065661e-02  3.4265522513649338e-02  2.5418780286836248e-02  3.7720944897002792e-03  1.0459638976455603e-01  7.9518064220628945e-02  1.0196377516192362e-01  8.1256021696559072e-02  4.5635445629770378e-02  3.2064579589573892e-02  4.3330581311378695e-03  2.7260111380523089e-02  3.3881956957035865e-02  7.9034429135608542e-02  1.1556468189029348e-01  5.8020661202568102e-02  1.7479998530387821e-02  5.7951792767252708e-02  7.3700623835800658e-02  1.4813873324362748e-02  9.2472784211610592e-02  8.7494887747825337e-02  2.2479423084106314e-02  3.9057248266419223e-02  2.5317719093966226e-02  1.9986778751677260e-06  7.3781045076407462e-03  8.7037256061448984e-04  5.6329958931663386e-04  1.5622410386138305e-03  2.8616008582481815e-03  2.0432424805582792e-03  2.0098549622614959e-03  9.3151610438639565e-04  5.0964733424321102e-04  4.2561840385563145e-04  1.4812209712406917e-03  9.5589850043804826e-04  2.6784691725738764e-03  1.6689489567176337e-03  1.9123136536354521e-03  2.0346142037026213e-03  1.0773356942750650e-03  5.7573082789144582e-04  4.4069326647655133e-05  2.0809222953916081e-35  -4.6292696945333135e-19  9.4024493599694347e-03  2.5630175927176764e-02  2.8713929502593584e-02  4.0421871062758311e-02  3.5406362438587854e-03  2.6132618119046491e-02  2.4866212773348068e-02  7.6772186689454916e-02  4.1733909201766228e-02  6.9630868960724969e-03  2.9311455567552117e-02  1.0629040194890397e-02  5.6923079593280100e-02  1.4645038580136313e-01  1.4239751027104391e-01  3.3023527136492127e-02  1.1802699848013075e-01  1.4926059213025861e-01  2.6034113388252515e-02  1.6094185645554743e-01  2.1579855445168508e-02  3.0410883921674965e-02  2.6779331081947817e-02  1.2728264749033455e-01  1.2769956585712250e-01  6.0265585620357214e-02  6.0660976258209371e-03  3.6321734197371315e-02  6.1290972389356109e-03  2.5433888680666469e-02  1.1439962544463129e-02  3.0456400435115365e-03  2.6784205254593778e-04  7.8647096262202977e-04  3.0997122053349870e-03  2.4640152386380589e-03  1.5466170959007543e-03  2.4619733225159880e-03  1.0557511657738590e-03  7.1902090387146521e-04  7.7886500674014198e-04  1.6889816741099183e-03  9.7436498039328839e-04  3.2544073836558761e-03  1.4194749008969250e-03  2.7195026998988016e-03  1.5103265556618891e-03  1.1718847602133304e-03  3.8137421295113640e-04  3.1213834430874117e-35  -4.6992315928197111e-19  1.3340665428458140e-02  1.3621852791878388e-02  1.3763743099799894e-02  3.3756471689230003e-02  3.2979914494256628e-02  4.3185110868646980e-02  4.3242883846269405e-02  1.8661829466761655e-02  1.9125859955103748e-02  1.3133654897617264e-01  8.7725761883421627e-02  1.0624216380019692e-01  8.3029738259032704e-02  4.2684938411195798e-02  3.7018652801097333e-02  5.7640656203365838e-03  2.2042826438267552e-02  3.3700574172463291e-02  8.6478607227573431e-02  1.3526011426525328e-01  6.8289775064694441e-02  1.6797639100951143e-02  7.0255891775058449e-02  9.9672234770336779e-02  1.0049304940903978e-02  1.1448361736835906e-01  9.7001322185003971e-02  1.0462223590094959e-02  4.2981053686781970e-02  2.5267661675982270e-02  5.3134928763427592e-03  1.1319058672062302e-02  3.6474534178977989e-04  9.2771603379164643e-04  8.6106181389117623e-04  3.1271313901865194e-03  1.7521345967478612e-03  1.6789133567663918e-03  9.6557528988671087e-04  1.1485383700379653e-03  5.3716703289515238e-04  1.6629927229546801e-03  1.0604786213351354e-03  3.0924098265941859e-03  2.5352135023156055e-03  2.0806956560278657e-03  2.4993147736535222e-03  1.3405662992040225e-03  7.8796295422308728e-04  -6.7326711363176647e-20  -3.7194512055930378e-19  8.6145103595420842e-03  4.7743196286989271e-03  2.4352633111330280e-02  4.3818912514560028e-02  3.6905267733223418e-02  1.6537449730289915e-02  2.5481846204001745e-02  5.1553235852689321e-03  9.7177920049157526e-02  6.0887512048681591e-02  1.7163730583633185e-02  5.0250697543699110e-02  1.6701517211649475e-02  6.9544155924673487e-02  1.7612755773850539e-01  1.7069293332200811e-01  4.0512307197370576e-02  1.5115219955000320e-01  1.9976750865540238e-01  3.7113012162019350e-02  2.1457166715943657e-01  4.6143844088868860e-02  2.2157232551674965e-02  2.8367917439057158e-02  1.5893006081483044e-01  1.4639008716448398e-01  6.9601292560408631e-02  7.1000909195949808e-03  4.4879472532944130e-02  1.2281123071202403e-02  2.8609429271198149e-02  1.0564581632276675e-02  8.0677231581352121e-03  3.6244293609609743e-04  1.3990422609592304e-03  2.5160899443166444e-03  2.3055863361007944e-03  9.7106636793967312e-04  1.8079943410499260e-03  1.3135272053536296e-03  2.9298638594667150e-04  7.9785552898524838e-04  2.1643190291025845e-03  9.1092173913806486e-04  3.7766205349301718e-03  1.8948677149129324e-03  2.8091946603600653e-03  1.8180061150557584e-03  1.0174376765261341e-03  2.8239568365009979e-20  -2.9634284510081091e-19  1.3420018592671832e-02  1.3300508918720965e-02  1.0816609839186555e-02  4.8051551495789883e-03  4.3644244806696146e-02  5.0186842693195281e-02  5.2828151426497258e-02  7.1635227155657580e-02  7.1830853160918225e-03  4.3426844742728010e-02  1.8568521339674182e-01  8.2480482765412241e-02  1.1222845580158571e-01  7.3995630605907012e-02  3.6287594683203181e-02  2.1480717428586340e-02  1.3192107409972122e-02  3.3660315340839535e-03  3.4878026977782847e-02  6.9324830222388778e-02  1.4880901291497348e-01  6.1897415532713856e-02  7.8005356839667417e-03  9.7558381913627618e-02  1.3980257636013071e-01  9.0458403204131937e-03  1.1801841198660457e-01  1.0326416763737269e-01  1.8329935744119012e-02  4.0970784577227561e-02  1.8833574485012616e-02  7.8165736452402816e-03  1.4240284582032515e-02  5.0028958406743264e-03  2.1035054589552331e-03  3.3158690601176667e-04  2.6474805377716963e-03  1.0436964850561558e-03  8.8463766603119446e-04  1.7551674131702902e-04  1.9155032316708908e-03  5.4202157845115249e-04  2.2006818385281739e-03  1.7326902042802039e-03  2.7913876049273814e-03  2.9570863053400283e-03  2.0547868708681418e-03  2.4742792306086340e-03  1.3010015900947200e-03  -7.2220096019854752e-20  4.1618445907832161e-35  1.6078567214832282e-02  1.6726872604636255e-02  1.2390567380570308e-02  5.4681131343528840e-03  6.9104492231831016e-02  3.2120743784819376e-02  4.1294557486606376e-02  2.9749311207995371e-02  1.0866378780582850e-02  8.7146964208749553e-02  5.4314485813307938e-02  3.9282889257045393e-02  1.1479019156547678e-01  1.0049532439981615e-02  1.1984070866671748e-01  2.0297299157489188e-01  2.3105595834316944e-01  5.6602637917933699e-02  1.7982953772681110e-01  2.6443777236717142e-01  1.5311063822615109e-02  3.0051991720025639e-01  8.3689300508297315e-02  1.9701564617242338e-02  3.5236090305675032e-02  2.2044416404348102e-01  1.5026209229529172e-01  1.0434021440177407e-01  2.1176510583319236e-02  7.8802873088407541e-02  1.9065255718443596e-02  2.0680409565349809e-02  9.2773836026557050e-03  1.3871995212520241e-02  3.7528649933470191e-03  3.1875354377336245e-03  6.6501383420262397e-04  1.5573229500965343e-03  1.7391005349417311e-04  5.9926464891661116e-04  2.0124926933236462e-03  1.6982916192078653e-03  1.6380224919626313e-03  3.1502350999124996e-03  7.8712931720651506e-05  3.1948228223174138e-03  1.8852991319081999e-03  2.1079109760679914e-03  1.3721197197639977e-03  -1.9041986317802605e-19  -2.3837994605318420e-19  9.6841229322962991e-03  6.0012687448773713e-03  2.3255286047758679e-02  1.9552276456290447e-02  1.5209884176534834e-02  1.3635652335531193e-02  1.1057072088010586e-01  8.2295095934458218e-02  1.0798388673065455e-01  3.7822800831260293e-03  6.1243814897959367e-02  2.1404243378875334e-01  1.4690475968150732e-01  7.1210163385057604e-02  8.0434345121700890e-02  5.4575910880469501e-02  4.4700951329903059e-02  3.7489804705444613e-03  5.9065874941506474e-02  5.9590307559496333e-02  3.9136068484847450e-02  1.7023947330463643e-01  7.8307241570272024e-02  1.1953560784711188e-01  1.9740237131357144e-01  2.1556522917702556e-01  2.0705707250535690e-02  7.7067803785965103e-02  1.4864077045542212e-01  6.8699279023222024e-02  5.4965757227533558e-02  4.7213923643795227e-03  2.3615958565357622e-03  1.9198494955280018e-02  1.3664569002102967e-02  5.3912852827734383e-03  2.7811131574123123e-03  4.4067884401451037e-04  3.9049143758591940e-04  6.3862529294645776e-04  1.4431065605473347e-03  2.7808472399673558e-03  2.3872681448517973e-03  2.9568401815607422e-03  2.7522435289331479e-03  1.8806212290347335e-03  2.4269434679435064e-03  1.4898651799052248e-03  1.1966146591848780e-03  -1.5117925808995211e-19  -9.3641503292622362e-35  1.1476906464319927e-02  8.1318472659547870e-03  1.0267551735687467e-03  4.7247099329076380e-03  5.9954056408627098e-03  7.2763188751007485e-02  2.8026279391979589e-02  3.0487825245981329e-02  4.5553954978116637e-02  1.0760734312036102e-01  1.1457306580974100e-01  6.6391815618234359e-02  5.2248686564586796e-02  1.7445672682086882e-01  1.0056844226604937e-01  4.6522268757357724e-02  3.5622263591574410e-01  2.4449964733738722e-01  9.5400933086563763e-02  1.7679854531261069e-01  3.9843514718545142e-01  2.4100024185320064e-03  3.9509959438638292e-01  1.1425867000991130e-01  4.9681264459005128e-02  1.4089802954696454e-01  4.3295973796972453e-01  3.4681185289868556e-02  2.3420489138696413e-01  1.0667630164472100e-02  1.6956519684805846e-01  5.8325025585763642e-02  1.0233240475317705e-02  1.7802948949065988e-02  2.2876912183163328e-02  1.2437213952821682e-02  6.8109053949824598e-03  2.4247119625187730e-03  6.0514839927997487e-04  2.2149862375368035e-03  1.4748926578927839e-03  3.7419655411551796e-03  3.3721485212099070e-03  3.5287440476590784e-03  4.2419471655886195e-03  9.7499069664478322e-04  2.2820598398105014e-03  1.6696105491342626e-03  1.1658917165221620e-03  -6.4719991395132477e-20  -1.7995773435217909e-19  1.7536289478172516e-02  1.5187921872066580e-02  4.4695862007326156e-03  2.4805857326694727e-02  4.8349276816499094e-03  9.1710932177822436e-03  2.4850732380299216e-02  1.2088184675091104e-01  5.0948718790529077e-02  1.6473832344128084e-01  7.2727302244630324e-02  2.1944582459067211e-01  3.7226910262661594e-01  1.2217345384491682e-01  1.1512240157642845e-01  4.5877238836906788e-02  1.9552413344000653e-03  9.6608492848630684e-02  3.0397469563885371e-01  2.1493643950754315e-01  1.6960537389622882e-01  5.6639230256665472e-02  8.0882322324731115e-01  5.9888033632786400e-02  5.1714495061058338e-02  4.9779009860174209e-02  6.5029402087014221e-01  1.0882139270834237e-01  1.9162016271787508e-01  3.7657083600853486e-01  2.1453928483005705e-01  1.1150935494616857e-01  1.7815829546978308e-02  2.7646532779726455e-02  2.6435653578563548e-02  2.3847931475025310e-02  1.1826143237725571e-02  6.0915597502752983e-03  2.7150755909853487e-03  2.2988694341021894e-03  2.7442480897786193e-03  3.8368236274939271e-03  4.3920480144562582e-03  5.0195962279405001e-03  4.8046870510592282e-03  4.3507636200746450e-03  3.4187458465659423e-04  1.3638591095781122e-03  1.1368794313970526e-03  -6.3109486047987915e-20  1.9560669576681116e-33  3.2418303414836524e-03  1.0043075774171240e-02  2.1328004048085030e-02  2.7093948298460291e-02  8.1983593211266744e-03  6.6570576849420149e-04  6.0221899925983979e-02  3.6619352296428237e-03  6.1270801334295341e-02  5.0074292610293614e-02  7.9413139956507631e-02  2.5894098725243223e-03  3.5341908948969665e-02  4.0831743388357399e-02  4.4915595948184106e-01  2.4397228639944615e-03  1.5880050475246349e-01  3.7465667158279420e-01  3.1169280057207660e-01  8.7300807219101251e-01  8.4561533908043041e-01  2.3951696623006891e-01  1.7266321628967399e-01  4.9118295100355525e-01  2.5999011438909224e-02  1.2318758375092399e-01  1.0712161974887785e-01  4.2252381803427658e-01  1.1849958443475808e-01  2.7659597697323657e-01  1.4573386157626089e-01  2.3937728680252304e-01  1.3628718205561635e-01  6.9084955770618101e-02  4.7838381052361212e-02  3.6745646736031187e-02  2.4214925590596674e-02  1.1198330771147525e-02  5.0662836218142186e-03  2.9656930887231375e-03  3.7488772715674572e-03  3.3232477458644146e-03  5.6672265808231414e-03  4.9514707858984560e-03  6.3035819619215189e-03  6.0592439508957204e-03  2.9886509094093684e-03  1.0715888930426129e-04  2.9329722146936800e-04  1.8612730461663704e-18  7.4913202634097890e-34  1.4845458340649747e-02  1.3492067295914972e-03  5.4203114771658751e-03  4.2438311959389430e-03  2.3629162655897920e-03  5.0640280587190695e-02  3.0095333970919236e-02  2.4850263365356780e-02  1.3708049784140341e-01  1.6626765491080087e-03  2.4434536007179972e-01  1.1519775104836029e-01  2.3188316589782518e-01  2.3035175231064414e-01  4.2901453446526705e-01  8.1459984331157202e-03  2.3344810350250170e-02  5.4165825574147497e-01  5.2654275940355821e-02  1.8665968721950912e-01  1.3972517648335001e-01  2.0791495987670477e-01  1.9553169716947352e-01  1.2299220899504099e-01  1.7000899147411955e-01  4.7007365141105747e-02  5.7923916011111319e-02  4.7726997347918583e-02  8.2619984287125248e-02  1.6766870046235983e-02  2.9894301076709273e-01  3.1501742092487672e-01  3.3743486983683324e-01  1.1773033110691364e-01  9.0991841083297303e-02  4.9860433103078715e-02  3.7681473706303897e-02  2.1946799239721398e-02  9.2405755789423966e-03  5.0299410118163496e-03  3.7026871548375439e-03  3.8266532786866104e-03  5.3148826314526809e-03  5.3277900454734512e-03  6.5997199047055227e-03  6.6664997349203305e-03  5.6832590051633996e-03  1.5920343512347633e-03  6.5022660307837397e-04  1.2485533772349647e-34  -9.7854781165494421e-19  8.8760702724590239e-03  9.3451956631796142e-03  1.0007114780468201e-02  7.9178463686092274e-03  1.5538993540821712e-03  1.8551583492331762e-02  6.9319679148225092e-03  1.3142361617261107e-02  6.3494893229425031e-02  9.649675