<?xml version="1.0"?>
<VTKFile type="UnstructuredGrid"  version="0.1"  >
<UnstructuredGrid>
<Piece  NumberOfPoints="676" NumberOfCells="1250">
<Points>
<DataArray  type="Float64"  NumberOfComponents="3"  format="ascii">0 0 0  0.04 0 0  0.08 0 0  0.12 0 0  0.16 0 0  0.2 0 0  0.24 0 0  0.28 0 0  0.32 0 0  0.36 0 0  0.4 0 0  0.44 0 0  0.48 0 0  0.52 0 0  0.5600000000000001 0 0  0.6 0 0  0.64 0 0  0.68 0 0  0.72 0 0  0.76 0 0  0.8 0 0  0.84 0 0  0.88 0 0  0.92 0 0  0.96 0 0  1 0 0  0 0.04 0  0.04 0.04 0  0.08 0.04 0  0.12 0.04 0  0.16 0.04 0  0.2 0.04 0  0.24 0.04 0  0.28 0.04 0  0.32 0.04 0  0.36 0.04 0  0.4 0.04 0  0.44 0.04 0  0.48 0.04 0  0.52 0.04 0  0.5600000000000001 0.04 0  0.6 0.04 0  0.64 0.04 0  0.68 0.04 0  0.72 0.04 0  0.76 0.04 0  0.8 0.04 0  0.84 0.04 0  0.88 0.04 0  0.92 0.04 0  0.96 0.04 0  1 0.04 0  0 0.08 0  0.04 0.08 0  0.08 0.08 0  0.12 0.08 0  0.16 0.08 0  0.2 0.08 0  0.24 0.08 0  0.28 0.08 0  0.32 0.08 0  0.36 0.08 0  0.4 0.08 0  0.44 0.08 0  0.48 0.08 0  0.52 0.08 0  0.5600000000000001 0.08 0  0.6 0.08 0  0.64 0.08 0  0.68 0.08 0  0.72 0.08 0  0.76 0.08 0  0.8 0.08 0  0.84 0.08 0  0.88 0.08 0  0.92 0.08 0  0.96 0.08 0  1 0.08 0  0 0.12 0  0.04 0.12 0  0.08 0.12 0  0.12 0.12 0  0.16 0.12 0  0.2 0.12 0  0.24 0.12 0  0.28 0.12 0  0.32 0.12 0  0.36 0.12 0  0.4 0.12 0  0.44 0.12 0  0.48 0.12 0  0.52 0.12 0  0.5600000000000001 0.12 0  0.6 0.12 0  0.64 0.12 0  0.68 0.12 0  0.72 0.12 0  0.76 0.12 0  0.8 0.12 0  0.84 0.12 0  0.88 0.12 0  0.92 0.12 0  0.96 0.12 0  1 0.12 0  0 0.16 0  0.04 0.16 0  0.08 0.16 0  0.12 0.16 0  0.16 0.16 0  0.2 0.16 0  0.24 0.16 0  0.28 0.16 0  0.32 0.16 0  0.36 0.16 0  0.4 0.16 0  0.44 0.16 0  0.48 0.16 0  0.52 0.16 0  0.5600000000000001 0.16 0  0.6 0.16 0  0.64 0.16 0  0.68 0.16 0  0.72 0.16 0  0.76 0.16 0  0.8 0.16 0  0.84 0.16 0  0.88 0.16 0  0.92 0.16 0  0.96 0.16 0  1 0.16 0  0 0.2 0  0.04 0.2 0  0.08 0.2 0  0.12 0.2 0  0.16 0.2 0  0.2 0.2 0  0.24 0.2 0  0.28 0.2 0  0.32 0.2 0  0.36 0.2 0  0.4 0.2 0  0.44 0.2 0  0.48 0.2 0  0.52 0.2 0  0.5600000000000001 0.2 0  0.6 0.2 0  0.64 0.2 0  0.68 0.2 0  0.72 0.2 0  0.76 0.2 0  0.8 0.2 0  0.84 0.2 0  0.88 0.2 0  0.92 0.2 0  0.96 0.2 0  1 0.2 0  0 0.24 0  0.04 0.24 0  0.08 0.24 0  0.12 0.24 0  0.16 0.24 0  0.2 0.24 0  0.24 0.24 0  0.28 0.24 0  0.32 0.24 0  0.36 0.24 0  0.4 0.24 0  0.44 0.24 0  0.48 0.24 0  0.52 0.24 0  0.5600000000000001 0.24 0  0.6 0.24 0  0.64 0.24 0  0.68 0.24 0  0.72 0.24 0  0.76 0.24 0  0.8 0.24 0  0.84 0.24 0  0.88 0.24 0  0.92 0.24 0  0.96 0.24 0  1 0.24 0  0 0.28 0  0.04 0.28 0  0.08 0.28 0  0.12 0.28 0  0.16 0.28 0  0.2 0.28 0  0.24 0.28 0  0.28 0.28 0  0.32 0.28 0  0.36 0.28 0  0.4 0.28 0  0.44 0.28 0  0.48 0.28 0  0.52 0.28 0  0.5600000000000001 0.28 0  0.6 0.28 0  0.64 0.28 0  0.68 0.28 0  0.72 0.28 0  0.76 0.28 0  0.8 0.28 0  0.84 0.28 0  0.88 0.28 0  0.92 0.28 0  0.96 0.28 0  1 0.28 0  0 0.32 0  0.04 0.32 0  0.08 0.32 0  0.12 0.32 0  0.16 0.32 0  0.2 0.32 0  0.24 0.32 0  0.28 0.32 0  0.32 0.32 0  0.36 0.32 0  0.4 0.32 0  0.44 0.32 0  0.48 0.32 0  0.52 0.32 0  0.5600000000000001 0.32 0  0.6 0.32 0  0.64 0.32 0  0.68 0.32 0  0.72 0.32 0  0.76 0.32 0  0.8 0.32 0  0.84 0.32 0  0.88 0.32 0  0.92 0.32 0  0.96 0.32 0  1 0.32 0  0 0.36 0  0.04 0.36 0  0.08 0.36 0  0.12 0.36 0  0.16 0.36 0  0.2 0.36 0  0.24 0.36 0  0.28 0.36 0  0.32 0.36 0  0.36 0.36 0  0.4 0.36 0  0.44 0.36 0  0.48 0.36 0  0.52 0.36 0  0.5600000000000001 0.36 0  0.6 0.36 0  0.64 0.36 0  0.68 0.36 0  0.72 0.36 0  0.76 0.36 0  0.8 0.36 0  0.84 0.36 0  0.88 0.36 0  0.92 0.36 0  0.96 0.36 0  1 0.36 0  0 0.4 0  0.04 0.4 0  0.08 0.4 0  0.12 0.4 0  0.16 0.4 0  0.2 0.4 0  0.24 0.4 0  0.28 0.4 0  0.32 0.4 0  0.36 0.4 0  0.4 0.4 0  0.44 0.4 0  0.48 0.4 0  0.52 0.4 0  0.5600000000000001 0.4 0  0.6 0.4 0  0.64 0.4 0  0.68 0.4 0  0.72 0.4 0  0.76 0.4 0  0.8 0.4 0  0.84 0.4 0  0.88 0.4 0  0.92 0.4 0  0.96 0.4 0  1 0.4 0  0 0.44 0  0.04 0.44 0  0.08 0.44 0  0.12 0.44 0  0.16 0.44 0  0.2 0.44 0  0.24 0.44 0  0.28 0.44 0  0.32 0.44 0  0.36 0.44 0  0.4 0.44 0  0.44 0.44 0  0.48 0.44 0  0.52 0.44 0  0.5600000000000001 0.44 0  0.6 0.44 0  0.64 0.44 0  0.68 0.44 0  0.72 0.44 0  0.76 0.44 0  0.8 0.44 0  0.84 0.44 0  0.88 0.44 0  0.92 0.44 0  0.96 0.44 0  1 0.44 0  0 0.48 0  0.04 0.48 0  0.08 0.48 0  0.12 0.48 0  0.16 0.48 0  0.2 0.48 0  0.24 0.48 0  0.28 0.48 0  0.32 0.48 0  0.36 0.48 0  0.4 0.48 0  0.44 0.48 0  0.48 0.48 0  0.52 0.48 0  0.5600000000000001 0.48 0  0.6 0.48 0  0.64 0.48 0  0.68 0.48 0  0.72 0.48 0  0.76 0.48 0  0.8 0.48 0  0.84 0.48 0  0.88 0.48 0  0.92 0.48 0  0.96 0.48 0  1 0.48 0  0 0.52 0  0.04 0.52 0  0.08 0.52 0  0.12 0.52 0  0.16 0.52 0  0.2 0.52 0  0.24 0.52 0  0.28 0.52 0  0.32 0.52 0  0.36 0.52 0  0.4 0.52 0  0.44 0.52 0  0.48 0.52 0  0.52 0.52 0  0.5600000000000001 0.52 0  0.6 0.52 0  0.64 0.52 0  0.68 0.52 0  0.72 0.52 0  0.76 0.52 0  0.8 0.52 0  0.84 0.52 0  0.88 0.52 0  0.92 0.52 0  0.96 0.52 0  1 0.52 0  0 0.5600000000000001 0  0.04 0.5600000000000001 0  0.08 0.5600000000000001 0  0.12 0.5600000000000001 0  0.16 0.5600000000000001 0  0.2 0.5600000000000001 0  0.24 0.5600000000000001 0  0.28 0.5600000000000001 0  0.32 0.5600000000000001 0  0.36 0.5600000000000001 0  0.4 0.5600000000000001 0  0.44 0.5600000000000001 0  0.48 0.5600000000000001 0  0.52 0.5600000000000001 0  0.5600000000000001 0.5600000000000001 0  0.6 0.5600000000000001 0  0.64 0.5600000000000001 0  0.68 0.5600000000000001 0  0.72 0.5600000000000001 0  0.76 0.5600000000000001 0  0.8 0.5600000000000001 0  0.84 0.5600000000000001 0  0.88 0.5600000000000001 0  0.92 0.5600000000000001 0  0.96 0.5600000000000001 0  1 0.5600000000000001 0  0 0.6 0  0.04 0.6 0  0.08 0.6 0  0.12 0.6 0  0.16 0.6 0  0.2 0.6 0  0.24 0.6 0  0.28 0.6 0  0.32 0.6 0  0.36 0.6 0  0.4 0.6 0  0.44 0.6 0  0.48 0.6 0  0.52 0.6 0  0.5600000000000001 0.6 0  0.6 0.6 0  0.64 0.6 0  0.68 0.6 0  0.72 0.6 0  0.76 0.6 0  0.8 0.6 0  0.84 0.6 0  0.88 0.6 0  0.92 0.6 0  0.96 0.6 0  1 0.6 0  0 0.64 0  0.04 0.64 0  0.08 0.64 0  0.12 0.64 0  0.16 0.64 0  0.2 0.64 0  0.24 0.64 0  0.28 0.64 0  0.32 0.64 0  0.36 0.64 0  0.4 0.64 0  0.44 0.64 0  0.48 0.64 0  0.52 0.64 0  0.5600000000000001 0.64 0  0.6 0.64 0  0.64 0.64 0  0.68 0.64 0  0.72 0.64 0  0.76 0.64 0  0.8 0.64 0  0.84 0.64 0  0.88 0.64 0  0.92 0.64 0  0.96 0.64 0  1 0.64 0  0 0.68 0  0.04 0.68 0  0.08 0.68 0  0.12 0.68 0  0.16 0.68 0  0.2 0.68 0  0.24 0.68 0  0.28 0.68 0  0.32 0.68 0  0.36 0.68 0  0.4 0.68 0  0.44 0.68 0  0.48 0.68 0  0.52 0.68 0  0.5600000000000001 0.68 0  0.6 0.68 0  0.64 0.68 0  0.68 0.68 0  0.72 0.68 0  0.76 0.68 0  0.8 0.68 0  0.84 0.68 0  0.88 0.68 0  0.92 0.68 0  0.96 0.68 0  1 0.68 0  0 0.72 0  0.04 0.72 0  0.08 0.72 0  0.12 0.72 0  0.16 0.72 0  0.2 0.72 0  0.24 0.72 0  0.28 0.72 0  0.32 0.72 0  0.36 0.72 0  0.4 0.72 0  0.44 0.72 0  0.48 0.72 0  0.52 0.72 0  0.5600000000000001 0.72 0  0.6 0.72 0  0.64 0.72 0  0.68 0.72 0  0.72 0.72 0  0.76 0.72 0  0.8 0.72 0  0.84 0.72 0  0.88 0.72 0  0.92 0.72 0  0.96 0.72 0  1 0.72 0  0 0.76 0  0.04 0.76 0  0.08 0.76 0  0.12 0.76 0  0.16 0.76 0  0.2 0.76 0  0.24 0.76 0  0.28 0.76 0  0.32 0.76 0  0.36 0.76 0  0.4 0.76 0  0.44 0.76 0  0.48 0.76 0  0.52 0.76 0  0.5600000000000001 0.76 0  0.6 0.76 0  0.64 0.76 0  0.68 0.76 0  0.72 0.76 0  0.76 0.76 0  0.8 0.76 0  0.84 0.76 0  0.88 0.76 0  0.92 0.76 0  0.96 0.76 0  1 0.76 0  0 0.8 0  0.04 0.8 0  0.08 0.8 0  0.12 0.8 0  0.16 0.8 0  0.2 0.8 0  0.24 0.8 0  0.28 0.8 0  0.32 0.8 0  0.36 0.8 0  0.4 0.8 0  0.44 0.8 0  0.48 0.8 0  0.52 0.8 0  0.5600000000000001 0.8 0  0.6 0.8 0  0.64 0.8 0  0.68 0.8 0  0.72 0.8 0  0.76 0.8 0  0.8 0.8 0  0.84 0.8 0  0.88 0.8 0  0.92 0.8 0  0.96 0.8 0  1 0.8 0  0 0.84 0  0.04 0.84 0  0.08 0.84 0  0.12 0.84 0  0.16 0.84 0  0.2 0.84 0  0.24 0.84 0  0.28 0.84 0  0.32 0.84 0  0.36 0.84 0  0.4 0.84 0  0.44 0.84 0  0.48 0.84 0  0.52 0.84 0  0.5600000000000001 0.84 0  0.6 0.84 0  0.64 0.84 0  0.68 0.84 0  0.72 0.84 0  0.76 0.84 0  0.8 0.84 0  0.84 0.84 0  0.88 0.84 0  0.92 0.84 0  0.96 0.84 0  1 0.84 0  0 0.88 0  0.04 0.88 0  0.08 0.88 0  0.12 0.88 0  0.16 0.88 0  0.2 0.88 0  0.24 0.88 0  0.28 0.88 0  0.32 0.88 0  0.36 0.88 0  0.4 0.88 0  0.44 0.88 0  0.48 0.88 0  0.52 0.88 0  0.5600000000000001 0.88 0  0.6 0.88 0  0.64 0.88 0  0.68 0.88 0  0.72 0.88 0  0.76 0.88 0  0.8 0.88 0  0.84 0.88 0  0.88 0.88 0  0.92 0.88 0  0.96 0.88 0  1 0.88 0  0 0.92 0  0.04 0.92 0  0.08 0.92 0  0.12 0.92 0  0.16 0.92 0  0.2 0.92 0  0.24 0.92 0  0.28 0.92 0  0.32 0.92 0  0.36 0.92 0  0.4 0.92 0  0.44 0.92 0  0.48 0.92 0  0.52 0.92 0  0.5600000000000001 0.92 0  0.6 0.92 0  0.64 0.92 0  0.68 0.92 0  0.72 0.92 0  0.76 0.92 0  0.8 0.92 0  0.84 0.92 0  0.88 0.92 0  0.92 0.92 0  0.96 0.92 0  1 0.92 0  0 0.96 0  0.04 0.96 0  0.08 0.96 0  0.12 0.96 0  0.16 0.96 0  0.2 0.96 0  0.24 0.96 0  0.28 0.96 0  0.32 0.96 0  0.36 0.96 0  0.4 0.96 0  0.44 0.96 0  0.48 0.96 0  0.52 0.96 0  0.5600000000000001 0.96 0  0.6 0.96 0  0.64 0.96 0  0.68 0.96 0  0.72 0.96 0  0.76 0.96 0  0.8 0.96 0  0.84 0.96 0  0.88 0.96 0  0.92 0.96 0  0.96 0.96 0  1 0.96 0  0 1 0  0.04 1 0  0.08 1 0  0.12 1 0  0.16 1 0  0.2 1 0  0.24 1 0  0.28 1 0  0.32 1 0  0.36 1 0  0.4 1 0  0.44 1 0  0.48 1 0  0.52 1 0  0.5600000000000001 1 0  0.6 1 0  0.64 1 0  0.68 1 0  0.72 1 0  0.76 1 0  0.8 1 0  0.84 1 0  0.88 1 0  0.92 1 0  0.96 1 0  1 1 0  </DataArray>
</Points>
<Cells>
[...]
<PointData  Scalars="Indicator Function"> 
<DataArray  type="Float64"  Name="Indicator Function"  format="ascii">-2.2201613675530161e-20  -8.0448839806407220e-19  1.5059163687367474e-17  1.4825786419196002e-17  -5.6536976240615259e-19  -1.1345362874348148e-19  -7.1113421749629107e-20  -1.5909853473864797e-18  -8.6466448781960177e-18  -4.8031772775663606e-19  4.0295010729161208e-17  8.0323556581050771e-18  0.0000000000000000e+00  -2.8888949165808538e-34  2.5146769556037081e-17  4.5138983071575840e-36  2.0312542382209128e-35  2.6321532110940063e-18  3.0092655381050560e-36  -5.0479802630369225e-21  8.4547482537464669e-20  -1.1176015741370000e-20  -1.1483911262545314e-20  6.6104026530988810e-19  -3.0957655900892698e-22  -7.5231638452626401e-37  -6.8109381365440731e-21  3.9994871630456553e-04  2.9704854345523873e-03  1.3247504549406217e-02  1.7294168832976203e-04  4.0875977610637902e-03  2.5621310375412176e-03  1.1513729129630643e-02  6.7599039466584750e-03  1.3821158593335882e-02  1.7420556623089459e-03  1.3145839991829066e-02  6.3701633762720984e-03  1.7301363811221308e-03  1.0996054583295692e-03  1.1014872549850465e-03  6.6410178932382207e-04  5.2150384897385572e-04  2.2081332592026131e-04  1.0979162858996401e-04  9.0936328126346811e-05  1.3987535528183290e-04  1.5432166401898109e-04  1.2971492192152882e-04  1.1153671006361919e-05  3.0957655900892717e-22  -2.5126824461907958e-19  1.2269495381513111e-04  1.8819343304679237e-04  4.2820364517588807e-03  2.0864450954475720e-02  4.6006479362250760e-03  2.2760211958650009e-02  2.1673816443485188e-02  4.0765389124903191e-02  1.4107382323502460e-03  1.9736364084839548e-02  9.4765923995367776e-03  2.6344469958424255e-02  2.8852656468404426e-04  3.3237002336306523e-03  3.3408442222701445e-03  2.1660999140155411e-03  1.4683087346074343e-03  9.0365868111782154e-04  5.2832560621789712e-04  5.7300351357010554e-05  9.5497671232435639e-05  3.5243069329156130e-04  2.6397136975743360e-04  5.5366158068814356e-05  -1.5529004911093818e-20  -8.3883600557837627e-20  4.5264462913461034e-03  5.9784818428129617e-03  6.5477192389506019e-03  3.4952760361562883e-02  3.8405361474959194e-03  7.6013747366991506e-03  1.0150147835168951e-03  2.3684456806488893e-02  2.1144627815686098e-02  3.6636248093533122e-02  7.8236037452533158e-03  3.9015347973253199e-02  2.1754200971555514e-02  7.6706344092263967e-03  7.4311753629486112e-03  6.2728360859237347e-03  3.2935684659071386e-03  2.1022026203260046e-03  1.0335255746872338e-03  7.3872857165359340e-04  8.6356481016377579e-05  4.3207918439781389e-04  3.9643959744700913e-04  2.5814624674714383e-04  -3.5824988357405721e-20  -4.1708108414346761e-19  3.4350874207868956e-03  3.0822933200091861e-03  2.5406496759968872e-03  5.5694175173998692e-04  4.9268303553493563e-02  5.1216293840770505e-03  5.5019846509407014e-02  4.1017636964483309e-02  1.0136966589231268e-01  1.4697413782515866e-02  5.8387153987119154e-02  3.8546040571355383e-02  8.0181229257927741e-02  1.9877205703729355e-02  1.7413992885921516e-02  1.4907607908110588e-02  9.5821486472353386e-03  5.0000479300307222e-03  2.4242656055043581e-03  1.0107804933790036e-03  6.0789138190274873e-04  8.2230361941608429e-05  6.6308826335726107e-04  3.3332714522671614e-04  8.3265181056736318e-20  -1.4444474582904269e-34  9.0494042064914303e-03  7.4461082612747543e-03  4.4293118871576659e-03  5.1771915042766129e-03  6.7636631216733287e-02  2.2117225517276743e-02  1.6515693572889765e-02  1.3764564062694069e-02  7.5648422252480474e-02  8.5858461311946230e-02  1.5019706341514563e-01  8.4488796410523967e-02  1.3427622701684783e-01  9.0865736017668799e-02  5.0145558661051415e-02  3.4252954823539759e-02  2.2492043028648621e-02  1.1027703921036976e-02  5.3627266061950047e-03  2.0678733523623498e-03  7.4936727971793471e-04  2.7843508991370853e-04  1.4569088560823904e-05  4.6463947552253751e-04  -2.5792672193743872e-20  -4.6643615840628368e-35  1.3043911034122920e-02  7.9502184728464098e-03  7.3033511857674652e-03  5.0899743891153031e-03  2.7123803595920974e-02  1.4619444284722435e-01  2.0010068052777750e-02  1.5941242263940381e-01  1.3690226908272976e-02  3.0528842389502064e-01  1.0967036572392944e-01  1.8428280141075570e-01  1.9334316044030136e-01  2.3583533279573340e-01  1.0149610766603177e-01  5.3214304159479107e-02  3.6966961377740706e-02  2.3175437677290023e-02  1.1434201484196389e-02  5.0488182829351589e-03  1.6056666127719711e-03  5.2671595953833494e-04  1.6126544598810304e-04  2.5764447358901518e-06  -1.4302141337296483e-22  5.1759367255406964e-34  9.1171632631193364e-03  3.1880758766253377e-03  1.8176993433896789e-02  3.1802924475702134e-02  2.4612351491078030e-02  1.1651365909444655e-01  1.1463322949683650e-03  1.3715198096626671e-01  9.8405368584205941e-02  6.6394074714996823e-02  2.6220463215991349e-02  3.3554984721484343e-01  1.6922826050928149e-02  3.2071742601205366e-01  3.9609949717923043e-01  2.8720422421800429e-03  4.3831788128916783e-02  4.5164337926688163e-02  2.4567997476015742e-02  1.0834195326347554e-02  4.2585312004868661e-03  1.1819838784408218e-03  5.1875727499549155e-04  2.1104126230296407e-04  1.8192884280972244e-20  -1.9259299443872359e-34  1.6575864471979694e-02  1.4755765184192315e-02  3.9368959714152010e-03  1.4214291680252546e-02  4.5345693544435892e-02  7.2933278559538781e-02  1.1491326877527319e-01  1.7179672850640160e-01  2.4507377426181196e-01  8.8857577074925628e-02  1.6500892812858456e-01  2.6799485034791008e-02  1.0714364767905880e-01  1.6095747223668123e-02  7.3743778137204050e-02  6.4037016806052713e-02  2.8819582111739499e-02  6.7124414342937158e-02  4.3040244356185801e-02  2.1145569135290868e-02  8.5962835972157089e-03  2.9857417858960059e-03  9.1460586017924075e-04  2.7553869269106204e-04  -1.2037062152420224e-34  -1.0189172653561330e-19  2.3519679065601520e-03  1.1884264414766955e-02  3.3583554200409017e-02  7.0380059835480305e-02  5.9754094678647049e-02  3.3658323458036619e-02  1.7586380717781297e-01  3.6394400947828859e-01  7.3846658329044398e-02  4.7270407080181702e-02  1.6272700091397852e-02  9.6205846623019994e-02  8.5889229953042920e-02  4.5373939245435445e-02  4.6614574070735708e-02  9.8983749033556653e-02  6.3203230983994885e-02  3.5467634984345318e-02  5.6264422948194483e-02  3.3379469101997336e-02  1.4717505536886511e-02  5.5545444136950520e-03  1.6012554062728047e-03  6.2362204877917146e-04  3.6111186457260672e-35  2.0463005659114381e-34  2.7190150419797569e-03  4.4464289796620170e-03  1.8497489048377811e-03  2.3256453617356624e-02  9.8212203519899927e-02  3.1674863174403339e-01  1.0421602423740146e-01  1.3647773438863040e-01  4.0221222144905582e-02  4.8681825961651493e-02  2.3031682512228060e-02  6.9312853394494431e-02  6.3828198528061972e-02  8.1340116195461012e-02  3.7652328883915891e-02  1.1659295465406459e-01  9.9344905899948308e-02  6.2908262886016961e-02  5.5500915945907787e-02  3.7487761050221884e-02  2.0610119442452390e-02  8.4350866935156889e-03  2.7630162533066492e-03  8.1048279357782418e-04  2.4600745774008833e-34  -3.6111186457260672e-35  2.8675618057509376e-03  5.7049907625084247e-04  2.0747964709765747e-02  4.0030354275565776e-02  8.4931424926602966e-02  7.0328398492876809e-02  4.0308103240756848e-01  5.2438463324856202e-02  1.1863996624601188e-02  2.1409122199953487e-02  1.0327570438368714e-02  5.9380940241630063e-03  8.8609997195432486e-02  8.0679634780078308e-02  2.4127004409769108e-02  6.4879513438271905e-02  2.1523340645530276e-01  2.3268649233573904e-01  2.6728785073366779e-02  2.2190291981406408e-02  2.0195391939097130e-02  1.0870129000823368e-02  4.2083141553788160e-03  9.8611571656274173e-04  -7.1018666699279322e-34  -2.1903839767132700e-19  9.7461428389794234e-03  7.8229814096337433e-03  5.8868960553476943e-03  2.7349816037016052e-02  1.0702036549631019e-01  1.5510041830593521e-01  2.7849894883409006e-02  1.3502648573616696e-01  5.4937072711324968e-02  1.2059272288813426e-02  3.5525672079240560e-02  2.4325621833685127e-03  6.7193242871037437e-02  6.4751296451772924e-02  9.9538564938988258e-02  4.2605445206998369e-02  1.3989235454554144e-01  1.6866103749151287e-01  3.9704572025360724e-01  2.2409248578437752e-02  9.9476797938672559e-03  1.0903675822909612e-02  5.5160825377783065e-03  1.4475500956189302e-03  4.8148248609680896e-35  -4.8148248609680896e-35  3.9458449845296770e-03  1.2568439959578454e-02  2.5415689176600836e-02  5.2787994387335037e-02  8.0078363729670712e-02  1.2648809486192777e-01  2.1943396933541204e-01  6.8093137521933092e-02  8.2695231560811308e-02  3.4532529324860950e-02  7.3096717237917637e-03  1.3706065605660730e-02  1.7496626761554494e-02  9.5680168250417766e-02  8.6418416209936164e-02  7.6429847660648342e-03  1.8429876074811036e-01  4.1087838664771192e-01  1.6750360643645972e-02  5.9921100283255473e-02  2.5377887129623616e-02  5.4887046721341553e-03  5.7425439991868202e-03  2.5271010860055025e-03  9.6296497219361793e-35  -1.5494312301277733e-20  1.8737748994189700e-03  3.4221283707799354e-03  8.6235885979116401e-03  3.4826830005070405e-02  1.0998272215753661e-01  1.8354371471104189e-01  1.0813433999578191e-01  9.8189297897955830e-02  1.1435360510426883e-01  5.5796215000806518e-02  5.6056998902299281e-02  1.2420652106317317e-02  1.5092357460442738e-02  9.4401626690823720e-02  1.9213117952956865e-02  8.6734805847747717e-02  4.9991281175070047e-02  2.1535788232332878e-01  6.3456211934321427e-01  6.3918912071910888e-02  8.3857025301325959e-03  1.8005327739942324e-02  3.1664041898587245e-03  3.0780680790062813e-03  1.1886598875514971e-33  -2.3586916473354547e-20  7.3720416931037031e-03  5.7036558038052838e-03  1.3694592652442305e-02  2.2099423813693030e-02  4.6826324104694554e-02  7.3721648414831323e-02  2.3052246592591746e-01  1.1310162314307574e-01  8.3130365191312935e-02  1.0432706794939868e-01  6.4081658742223518e-02  7.2218745758162325e-02  2.1103258718350334e-02  1.9812429373720557e-03  2.5424070277413668e-01  1.8834324502561853e-01  1.1719468297472743e-01  1.1478064828000588e-01  2.3144601738579341e-04  9.9872242227175917e-02  2.3473633169854631e-02  2.7709089991254446e-02  1.0207663350249198e-02  7.1681078889715920e-04  0.0000000000000000e+00  1.2037062152420224e-35  4.2490411296087436e-04  6.0597119982737681e-03  1.1398188636054095e-02  2.7459547494501853e-02  5.6707473563937974e-02  8.6545786125952970e-02  3.1211045194165524e-02  1.6094384160910513e-01  5.1689735448237836e-02  1.6251046817237444e-01  4.8438285756656436e-02  1.1320126992325268e-01  9.6749274739819577e-03  6.2371126516865161e-02  1.8497121266130592e-01  8.3442936306340296e-02  4.6367535585509162e-01  3.0993497024960798e-01  1.5694299677022336e-01  5.3108174746038184e-02  3.1847037018043652e-02  4.9986152197074047e-03  2.2029050973855505e-02  4.2562489282732150e-03  -2.4074124304840448e-35  -6.0185310762101120e-36  7.5891658780664754e-04  2.1460856247232751e-03  2.9766204199672816e-03  1.2829013789135013e-02  3.3507929778539863e-02  7.4226406150214044e-02  1.1974045901743162e-01  1.7046123216709785e-02  1.9180746435290294e-01  2.0124909543535360e-01  2.2940543705041661e-01  1.3704140301719384e-01  1.2012915869162004e-01  4.5416794859332039e-02  1.4750390546837364e-01  4.2823240591290934e-01  1.2029016438872539e-01  8.5317240366819938e-02  4.8230558273688433e-02  5.4242375503453684e-02  4.9130066356926821e-02  2.1542608630316897e-02  1.6894075906058827e-02  1.2954761650634746e-02  -4.0444528832131953e-33  -1.1284745767893960e-35  1.0926576633931485e-03  6.1022334996026890e-04  5.1653221975832900e-03  5.5065185185160133e-03  1.6124954663396845e-02  3.2727726066262612e-02  5.1465904291441926e-02  6.6830382671094521e-02  2.3363601907564349e-01  8.6970040350255268e-02  2.9970527282668197e-01  1.4965183468220353e-01  4.5722108996098948e-01  1.8242086992283268e-01  8.3098013613912433e-02  5.8979360322889685e-01  2.0421948365400014e-01  1.0968658355369830e-01  5.0109520261553221e-02  2.5085719889921206e-02  3.7808992872704603e-02  3.6192380995385007e-02  1.4004124465360797e-02  8.5119538875301250e-03  0.0000000000000000e+00  -3.0092655381050560e-36  7.8766178261928822e-04  8.9551895470327443e-04  1.2415741192993550e-03  5.3828549753753624e-03  9.8811985637426280e-03  2.1954374126947319e-02  3.5414020244063475e-02  3.1208692059686658e-02  4.5632830942820411e-02  9.7616921766167930e-03  4.7491492417781306e-02  4.2560542684933061e-01  1.7694762050227627e-03  5.0561295386396077e-01  3.8279920217778557e-01  7.5218633086673051e-02  8.7448789021734932e-02  6.9397602953152573e-02  6.8030629298546919e-02  3.6383482894681685e-02  3.7196812460203253e-02  3.0969893693711583e-02  2.4571462041207935e-02  1.0091817833501181e-03  -5.6020842595378530e-20  -4.4255726856821374e-21  7.1850282292290559e-04  1.3186881757162440e-03  2.6201354528244605e-04  4.3274297203400687e-03  4.5904077970562078e-03  1.2087282858464152e-02  2.3140124446740708e-02  3.1459992245022425e-02  2.5152557038301115e-02  4.0909080034936341e-03  2.0981051322964069e-02  1.1714163931238995e-01  2.1480391149467103e-02  1.0840820297479913e-01  1.2659416129508017e-02  9.3657505756218271e-02  1.8469011641840435e-02  4.3815462269280896e-02  5.7533556470112261e-02  2.9790554618529731e-02  2.4686370086184080e-02  2.1956501677833438e-02  1.8024354626339400e-02  1.0286254327477090e-02  -6.9333477997940491e-33  -6.0066236541116904e-21  2.9715615517692922e-04  9.1240197924661638e-04  1.4504062144236256e-03  5.4880033484475013e-04  5.2770061797329975e-03  5.4542111032169494e-03  1.3341829705792160e-02  2.0904912724322353e-02  1.9900353245669366e-02  1.5277537747028162e-02  2.1551419643118293e-02  3.0627512879423547e-02  6.3481800679434985e-02  3.7905916192542619e-02  6.3770016428509269e-02  1.8353790080577106e-02  1.3610477092859440e-02  1.5838482932148259e-02  4.5399669855186474e-02  4.0870508186857328e-02  3.4897647920171290e-04  1.5952190553074209e-02  7.7251368365005204e-03  3.6980964806729039e-03  2.3111159332646830e-33  1.1284745767893960e-36  1.0882448032626935e-04  3.8702027235166039e-04  8.5435664215553200e-04  8.8888459936835914e-04  2.3521134455305598e-03  3.8957068148945564e-03  6.8415463003214929e-03  1.3553114123169703e-02  1.8631648186107162e-02  1.8985888295176449e-02  1.5036983891027752e-02  2.5894837221863688e-02  1.2187756845526605e-02  5.7246805704824592e-03  3.3318896499950185e-03  1.8779751441603054e-02  1.4621034220303064e-02  1.6160413053874195e-02  1.4129514588568693e-02  2.7511268809618520e-02  2.2661665387899734e-02  1.3981172930179695e-02  3.0384542958456153e-03  1.4946983746404344e-03  1.5407439555097887e-33  -6.5827683646048100e-37  8.0336674213527250e-05  1.4468314937147797e-04  5.2421543387793485e-04  9.2988228445343708e-04  2.7993995720315375e-04  3.2765018452781511e-03  2.9671617878963626e-03  7.0644069056485454e-03  1.2156181844539499e-02  1.4524249101230059e-02  5.0474957001944536e-03  8.6512523420603539e-03  1.9220149424894768e-02  1.7827419363186690e-02  2.9837061034154923e-02  4.9042707719472974e-03  2.8864090879411706e-04  6.7203660624903360e-03  4.0919468012565940e-03  8.7233092586730763e-03  1.1077903733521115e-02  7.9382012852509641e-03  5.7232401845233359e-03  2.8784589646123071e-03  7.9893285448748290e-20  -2.4685381367268038e-37  4.8313868348462603e-05  8.3920543127299533e-05  1.5375539593401422e-04  4.1168686827022934e-04  6.7525001741719178e-04  7.1678866836294279e-04  2.0201344638336154e-03  2.6404112597249621e-03  5.5713968941974463e-03  9.3391261598338854e-03  1.4019642080880763e-02  4.3308258826750485e-03  3.4185260270803894e-03  9.2993854206925766e-03  6.8020037224010236e-03  2.2233611470259269e-02  6.1793228298421439e-03  3.4367141672262480e-03  1.0590506568465452e-03  8.2413671250650914e-03  4.6702231007495244e-03  1.9664238788544075e-04  1.1795678012606573e-03  9.6650343473956395e-03  -5.3651718331357929e-19  -4.2317796629602350e-37  2.2569491535787920e-36  1.5911233988138909e-20  -2.1337847590787482e-20  5.7176045223996064e-35  4.2129717533470784e-35  -3.9789764170347121e-20  1.8319699067142035e-22  1.6851887013388314e-34  4.8148248609680896e-35  -5.8981604546859098e-34  3.8912323587993448e-19  -2.4040913052941754e-19  1.5407439555097887e-33  1.4176496096605404e-17  -3.7758705730977911e-19  -1.2342133687425898e-18  1.7151066205699585e-19  -1.9077595987550520e-19  -5.8789121173772833e-20  3.8232750548586001e-18  -2.5924946082942206e-19  0.0000000000000000e+00  3.2739583301644108e-20  -5.3651718331357852e-19  2.4976211883346654e-18  </DataArray> 
</PointData> 
</Piece>
</UnstructuredGrid>
</VTKFile>