<?xml version="1.0"?>
<VTKFile type="UnstructuredGrid"  version="0.1"  >
<UnstructuredGrid>
<Piece  NumberOfPoints="2601" NumberOfCells="5000">
<Points>
<DataArray  type="Float64"  NumberOfComponents="3"  format="ascii">0 0 0  0.02 0 0  0.04 0 0  0.06 0 0  0.08 0 0  0.1 0 0  0.12 0 0  0.14 0 0  0.16 0 0  0.18 0 0  0.2 0 0  0.22 0 0  0.24 0 0  0.26 0 0  0.28 0 0  0.3 0 0  0.32 0 0  0.34 0 0  0.36 0 0  0.38 0 0  0.4 0 0  0.42 0 0  0.44 0 0  0.46 0 0  0.48 0 0  0.5 0 0  0.52 0 0  0.54 0 0  0.5600000000000001 0 0  0.58 0 0  0.6 0 0  0.62 0 0  0.64 0 0  0.66 0 0  0.68 0 0  0.7 0 0  0.72 0 0  0.74 0 0  0.76 0 0  0.78 0 0  0.8 0 0  0.82 0 0  0.84 0 0  0.86 0 0  0.88 0 0  0.9 0 0  0.92 0 0  0.9399999999999999 0 0  0.96 0 0  0.98 0 0  1 0 0  0 0.02 0  0.02 0.02 0  0.04 0.02 0  0.06 0.02 0  0.08 0.02 0  0.1 0.02 0  0.12 0.02 0  0.14 0.02 0  0.16 0.02 0  0.18 0.02 0  0.2 0.02 0  0.22 0.02 0  0.24 0.02 0  0.26 0.02 0  0.28 0.02 0  0.3 0.02 0  0.32 0.02 0  0.34 0.02 0  0.36 0.02 0  0.38 0.02 0  0.4 0.02 0  0.42 0.02 0  0.44 0.02 0  0.46 0.02 0  0.48 0.02 0  0.5 0.02 0  0.52 0.02 0  0.54 0.02 0  0.5600000000000001 0.02 0  0.58 0.02 0  0.6 0.02 0  0.62 0.02 0  0.64 0.02 0  0.66 0.02 0  0.68 0.02 0  0.7 0.02 0  0.72 0.02 0  0.74 0.02 0  0.76 0.02 0  0.78 0.02 0  0.8 0.02 0  0.82 0.02 0  0.84 0.02 0  0.86 0.02 0  0.88 0.02 0  0.9 0.02 0  0.92 0.02 0  0.9399999999999999 0.02 0  0.96 0.02 0  0.98 0.02 0  1 0.02 0  0 0.04 0  0.02 0.04 0  0.04 0.04 0  0.06 0.04 0  0.08 0.04 0  0.1 0.04 0  0.12 0.04 0  0.14 0.04 0  0.16 0.04 0  0.18 0.04 0  0.2 0.04 0  0.22 0.04 0  0.24 0.04 0  0.26 0.04 0  0.28 0.04 0  0.3 0.04 0  0.32 0.04 0  0.34 0.04 0  0.36 0.04 0  0.38 0.04 0  0.4 0.04 0  0.42 0.04 0  0.44 0.04 0  0.46 0.04 0  0.48 0.04 0  0.5 0.04 0  0.52 0.04 0  0.54 0.04 0  0.5600000000000001 0.04 0  0.58 0.04 0  0.6 0.04 0  0.62 0.04 0  0.64 0.04 0  0.66 0.04 0  0.68 0.04 0  0.7 0.04 0  0.72 0.04 0  0.74 0.04 0  0.76 0.04 0  0.78 0.04 0  0.8 0.04 0  0.82 0.04 0  0.84 0.04 0  0.86 0.04 0  0.88 0.04 0  0.9 0.04 0  0.92 0.04 0  0.9399999999999999 0.04 0  0.96 0.04 0  0.98 0.04 0  1 0.04 0  0 0.06 0  0.02 0.06 0  0.04 0.06 0  0.06 0.06 0  0.08 0.06 0  0.1 0.06 0  0.12 0.06 0  0.14 0.06 0  0.16 0.06 0  0.18 0.06 0  0.2 0.06 0  0.22 0.06 0  0.24 0.06 0  0.26 0.06 0  0.28 0.06 0  0.3 0.06 0  0.32 0.06 0  0.34 0.06 0  0.36 0.06 0  0.38 0.06 0  0.4 0.06 0  0.42 0.06 0  0.44 0.06 0  0.46 0.06 0  0.48 0.06 0  0.5 0.06 0  0.52 0.06 0  0.54 0.06 0  0.5600000000000001 0.06 0  0.58 0.06 0  0.6 0.06 0  0.62 0.06 0  0.64 0.06 0  0.66 0.06 0  0.68 0.06 0  0.7 0.06 0  0.72 0.06 0  0.74 0.06 0  0.76 0.06 0  0.78 0.06 0  0.8 0.06 0  0.82 0.06 0  0.84 0.06 0  0.86 0.06 0  0.88 0.06 0  0.9 0.06 0  0.92 0.06 0  0.9399999999999999 0.06 0  0.96 0.06 0  0.98 0.06 0  1 0.06 0  0 0.08 0  0.02 0.08 0  0.04 0.08 0  0.06 0.08 0  0.08 0.08 0  0.1 0.08 0  0.12 0.08 0  0.14 0.08 0  0.16 0.08 0  0.18 0.08 0  0.2 0.08 0  0.22 0.08 0  0.24 0.08 0  0.26 0.08 0  0.28 0.08 0  0.3 0.08 0  0.32 0.08 0  0.34 0.08 0  0.36 0.08 0  0.38 0.08 0  0.4 0.08 0  0.42 0.08 0  0.44 0.08 0  0.46 0.08 0  0.48 0.08 0  0.5 0.08 0  0.52 0.08 0  0.54 0.08 0  0.5600000000000001 0.08 0  0.58 0.08 0  0.6 0.08 0  0.62 0.08 0  0.64 0.08 0  0.66 0.08 0  0.68 0.08 0  0.7 0.08 0  0.72 0.08 0  0.74 0.08 0  0.76 0.08 0  0.78 0.08 0  0.8 0.08 0  0.82 0.08 0  0.84 0.08 0  0.86 0.08 0  0.88 0.08 0  0.9 0.08 0  0.92 0.08 0  0.9399999999999999 0.08 0  0.96 0.08 0  0.98 0.08 0  1 0.08 0  0 0.1 0  0.02 0.1 0  0.04 0.1 0  0.06 0.1 0  0.08 0.1 0  0.1 0.1 0  0.12 0.1 0  0.14 0.1 0  0.16 0.1 0  0.18 0.1 0  0.2 0.1 0  0.22 0.1 0  0.24 0.1 0  0.26 0.1 0  0.28 0.1 0  0.3 0.1 0  0.32 0.1 0  0.34 0.1 0  0.36 0.1 0  0.38 0.1 0  0.4 0.1 0  0.42 0.1 0  0.44 0.1 0  0.46 0.1 0  0.48 0.1 0  0.5 0.1 0  0.52 0.1 0  0.54 0.1 0  0.5600000000000001 0.1 0  0.58 0.1 0  0.6 0.1 0  0.62 0.1 0  0.64 0.1 0  0.66 0.1 0  0.68 0.1 0  0.7 0.1 0  0.72 0.1 0  0.74 0.1 0  0.76 0.1 0  0.78 0.1 0  0.8 0.1 0  0.82 0.1 0  0.84 0.1 0  0.86 0.1 0  0.88 0.1 0  0.9 0.1 0  0.92 0.1 0  0.9399999999999999 0.1 0  0.96 0.1 0  0.98 0.1 0  1 0.1 0  0 0.12 0  0.02 0.12 0  0.04 0.12 0  0.06 0.12 0  0.08 0.12 0  0.1 0.12 0  0.12 0.12 0  0.14 0.12 0  0.16 0.12 0  0.18 0.12 0  0.2 0.12 0  0.22 0.12 0  0.24 0.12 0  0.26 0.12 0  0.28 0.12 0  0.3 0.12 0  0.32 0.12 0  0.34 0.12 0  0.36 0.12 0  0.38 0.12 0  0.4 0.12 0  0.42 0.12 0  0.44 0.12 0  0.46 0.12 0  0.48 0.12 0  0.5 0.12 0  0.52 0.12 0  0.54 0.12 0  0.5600000000000001 0.12 0  0.58 0.12 0  0.6 0.12 0  0.62 0.12 0  0.64 0.12 0  0.66 0.12 0  0.68 0.12 0  0.7 0.12 0  0.72 0.12 0  0.74 0.12 0  0.76 0.12 0  0.78 0.12 0  0.8 0.12 0  0.82 0.12 0  0.84 0.12 0  0.86 0.12 0  0.88 0.12 0  0.9 0.12 0  0.92 0.12 0  0.9399999999999999 0.12 0  0.96 0.12 0  0.98 0.12 0  1 0.12 0  0 0.14 0  0.02 0.14 0  0.04 0.14 0  0.06 0.14 0  0.08 0.14 0  0.1 0.14 0  0.12 0.14 0  0.14 0.14 0  0.16 0.14 0  0.18 0.14 0  0.2 0.14 0  0.22 0.14 0  0.24 0.14 0  0.26 0.14 0  0.28 0.14 0  0.3 0.14 0  0.32 0.14 0  0.34 0.14 0  0.36 0.14 0  0.38 0.14 0  0.4 0.14 0  0.42 0.14 0  0.44 0.14 0  0.46 0.14 0  0.48 0.14 0  0.5 0.14 0  0.52 0.14 0  0.54 0.14 0  0.5600000000000001 0.14 0  0.58 0.14 0  0.6 0.14 0  0.62 0.14 0  0.64 0.14 0  0.66 0.14 0  0.68 0.14 0  0.7 0.14 0  0.72 0.14 0  0.74 0.14 0  0.76 0.14 0  0.78 0.14 0  0.8 0.14 0  0.82 0.14 0  0.84 0.14 0  0.86 0.14 0  0.88 0.14 0  0.9 0.14 0  0.92 0.14 0  0.9399999999999999 0.14 0  0.96 0.14 0  0.98 0.14 0  1 0.14 0  0 0.16 0  0.02 0.16 0  0.04 0.16 0  0.06 0.16 0  0.08 0.16 0  0.1 0.16 0  0.12 0.16 0  0.14 0.16 0  0.16 0.16 0  0.18 0.16 0  0.2 0.16 0  0.22 0.16 0  0.24 0.16 0  0.26 0.16 0  0.28 0.16 0  0.3 0.16 0  0.32 0.16 0  0.34 0.16 0  0.36 0.16 0  0.38 0.16 0  0.4 0.16 0  0.42 0.16 0  0.44 0.16 0  0.46 0.16 0  0.48 0.16 0  0.5 0.16 0  0.52 0.16 0  0.54 0.16 0  0.5600000000000001 0.16 0  0.58 0.16 0  0.6 0.16 0  0.62 0.16 0  0.64 0.16 0  0.66 0.16 0  0.68 0.16 0  0.7 0.16 0  0.72 0.16 0  0.74 0.16 0  0.76 0.16 0  0.78 0.16 0  0.8 0.16 0  0.82 0.16 0  0.84 0.16 0  0.86 0.16 0  0.88 0.16 0  0.9 0.16 0  0.92 0.16 0  0.9399999999999999 0.16 0  0.96 0.16 0  0.98 0.16 0  1 0.16 0  0 0.18 0  0.02 0.18 0  0.04 0.18 0  0.06 0.18 0  0.08 0.18 0  0.1 0.18 0  0.12 0.18 0  0.14 0.18 0  0.16 0.18 0  0.18 0.18 0  0.2 0.18 0  0.22 0.18 0  0.24 0.18 0  0.26 0.18 0  0.28 0.18 0  0.3 0.18 0  0.32 0.18 0  0.34 0.18 0  0.36 0.18 0  0.38 0.18 0  0.4 0.18 0  0.42 0.18 0  0.44 0.18 0  0.46 0.18 0  0.48 0.18 0  0.5 0.18 0  0.52 0.18 0  0.54 0.18 0  0.5600000000000001 0.18 0  0.58 0.18 0  0.6 0.18 0  0.62 0.18 0  0.64 0.18 0  0.66 0.18 0  0.68 0.18 0  0.7 0.18 0  0.72 0.18 0  0.74 0.18 0  0.76 0.18 0  0.78 0.18 0  0.8 0.18 0  0.82 0.18 0  0.84 0.18 0  0.86 0.18 0  0.88 0.18 0  0.9 0.18 0  0.92 0.18 0  0.9399999999999999 0.18 0  0.96 0.18 0  0.98 0.18 0  1 0.18 0  0 0.2 0  0.02 0.2 0  0.04 0.2 0  0.06 0.2 0  0.08 0.2 0  0.1 0.2 0  0.12 0.2 0  0.14 0.2 0  0.16 0.2 0  0.18 0.2 0  0.2 0.2 0  0.22 0.2 0  0.24 0.2 0  0.26 0.2 0  0.28 0.2 0  0.3 0.2 0  0.32 0.2 0  0.34 0.2 0  0.36 0.2 0  0.38 0.2 0  0.4 0.2 0  0.42 0.2 0  0.44 0.2 0  0.46 0.2 0  0.48 0.2 0  0.5 0.2 0  0.52 0.2 0  0.54 0.2 0  0.5600000000000001 0.2 0  0.58 0.2 0  0.6 0.2 0  0.62 0.2 0  0.64 0.2 0  0.66 0.2 0  0.68 0.2 0  0.7 0.2 0  0.72 0.2 0  0.74 0.2 0  0.76 0.2 0  0.78 0.2 0  0.8 0.2 0  0.82 0.2 0  0.84 0.2 0  0.86 0.2 0  0.88 0.2 0  0.9 0.2 0  0.92 0.2 0  0.9399999999999999 0.2 0  0.96 0.2 0  0.98 0.2 0  1 0.2 0  0 0.22 0  0.02 0.22 0  0.04 0.22 0  0.06 0.22 0  0.08 0.22 0  0.1 0.22 0  0.12 0.22 0  0.14 0.22 0  0.16 0.22 0  0.18 0.22 0  0.2 0.22 0  0.22 0.22 0  0.24 0.22 0  0.26 0.22 0  0.28 0.22 0  0.3 0.22 0  0.32 0.22 0  0.34 0.22 0  0.36 0.22 0  0.38 0.22 0  0.4 0.22 0  0.42 0.22 0  0.44 0.22 0  0.46 0.22 0  0.48 0.22 0  0.5 0.22 0  0.52 0.22 0  0.54 0.22 0  0.5600000000000001 0.22 0  0.58 0.22 0  0.6 0.22 0  0.62 0.22 0  0.64 0.22 0  0.66 0.22 0  0.68 0.22 0  0.7 0.22 0  0.72 0.22 0  0.74 0.22 0  0.76 0.22 0  0.78 0.22 0  0.8 0.22 0  0.82 0.22 0  0.84 0.22 0  0.86 0.22 0  0.88 0.22 0  0.9 0.22 0  0.92 0.22 0  0.9399999999999999 0.22 0  0.96 0.22 0  0.98 0.22 0  1 0.22 0  0 0.24 0  0.02 0.24 0  0.04 0.24 0  0.06 0.24 0  0.08 0.24 0  0.1 0.24 0  0.12 0.24 0  0.14 0.24 0  0.16 0.24 0  0.18 0.24 0  0.2 0.24 0  0.22 0.24 0  0.24 0.24 0  0.26 0.24 0  0.28 0.24 0  0.3 0.24 0  0.32 0.24 0  0.34 0.24 0  0.36 0.24 0  0.38 0.24 0  0.4 0.24 0  0.42 0.24 0  0.44 0.24 0  0.46 0.24 0  0.48 0.24 0  0.5 0.24 0  0.52 0.24 0  0.54 0.24 0  0.5600000000000001 0.24 0  0.58 0.24 0  0.6 0.24 0  0.62 0.24 0  0.64 0.24 0  0.66 0.24 0  0.68 0.24 0  0.7 0.24 0  0.72 0.24 0  0.74 0.24 0  0.76 0.24 0  0.78 0.24 0  0.8 0.24 0  0.82 0.24 0  0.84 0.24 0  0.86 0.24 0  0.88 0.24 0  0.9 0.24 0  0.92 0.24 0  0.9399999999999999 0.24 0  0.96 0.24 0  0.98 0.24 0  1 0.24 0  0 0.26 0  0.02 0.26 0  0.04 0.26 0  0.06 0.26 0  0.08 0.26 0  0.1 0.26 0  0.12 0.26 0  0.14 0.26 0  0.16 0.26 0  0.18 0.26 0  0.2 0.26 0  0.22 0.26 0  0.24 0.26 0  0.26 0.26 0  0.28 0.26 0  0.3 0.26 0  0.32 0.26 0  0.34 0.26 0  0.36 0.26 0  0.38 0.26 0  0.4 0.26 0  0.42 0.26 0  0.44 0.26 0  0.46 0.26 0  0.48 0.26 0  0.5 0.26 0  0.52 0.26 0  0.54 0.26 0  0.5600000000000001 0.26 0  0.58 0.26 0  0.6 0.26 0  0.62 0.26 0  0.64 0.26 0  0.66 0.26 0  0.68 0.26 0  0.7 0.26 0  0.72 0.26 0  0.74 0.26 0  0.76 0.26 0  0.78 0.26 0  0.8 0.26 0  0.82 0.26 0  0.84 0.26 0  0.86 0.26 0  0.88 0.26 0  0.9 0.26 0  0.92 0.26 0  0.9399999999999999 0.26 0  0.96 0.26 0  0.98 0.26 0  1 0.26 0  0 0.28 0  0.02 0.28 0  0.04 0.28 0  0.06 0.28 0  0.08 0.28 0  0.1 0.28 0  0.12 0.28 0  0.14 0.28 0  0.16 0.28 0  0.18 0.28 0  0.2 0.28 0  0.22 0.28 0  0.24 0.28 0  0.26 0.28 0  0.28 0.28 0  0.3 0.28 0  0.32 0.28 0  0.34 0.28 0  0.36 0.28 0  0.38 0.28 0  0.4 0.28 0  0.42 0.28 0  0.44 0.28 0  0.46 0.28 0  0.48 0.28 0  0.5 0.28 0  0.52 0.28 0  0.54 0.28 0  0.5600000000000001 0.28 0  0.58 0.28 0  0.6 0.28 0  0.62 0.28 0  0.64 0.28 0  0.66 0.28 0  0.68 0.28 0  0.7 0.28 0  0.72 0.28 0  0.74 0.28 0  0.76 0.28 0  0.78 0.28 0  0.8 0.28 0  0.82 0.28 0  0.84 0.28 0  0.86 0.28
[...]
<PointData  Scalars="Indicator Function"> 
<DataArray  type="Float64"  Name="Indicator Function"  format="ascii">-2.9866960465692681e-34  1.2397828546007053e-17  -1.4387817443372225e-18  2.5534930452677876e-17  7.9038908880578085e-18  -3.4094493397224626e-19  -1.4905926320559440e-18  3.3227148986942133e-16  1.7161504526004208e-16  -7.6028164682855453e-19  1.4343219717788408e-16  3.7606429313077250e-16  -2.4930013391828230e-19  -7.9926092692070288e-33  -4.3679515517689466e-17  -1.6188795276391118e-18  -5.9624548241807815e-19  1.9725923547720367e-16  -7.3354769997235209e-19  -1.1232224627546141e-18  1.0002988257809016e-16  -8.5423716320200415e-19  -7.2950773280026878e-19  3.8407187940524168e-16  4.8148248609680896e-35  -5.6189825597255418e-19  -2.5387697767247885e-19  -1.1634260963125387e-19  1.4665003341353179e-16  0.0000000000000000e+00  -3.3258102450187835e-20  -4.2192116674911851e-20  -4.0306514379135917e-20  -3.8810740540453256e-20  1.0106076916291477e-17  -3.8444407103601352e-20  -1.3619999691183638e-22  -1.5429279888471619e-20  -5.8553355625184020e-20  -5.1960440615397837e-20  4.9292241608730058e-17  -4.9439724372088597e-20  -5.9896980219483714e-20  -6.3942511293288899e-20  -4.9040579259803344e-20  -2.1561774458782437e-20  8.5014438689624847e-19  -3.7615819226313200e-37  -1.8807909613156600e-37  -4.9388046818068616e-22  1.5046327690525280e-36  -6.7604160244981707e-19  6.3479595780232372e-03  1.9979556390913489e-03  1.4756817214379644e-03  9.1274603591058236e-03  1.2283835820730131e-02  4.9609587114743435e-04  2.6852129689153393e-02  1.2221783469757748e-02  2.4922348099162227e-02  1.3696016565414805e-02  3.3096928862714390e-03  8.9819839217423255e-03  8.4544528143701159e-03  1.5459510180942371e-02  1.5362266980434526e-02  2.1482007459515645e-02  2.8681345431962223e-02  1.7898212954939190e-02  7.6159595398177368e-03  1.6426197288954503e-02  2.7763790011265044e-02  1.5066736738977753e-03  1.3141643014412773e-02  1.2041144726755106e-02  1.9507540170454394e-03  9.1468820963497861e-03  4.1916842670608944e-03  4.4330979606219297e-04  1.3512801484683867e-04  3.8849871564403528e-04  4.1302013047200456e-04  6.0657698088133433e-04  4.2280912211325300e-04  6.0575928900105614e-04  1.0869008247564496e-03  1.4910245764680979e-04  2.4535610213600276e-06  2.7672241611458330e-04  9.1644227424219195e-04  4.7781494685295429e-04  4.5573331436347573e-04  6.6276023985601491e-04  7.4762795126033196e-04  7.7807190450419254e-04  4.9440058566983802e-04  2.7225675087529951e-04  1.1975094221253976e-04  4.9752615597924450e-05  1.7793919139712834e-05  1.5046327690525280e-36  9.6296497219361793e-34  1.6966894217738906e-02  1.9287370852062339e-02  7.8108813719293974e-03  9.1690889606320693e-03  1.1265856618619941e-02  2.2923604019890458e-02  2.7391174351233935e-02  8.7144136569907750e-03  2.7952690201227343e-02  1.9268317282189380e-02  4.1010475069546561e-02  6.7334088115354129e-02  4.8972828593289011e-02  5.8950035891189440e-03  3.5854691626559229e-02  4.5409215502854781e-02  2.6681894075603059e-03  4.7741157916515974e-02  5.4061412464883303e-03  3.0035112538932197e-02  1.4861516370277921e-02  5.2275387846217332e-02  4.8410604749152382e-02  3.7477541257482927e-02  1.6037770783791275e-02  2.1318909696763932e-02  9.0410434455869221e-04  4.9243804897316076e-03  3.3271784662589178e-03  4.5534296563519785e-04  7.8821369775504012e-04  5.6139200925113704e-04  7.0167759209198487e-04  7.7245937441637776e-04  9.8560374020263946e-04  1.3243334177934019e-03  6.2640454874929329e-04  1.8447826116674531e-04  1.0088926987249470e-03  1.2307865417177210e-03  4.0664260128428855e-04  9.7172876951502152e-04  9.1872461850934519e-04  1.0820774419957376e-03  9.0771121111854361e-04  5.0359972173338527e-04  2.6427045853743587e-04  1.1860807703130225e-04  2.7563877533707321e-05  3.7239661034050068e-35  -1.4889516078984245e-19  8.6015072746037993e-03  2.8140165669782364e-03  7.1011132794849326e-03  1.3978589708247786e-02  1.5864012114211363e-02  2.4531532793784363e-02  3.9114494138932599e-03  6.0400690246191040e-02  4.3497835314481439e-02  6.2410025978442502e-02  4.7225514798994256e-02  1.9392720639870232e-02  1.8963154164341109e-03  1.0623502161929735e-02  2.1238200211575690e-02  2.9763342571575094e-02  4.3267131656985876e-02  6.8540580068774337e-02  3.1366762131267899e-02  2.5534029884482540e-03  3.4114771974627582e-02  4.5861862121834261e-02  5.1100700851439765e-03  4.3034434424929914e-02  4.5507961323833807e-02  8.5805572966520093e-03  2.1409241652113612e-02  1.4186018673252624e-02  1.7928688803105406e-03  1.9050721260914902e-03  5.3786862577543651e-04  7.5014926469497739e-04  9.5259467328671975e-04  4.3811299396881529e-04  9.7657126930236564e-04  1.7665932222208213e-03  6.8763703359190449e-05  3.7064695835968000e-04  2.3963859730114322e-04  1.6226087467186808e-03  5.4936871340161193e-04  1.3699229433981825e-03  1.1036544520276836e-03  1.0054500499549919e-03  1.1608508879699774e-03  7.3334562343982650e-04  4.1289599335556624e-04  2.0790151656602563e-04  1.0461555691742217e-04  -1.4148515341634951e-20  -4.2094674823664436e-19  2.7838715085941448e-02  1.9632551834992580e-03  2.1076918255292922e-02  1.7000919747501911e-03  1.6341778643964733e-02  1.8514035838115454e-02  4.6351236870644699e-02  2.9190307428111475e-02  6.9716642732258749e-03  2.6288645079954012e-02  1.4891186043592896e-02  4.6892592148111402e-02  1.0020502526002970e-01  9.1818658502731784e-02  2.0591571242498604e-02  6.7175088586681808e-02  8.4196680286765080e-02  6.5342505101209734e-03  8.7937331185488909e-02  5.8345390412832716e-03  3.2475097335824696e-02  1.7130850304394173e-02  7.9196673647824803e-02  8.1241313393851183e-02  4.8644869531762856e-02  1.6035231826268995e-02  2.9696719543446666e-02  4.6163470853904335e-04  1.3020092952976701e-02  7.0298054184430728e-03  2.4344871956915437e-04  1.0605663212921964e-03  5.9615404027266346e-04  9.9600265696513936e-04  6.2674665377572341e-04  1.1158332647605207e-03  1.9534001513282651e-03  1.4628582955801682e-03  3.6508316090609090e-04  1.2192999016555550e-03  1.7006406120111187e-03  9.2166859296025831e-04  1.6812675607160094e-03  1.0693026604680377e-03  1.1768458139034407e-03  1.0200587311777266e-03  5.4114456101064280e-04  3.0461117053533763e-04  1.4522600409875764e-04  3.6277482043068336e-20  -2.1818184880719908e-19  1.8193158462456310e-02  1.6131577052054539e-02  1.8733017151562968e-02  8.3360799649201383e-03  1.8261141043169837e-02  2.8170710663477528e-02  1.9985381212556590e-02  2.6378018259349280e-03  8.1942839098408618e-02  6.3241505176422352e-02  8.2049413638803068e-02  6.5448071256380386e-02  3.6185422835203145e-02  2.5938439936947846e-02  3.6480174685889055e-03  2.2762071993489789e-02  2.7994290716914588e-02  6.2344388569254582e-02  9.1747692842835654e-02  4.4674854106757853e-02  1.3973870112061833e-02  4.6860060626305190e-02  5.8081739919489873e-02  1.0943456766784019e-02  7.2701291951023539e-02  7.0081976142723310e-02  1.8297222092846673e-02  3.2124942185425151e-02  1.9878864244241987e-02  3.3369543307188939e-04  5.3097809090876342e-03  6.9437149841785858e-04  1.0836530941186143e-03  9.5379002030560977e-04  5.3224746430837638e-04  9.5556947374135406e-04  1.8840164845320515e-03  1.4561677889109856e-04  1.0140063008265187e-03  7.5964371930136476e-05  1.9858186744973676e-03  7.3896126640083108e-04  2.1212798728190768e-03  1.4954461693857119e-03  1.0792114758225891e-03  1.2596792690151770e-03  7.8035316548874360e-04  4.2175577905604098e-04  1.9859638565336571e-04  -1.1024313997985179e-20  -4.0661333752353436e-19  8.7954753436103005e-03  2.1337907486161531e-02  2.3271057702065480e-02  3.3204861120723489e-02  2.2225507852779327e-03  2.1162511372464644e-02  2.1087470803909807e-02  6.1002737736414854e-02  3.2464053733963195e-02  5.9787062049263557e-03  2.2690133728698800e-02  7.4894026468207177e-03  4.3742691128107143e-02  1.1475828730680288e-01  1.1251266388943622e-01  2.7321988304821864e-02  9.2807187364991453e-02  1.1824596542735005e-01  2.0179877350620334e-02  1.2642834493988675e-01  1.5736063149677362e-02  2.4908111840405298e-02  2.1992873964149492e-02  9.9727144940022092e-02  1.0089528953201173e-01  4.8104137185186517e-02  5.2392863618193975e-03  2.9231727758495533e-02  5.7878901776211092e-03  2.0357742115819668e-02  8.6585603582657669e-03  1.7970092104587891e-03  8.6766864294394780e-04  6.0948386348709548e-04  1.0304788963803563e-03  4.3409027586040980e-04  1.1824754302442273e-03  2.1597496771135791e-03  1.8316719739784927e-03  2.1549256390205468e-04  1.1307206714364010e-03  2.0538615937603136e-03  1.1064001379148738e-03  2.4143766962188861e-03  1.2292632628993210e-03  1.2368133336915729e-03  1.0809567211636831e-03  5.7126137680771978e-04  2.9423154149386862e-04  -1.6333131596872259e-20  -3.2466358628627266e-19  1.1503923153762936e-02  1.0701528949426907e-02  1.0579057956610032e-02  2.7768141471082985e-02  2.6510352749502829e-02  3.4999668232851777e-02  3.4771524548719242e-02  1.4072922129316719e-02  1.5476249302259623e-02  1.0189782448315324e-01  6.8943017806281204e-02  8.4966487207355584e-02  6.6350520309363198e-02  3.3729558157557259e-02  3.0780627141062795e-02  6.5844096113658185e-03  1.9461478402254036e-02  2.6805286282989525e-02  6.9330931372969043e-02  1.0654465912612684e-01  5.3132301986343805e-02  1.4285733045353246e-02  5.6644735931000632e-02  7.7775168380994020e-02  7.7942235855080304e-03  9.0819970839425640e-02  7.7761025197641137e-02  9.6501176944346224e-03  3.5429302948682219e-02  1.9781718208445338e-02  4.6914666830056694e-03  8.3211838441484814e-03  1.1939138259387643e-04  8.2670777932780713e-04  6.3437385868277542e-04  5.3629948728114193e-04  6.3004251760735881e-04  1.8381977576940806e-03  2.9536787326985589e-04  1.7723166619213974e-03  2.6692542780814183e-04  2.1923955734344447e-03  9.6371618787184350e-04  2.6126263842815313e-03  2.0309222617892848e-03  1.1588897312463716e-03  1.3166963878269941e-03  7.9781318104287229e-04  3.8048782133849878e-04  -5.2803292479933062e-20  -3.8684706457505458e-19  8.2904831152344205e-03  4.5723787453053619e-03  1.9765275497043339e-02  3.5607367118744897e-02  2.9260567582505056e-02  1.2922095775522757e-02  2.0587929980684067e-02  5.5570292024154566e-03  7.6514407388923289e-02  4.7612339905951380e-02  1.3382136183564864e-02  3.7715465431641941e-02  1.0615470105154141e-02  5.1944911724794977e-02  1.3607532968360581e-01  1.3222180546591825e-01  3.1833088579037647e-02  1.1826700526707193e-01  1.5673124549534923e-01  3.0025957951266252e-02  1.6833527354587893e-01  3.4774687924880088e-02  1.7569275205664748e-02  2.3885358433972378e-02  1.2352658663280515e-01  1.1438226166405761e-01  5.3393767610405027e-02  4.3703604736918299e-03  3.4271512087791785e-02  1.1261352578609937e-02  2.2931906480929860e-02  7.7628154970219472e-03  5.3676233442774947e-03  4.8892807718941905e-04  3.1928763253675618e-04  5.2579902631228967e-04  2.5895734789262067e-04  9.1193228716802445e-04  1.8950648792364563e-03  1.8818815728750037e-03  6.5970573908491503e-04  9.3690786417615583e-04  2.4107524884369393e-03  1.0067558250686467e-03  3.0501938833849955e-03  1.4912861978592384e-03  1.2748240523589515e-03  1.0965876970625598e-03  5.1574316495809486e-04  1.4314748413237696e-20  -3.1888960518233442e-19  1.1431871295536876e-02  1.0431153288748709e-02  7.3968191013536510e-03  3.2470732783568246e-03  3.4790395867286029e-02  4.0462601012548435e-02  4.2049421050108095e-02  5.7122610354545168e-02  4.1165902095243378e-03  3.4440548894982159e-02  1.4307151308727564e-01  6.3121784995134586e-02  8.8127106082430240e-02  5.7253804179825965e-02  2.7212312713966662e-02  1.7956326431363787e-02  8.5004880919987633e-03  5.0273317630089593e-03  2.6967313090196319e-02  5.6504196842663931e-02  1.1565139446458127e-01  4.8658616520780983e-02  4.0581093019025878e-03  7.7080864985728123e-02  1.0898040273015716e-01  7.0652933597125638e-03  9.3728460491927651e-02  8.1151688161274327e-02  1.3611805844576002e-02  3.2690185542957058e-02  1.4427546999256706e-02  6.8093459485042314e-03  1.0488560807265668e-02  2.8590060465198178e-03  2.1775345407017534e-04  5.1060490073399216e-05  1.1100998573091332e-04  1.3023808505977348e-04  1.5038319149060998e-03  9.1087702897730245e-05  2.2540563042421067e-03  4.3573481522119124e-04  2.2832404398900460e-03  1.3296662313761448e-03  2.5858735647217861e-03  2.5982953983619246e-03  1.2060717046717899e-03  1.2363345122477743e-03  6.7449969793141390e-04  -3.7442254737308367e-20  9.6296497219361793e-35  1.3047755842851722e-02  1.3319938362066793e-02  1.0049657704533862e-02  4.9736858074635737e-03  5.5232157928972320e-02  2.4751271680689232e-02  3.1775759862576428e-02  2.3562492266698352e-02  7.3758402063185046e-03  6.7252641859343959e-02  4.2478455518792410e-02  3.1311582710624446e-02  8.7642056126345028e-02  5.2857054042423808e-03  9.1553485339852844e-02  1.5622501341280662e-01  1.7790849729780711e-01  4.3106605221590988e-02  1.4030357866982854e-01  2.0561646462009006e-01  1.4494418975406207e-02  2.3435042832904085e-01  6.4274590282559274e-02  1.4352518179374159e-02  2.8870572954104154e-02  1.7052035094452139e-01  1.1643530515519832e-01  7.8522581533984906e-02  1.5160152819902836e-02  5.9522945907762574e-02  1.6287154057776681e-02  1.7128499805512887e-02  6.4682295772920239e-03  9.6385215431279009e-03  1.5519435398799468e-03  1.1577246088585349e-03  7.3609371517358230e-04  5.8202309515802814e-04  9.1876747984205145e-05  1.1465709150009929e-03  2.2318017391398915e-03  1.8118648418598341e-03  1.3780518088167576e-03  2.8078849705799294e-03  5.7707297819237203e-04  3.1101820199704944e-03  1.8256835154519277e-03  1.1428036327197967e-03  7.9906310224379723e-04  -1.1089228177993377e-19  -2.9683918068220609e-19  7.6728922755599652e-03  4.7987420363791470e-03  1.7945836140223135e-02  1.5095678983494273e-02  1.1721141864247407e-02  1.0250885536783402e-02  8.7325593096134274e-02  6.4730067100026711e-02  8.5273666334356360e-02  4.3022995634818340e-03  4.7904236606603423e-02  1.6464710341926514e-01  1.1257345807070332e-01  5.4492268668112388e-02  6.1667389400236347e-02  4.0415063438585266e-02  3.4508890000063533e-02  4.0880874836879419e-03  4.5160598798628965e-02  4.5983883657411011e-02  3.2903869723462306e-02  1.2964236965684914e-01  6.1069276646167819e-02  9.0754561967464356e-02  1.5304497994632693e-01  1.6773831256433958e-01  1.6649385034567133e-02  6.1645771301439292e-02  1.1378873705203471e-01  5.3471866728327239e-02  4.1361103472198291e-02  3.1930574710548523e-03  4.3652537534460029e-04  1.3745575727041175e-02  8.7931048848743018e-03  2.5053502882105244e-03  1.8196917234113009e-03  1.8112017075602406e-03  1.0001831528923069e-03  4.0814145683712243e-04  1.2523787953024970e-03  2.7841556198371412e-03  2.1252984605326678e-03  2.7615708567655371e-03  1.9787150036382202e-03  1.9721698956696684e-03  2.6751806311876136e-03  1.2469703459282186e-03  8.4407683330567514e-04  2.3427838372215245e-20  -1.8055593228630336e-34  9.9625474888308738e-03  7.3164717631817597e-03  6.5024711836380515e-04  4.4142608750254468e-03  5.6119895803530932e-03  5.7673941735219787e-02  2.1602864416217903e-02  2.2966163359346637e-02  3.5069258664024126e-02  8.2676498046451330e-02  8.7744047727939034e-02  5.2104059550484590e-02  4.1247951831462369e-02  1.3464352740237617e-01  7.5737194187014342e-02  3.5782922822389811e-02  2.7592829950320630e-01  1.8810321929274201e-01  7.3204739534861826e-02  1.3653551115183390e-01  3.0809593925216650e-01  1.4165432596244699e-03  3.0829952147593975e-01  8.9596999062875687e-02  3.7715346153574990e-02  1.1101878989280037e-01  3.3741628345601865e-01  2.5524291826560946e-02  1.7859331262064210e-01  7.6869526125198364e-03  1.2990099204918712e-01  4.4616735558984134e-02  6.5570981495238082e-03  1.2719038338883978e-02  1.6158449568363747e-02  7.1720803574516741e-03  3.9427809879681560e-03  2.7820884494289266e-03  2.3421769579586816e-03  1.2677534052823989e-03  3.0153262525495352e-04  3.4013774763539230e-03  3.0111656539081118e-03  3.1568675962583377e-03  3.5960010905619296e-03  4.3414642033385756e-04  2.2634194505544666e-03  1.7422824350972700e-03  8.0173847603526435e-04  -4.4505425791111570e-20  -7.6011610001729824e-20  1.3612920515852436e-02  1.1343624294662782e-02  4.0878743779606923e-03  2.0207864980889313e-02  3.9777082814093975e-03  8.0259855352833483e-03  1.8762611548996621e-02  9.4626614110325455e-02  3.9924278234911501e-02  1.2942363864656678e-01  5.5054074168877802e-02  1.6934994252127195e-01  2.8685664962951984e-01  9.3288479235539443e-02  8.8536768395329549e-02  3.4185357040560672e-02  1.1854372041620312e-03  7.4036038094623349e-02  2.3487077018193875e-01  1.6893761212062053e-01  1.3569245931707530e-01  4.6120357358864252e-02  6.2380530627259834e-01  5.0598623441651266e-02  4.1213773312527228e-02  3.9328242459819966e-02  4.9898171837441152e-01  9.0520251242033792e-02  1.5290539224807462e-01  2.9251935523182859e-01  1.6757825345432106e-01  8.4788280657832990e-02  1.3399587490605897e-02  1.9170048529236285e-02  1.9027184784991828e-02  1.6295945347955872e-02  6.6654692086769709e-03  4.4186956256709676e-03  3.8787120571306829e-03  2.4986128993699152e-03  9.4515867623808222e-04  2.8150533262887353e-03  3.6738775791843145e-03  4.0055741052453962e-03  4.3367068527407227e-03  3.1004327010011974e-03  5.2623174547705102e-04  1.5932714358457604e-03  8.0409422159588822e-04  -4.4636195939189852e-20  1.5888922041194696e-33  1.3693034339184887e-03  6.7969374451803417e-03  1.5871609858351492e-02  2.1605030506720260e-02  6.9047019944585963e-03  3.2933923067663957e-04  4.7484155340872088e-02  2.6078956432774706e-03  4.6619646237350459e-02  3.8416648227396495e-02  6.0119197164955021e-02  3.6734135813447171e-03  2.6815498688726808e-02  3.1065161770596369e-02  3.4735104148268142e-01  3.9998233256973445e-03  1.2262447039871240e-01  2.9214415300129060e-01  2.3809670857559165e-01  6.7029170182486786e-01  6.5250918770525723e-01  1.8276985739638799e-01  1.3702329888838716e-01  3.8244790753925123e-01  2.4692077077045949e-02  9.5032910723972366e-02  8.4595789967831278e-02  3.2757466159726156e-01  8.7663951692325146e-02  2.1240458749722971e-01  1.0706124783616748e-01  1.8982171008817758e-01  1.0436982704414566e-01  5.1313574771654324e-02  3.4588503141747724e-02  2.6250548060232110e-02  1.5547368673861859e-02  7.3056949172519885e-03  4.9505703535922159e-03  4.0503828513249731e-03  2.4105700026774996e-03  1.5885440411802254e-03  4.5566658072904252e-03  3.7881017134680779e-03  5.1040131241384670e-03  4.7947248492373465e-03  1.7872167938136813e-03  5.3911825662999395e-04  5.3878228106147793e-04  1.3981762452483861e-18  4.8148248609680896e-34  1.2310187995972390e-02  2.0545955668391989e-04  2.5509671984559968e-03  2.0749559222323303e-03  1.0825614998308357e-03  4.0676488952565974e-02  2.4076686954828005e-02  1.8284234570827586e-02  1.0700935982796592e-01  1.6602549177559612e-03  1.9049260790930822e-01  8.8569184109478810e-02  1.7844751961741784e-01  1.7726788279661870e-01  3.3044015918331893e-01  7.1424939575951410e-03  1.6133448625287986e-02  4.1695042033352625e-01  4.1451571376656990e-02  1.4649996591082631e-01  1.0889332036536002e-01  1.6250759693391034e-01  1.4940624746883649e-01  9.6158113690467992e-02  1.3200117237262041e-01  3.8012314171072585e-02  4.2473708396059399e-02  3.8873247104417245e-02  6.3457622571044855e-02  1.2313768817909741e-02  2.3422588833708483e-01  2.3735101741442063e-01  2.6835078023698816e-01  9.1596207228287679e-02  6.7579916314935221e-02  3.5976320526979480e-02  2.6475211575687156e-02  1.3501222145703793e-02  7.3025108660073760e-03  5.8130396692243442e-03  3.8076812951988947e-03  1.8678730934384485e-03  3.9926260389571309e-03  4.2054732419832359e-03  4.8480282622311325e-03  5.7364480674310632e-03  3.7847844120789120e-03  7.1946638233552954e-04  1.0573609584952632e-04  -5.8695324073057481e-21  -8.2987150262555246e-19  6.4076187018006370e-03  8.5486280367179819e-03  8.7492256597648480e-03  7.6526620223950669e-03  1.7626152168611663e-03  1.5467640224410037e-02  4.7885738095147382e-03  1.0181854164967122e-02  4.8499340954615874e-02  7.342555