<?xml version="1.0"?>
<VTKFile type="UnstructuredGrid"  version="0.1"  >
<UnstructuredGrid>
<Piece  NumberOfPoints="40401" NumberOfCells="80000">
<Points>
<DataArray  type="Float64"  NumberOfComponents="3"  format="ascii">0 0 0  0.005 0 0  0.01 0 0  0.015 0 0  0.02 0 0  0.025 0 0  0.03 0 0  0.035 0 0  0.04 0 0  0.045 0 0  0.05 0 0  0.055 0 0  0.06 0 0  0.065 0 0  0.07000000000000001 0 0  0.075 0 0  0.08 0 0  0.08500000000000001 0 0  0.09 0 0  0.095 0 0  0.1 0 0  0.105 0 0  0.11 0 0  0.115 0 0  0.12 0 0  0.125 0 0  0.13 0 0  0.135 0 0  0.14 0 0  0.145 0 0  0.15 0 0  0.155 0 0  0.16 0 0  0.165 0 0  0.17 0 0  0.175 0 0  0.18 0 0  0.185 0 0  0.19 0 0  0.195 0 0  0.2 0 0  0.205 0 0  0.21 0 0  0.215 0 0  0.22 0 0  0.225 0 0  0.23 0 0  0.235 0 0  0.24 0 0  0.245 0 0  0.25 0 0  0.255 0 0  0.26 0 0  0.265 0 0  0.27 0 0  0.275 0 0  0.28 0 0  0.285 0 0  0.29 0 0  0.295 0 0  0.3 0 0  0.305 0 0  0.31 0 0  0.315 0 0  0.32 0 0  0.325 0 0  0.33 0 0  0.335 0 0  0.34 0 0  0.345 0 0  0.35 0 0  0.355 0 0  0.36 0 0  0.365 0 0  0.37 0 0  0.375 0 0  0.38 0 0  0.385 0 0  0.39 0 0  0.395 0 0  0.4 0 0  0.405 0 0  0.41 0 0  0.415 0 0  0.42 0 0  0.425 0 0  0.43 0 0  0.435 0 0  0.44 0 0  0.445 0 0  0.45 0 0  0.455 0 0  0.46 0 0  0.465 0 0  0.47 0 0  0.475 0 0  0.48 0 0  0.485 0 0  0.49 0 0  0.495 0 0  0.5 0 0  0.505 0 0  0.51 0 0  0.515 0 0  0.52 0 0  0.525 0 0  0.53 0 0  0.535 0 0  0.54 0 0  0.545 0 0  0.55 0 0  0.555 0 0  0.5600000000000001 0 0  0.5649999999999999 0 0  0.57 0 0  0.575 0 0  0.58 0 0  0.585 0 0  0.59 0 0  0.595 0 0  0.6 0 0  0.605 0 0  0.61 0 0  0.615 0 0  0.62 0 0  0.625 0 0  0.63 0 0  0.635 0 0  0.64 0 0  0.645 0 0  0.65 0 0  0.655 0 0  0.66 0 0  0.665 0 0  0.67 0 0  0.675 0 0  0.68 0 0  0.6850000000000001 0 0  0.6899999999999999 0 0  0.695 0 0  0.7 0 0  0.705 0 0  0.71 0 0  0.715 0 0  0.72 0 0  0.725 0 0  0.73 0 0  0.735 0 0  0.74 0 0  0.745 0 0  0.75 0 0  0.755 0 0  0.76 0 0  0.765 0 0  0.77 0 0  0.775 0 0  0.78 0 0  0.785 0 0  0.79 0 0  0.795 0 0  0.8 0 0  0.805 0 0  0.8100000000000001 0 0  0.8149999999999999 0 0  0.82 0 0  0.825 0 0  0.83 0 0  0.835 0 0  0.84 0 0  0.845 0 0  0.85 0 0  0.855 0 0  0.86 0 0  0.865 0 0  0.87 0 0  0.875 0 0  0.88 0 0  0.885 0 0  0.89 0 0  0.895 0 0  0.9 0 0  0.905 0 0  0.91 0 0  0.915 0 0  0.92 0 0  0.925 0 0  0.93 0 0  0.9350000000000001 0 0  0.9399999999999999 0 0  0.945 0 0  0.95 0 0  0.955 0 0  0.96 0 0  0.965 0 0  0.97 0 0  0.975 0 0  0.98 0 0  0.985 0 0  0.99 0 0  0.995 0 0  1 0 0  0 0.005 0  0.005 0.005 0  0.01 0.005 0  0.015 0.005 0  0.02 0.005 0  0.025 0.005 0  0.03 0.005 0  0.035 0.005 0  0.04 0.005 0  0.045 0.005 0  0.05 0.005 0  0.055 0.005 0  0.06 0.005 0  0.065 0.005 0  0.07000000000000001 0.005 0  0.075 0.005 0  0.08 0.005 0  0.08500000000000001 0.005 0  0.09 0.005 0  0.095 0.005 0  0.1 0.005 0  0.105 0.005 0  0.11 0.005 0  0.115 0.005 0  0.12 0.005 0  0.125 0.005 0  0.13 0.005 0  0.135 0.005 0  0.14 0.005 0  0.145 0.005 0  0.15 0.005 0  0.155 0.005 0  0.16 0.005 0  0.165 0.005 0  0.17 0.005 0  0.175 0.005 0  0.18 0.005 0  0.185 0.005 0  0.19 0.005 0  0.195 0.005 0  0.2 0.005 0  0.205 0.005 0  0.21 0.005 0  0.215 0.005 0  0.22 0.005 0  0.225 0.005 0  0.23 0.005 0  0.235 0.005 0  0.24 0.005 0  0.245 0.005 0  0.25 0.005 0  0.255 0.005 0  0.26 0.005 0  0.265 0.005 0  0.27 0.005 0  0.275 0.005 0  0.28 0.005 0  0.285 0.005 0  0.29 0.005 0  0.295 0.005 0  0.3 0.005 0  0.305 0.005 0  0.31 0.005 0  0.315 0.005 0  0.32 0.005 0  0.325 0.005 0  0.33 0.005 0  0.335 0.005 0  0.34 0.005 0  0.345 0.005 0  0.35 0.005 0  0.355 0.005 0  0.36 0.005 0  0.365 0.005 0  0.37 0.005 0  0.375 0.005 0  0.38 0.005 0  0.385 0.005 0  0.39 0.005 0  0.395 0.005 0  0.4 0.005 0  0.405 0.005 0  0.41 0.005 0  0.415 0.005 0  0.42 0.005 0  0.425 0.005 0  0.43 0.005 0  0.435 0.005 0  0.44 0.005 0  0.445 0.005 0  0.45 0.005 0  0.455 0.005 0  0.46 0.005 0  0.465 0.005 0  0.47 0.005 0  0.475 0.005 0  0.48 0.005 0  0.485 0.005 0  0.49 0.005 0  0.495 0.005 0  0.5 0.005 0  0.505 0.005 0  0.51 0.005 0  0.515 0.005 0  0.52 0.005 0  0.525 0.005 0  0.53 0.005 0  0.535 0.005 0  0.54 0.005 0  0.545 0.005 0  0.55 0.005 0  0.555 0.005 0  0.5600000000000001 0.005 0  0.5649999999999999 0.005 0  0.57 0.005 0  0.575 0.005 0  0.58 0.005 0  0.585 0.005 0  0.59 0.005 0  0.595 0.005 0  0.6 0.005 0  0.605 0.005 0  0.61 0.005 0  0.615 0.005 0  0.62 0.005 0  0.625 0.005 0  0.63 0.005 0  0.635 0.005 0  0.64 0.005 0  0.645 0.005 0  0.65 0.005 0  0.655 0.005 0  0.66 0.005 0  0.665 0.005 0  0.67 0.005 0  0.675 0.005 0  0.68 0.005 0  0.6850000000000001 0.005 0  0.6899999999999999 0.005 0  0.695 0.005 0  0.7 0.005 0  0.705 0.005 0  0.71 0.005 0  0.715 0.005 0  0.72 0.005 0  0.725 0.005 0  0.73 0.005 0  0.735 0.005 0  0.74 0.005 0  0.745 0.005 0  0.75 0.005 0  0.755 0.005 0  0.76 0.005 0  0.765 0.005 0  0.77 0.005 0  0.775 0.005 0  0.78 0.005 0  0.785 0.005 0  0.79 0.005 0  0.795 0.005 0  0.8 0.005 0  0.805 0.005 0  0.8100000000000001 0.005 0  0.8149999999999999 0.005 0  0.82 0.005 0  0.825 0.005 0  0.83 0.005 0  0.835 0.005 0  0.84 0.005 0  0.845 0.005 0  0.85 0.005 0  0.855 0.005 0  0.86 0.005 0  0.865 0.005 0  0.87 0.005 0  0.875 0.005 0  0.88 0.005 0  0.885 0.005 0  0.89 0.005 0  0.895 0.005 0  0.9 0.005 0  0.905 0.005 0  0.91 0.005 0  0.915 0.005 0  0.92 0.005 0  0.925 0.005 0  0.93 0.005 0  0.9350000000000001 0.005 0  0.9399999999999999 0.005 0  0.945 0.005 0  0.95 0.005 0  0.955 0.005 0  0.96 0.005 0  0.965 0.005 0  0.97 0.005 0  0.975 0.005 0  0.98 0.005 0  0.985 0.005 0  0.99 0.005 0  0.995 0.005 0  1 0.005 0  0 0.01 0  0.005 0.01 0  0.01 0.01 0  0.015 0.01 0  0.02 0.01 0  0.025 0.01 0  0.03 0.01 0  0.035 0.01 0  0.04 0.01 0  0.045 0.01 0  0.05 0.01 0  0.055 0.01 0  0.06 0.01 0  0.065 0.01 0  0.07000000000000001 0.01 0  0.075 0.01 0  0.08 0.01 0  0.08500000000000001 0.01 0  0.09 0.01 0  0.095 0.01 0  0.1 0.01 0  0.105 0.01 0  0.11 0.01 0  0.115 0.01 0  0.12 0.01 0  0.125 0.01 0  0.13 0.01 0  0.135 0.01 0  0.14 0.01 0  0.145 0.01 0  0.15 0.01 0  0.155 0.01 0  0.16 0.01 0  0.165 0.01 0  0.17 0.01 0  0.175 0.01 0  0.18 0.01 0  0.185 0.01 0  0.19 0.01 0  0.195 0.01 0  0.2 0.01 0  0.205 0.01 0  0.21 0.01 0  0.215 0.01 0  0.22 0.01 0  0.225 0.01 0  0.23 0.01 0  0.235 0.01 0  0.24 0.01 0  0.245 0.01 0  0.25 0.01 0  0.255 0.01 0  0.26 0.01 0  0.265 0.01 0  0.27 0.01 0  0.275 0.01 0  0.28 0.01 0  0.285 0.01 0  0.29 0.01 0  0.295 0.01 0  0.3 0.01 0  0.305 0.01 0  0.31 0.01 0  0.315 0.01 0  0.32 0.01 0  0.325 0.01 0  0.33 0.01 0  0.335 0.01 0  0.34 0.01 0  0.345 0.01 0  0.35 0.01 0  0.355 0.01 0  0.36 0.01 0  0.365 0.01 0  0.37 0.01 0  0.375 0.01 0  0.38 0.01 0  0.385 0.01 0  0.39 0.01 0  0.395 0.01 0  0.4 0.01 0  0.405 0.01 0  0.41 0.01 0  0.415 0.01 0  0.42 0.01 0  0.425 0.01 0  0.43 0.01 0  0.435 0.01 0  0.44 0.01 0  0.445 0.01 0  0.45 0.01 0  0.455 0.01 0  0.46 0.01 0  0.465 0.01 0  0.47 0.01 0  0.475 0.01 0  0.48 0.01 0  0.485 0.01 0  0.49 0.01 0  0.495 0.01 0  0.5 0.01 0  0.505 0.01 0  0.51 0.01 0  0.515 0.01 0  0.52 0.01 0  0.525 0.01 0  0.53 0.01 0  0.535 0.01 0  0.54 0.01 0  0.545 0.01 0  0.55 0.01 0  0.555 0.01 0  0.5600000000000001 0.01 0  0.5649999999999999 0.01 0  0.57 0.01 0  0.575 0.01 0  0.58 0.01 0  0.585 0.01 0  0.59 0.01 0  0.595 0.01 0  0.6 0.01 0  0.605 0.01 0  0.61 0.01 0  0.615 0.01 0  0.62 0.01 0  0.625 0.01 0  0.63 0.01 0  0.635 0.01 0  0.64 0.01 0  0.645 0.01 0  0.65 0.01 0  0.655 0.01 0  0.66 0.01 0  0.665 0.01 0  0.67 0.01 0  0.675 0.01 0  0.68 0.01 0  0.6850000000000001 0.01 0  0.6899999999999999 0.01 0  0.695 0.01 0  0.7 0.01 0  0.705 0.01 0  0.71 0.01 0  0.715 0.01 0  0.72 0.01 0  0.725 0.01 0  0.73 0.01 0  0.735 0.01 0  0.74 0.01 0  0.745 0.01 0  0.75 0.01 0  0.755 0.01 0  0.76 0.01 0  0.765 0.01 0  0.77 0.01 0  0.775 0.01 0  0.78 0.01 0  0.785 0.01 0  0.79 0.01 0  0.795 0.01 0  0.8 0.01 0  0.805 0.01 0  0.8100000000000001 0.01 0  0.8149999999999999 0.01 0  0.82 0.01 0  0.825 0.01 0  0.83 0.01 0  0.835 0.01 0  0.84 0.01 0  0.845 0.01 0  0.85 0.01 0  0.855 0.01 0  0.86 0.01 0  0.865 0.01 0  0.87 0.01 0  0.875 0.01 0  0.88 0.01 0  0.885 0.01 0  0.89 0.01 0  0.895 0.01 0  0.9 0.01 0  0.905 0.01 0  0.91 0.01 0  0.915 0.01 0  0.92 0.01 0  0.925 0.01 0  0.93 0.01 0  0.9350000000000001 0.01 0  0.9399999999999999 0.01 0  0.945 0.01 0  0.95 0.01 0  0.955 0.01 0  0.96 0.01 0  0.965 0.01 0  0.97 0.01 0  0.975 0.01 0  0.98 0.01 0  0.985 0.01 0  0.99 0.01 0  0.995 0.01 0  1 0.01 0  0 0.015 0  0.005 0.015 0  0.01 0.015 0  0.015 0.015 0  0.02 0.015 0  0.025 0.015 0  0.03 0.015 0  0.035 0.015 0  0.04 0.015 0  0.045 0.015 0  0.05 0.015 0  0.055 0.015 0  0.06 0.015 0  0.065 0.015 0  0.07000000000000001 0.015 0  0.075 0.015 0  0.08 0.015 0  0.08500000000000001 0.015 0  0.09 0.015 0  0.095 0.015 0  0.1 0.015 0  0.105 0.015 0  0.11 0.015 0  0.115 0.015 0  0.12 0.015 0  0.125 0.015 0  0.13 0.015 0  0.135 0.015 0  0.14 0.015 0  0.145 0.015 0  0.15 0.015 0  0.155 0.015 0  0.16 0.015 0  0.165 0.015 0  0.17 0.015 0  0.175 0.015 0  0.18 0.015 0  0.185 0.015 0  0.19 0.015 0  0.195 0.015 0  0.2 0.015 0  0.205 0.015 0  0.21 0.015 0  0.215 0.015 0  0.22 0.015 0  0.225 0.015 0  0.23 0.015 0  0.235 0.015 0  0.24 0.015 0  0.245 0.015 0  0.25 0.015 0  0.255 0.015 0  0.26 0.015 0  0.265 0.015 0  0.27 0.015 0  0.275 0.015 0  0.28 0.015 0  0.285 0.015 0  0.29 0.015 0  0.295 0.015 0  0.3 0.015 0  0.305 0.015 0  0.31 0.015 0  0.315 0.015 0  0.32 0.015 0  0.325 0.015 0  0.33 0.015 0  0.335 0.015 0  0.34 0.015 0  0.345 0.015 0  0.35 0.015 0  0.355 0.015 0  0.36 0.015 0  0.365 0.015 0  0.37 0.015 0  0.375 0.015 0  0.38 0.015 0  0.385 0.015 0  0.39 0.015 0  0.395 0.015 0  0.4 0.015 0  0.405 0.015 0  0.41 0.015 0  0.415 0.015 0  0.42 0.015 0  0.425 0.015 0  0.43 0.015 0  0.435 0.015 0  0.44 0.015 0  0.445 0.015 0  0.45 0.015 0  0.455 0.015 0  0.46 0.015 0  0.465 0.015 0  0.47 0.015 0  0.475 0.015 0  0.48 0.015 0  0.485 0.015 0  0.49 0.015 0  0.495 0.015 0  0.5 0.015 0  0.505 0.015 0  0.51 0.015 0  0.515 0.015 0  0.52 0.015 0  0.525 0.015 0  0.53 0.015 0  0.535 0.015 0  0.54 0.015 0  0.545 0.015 0  0.55 0.015 0  0.555 0.015 0  0.5600000000000001 0.015 0  0.
[...]
<PointData  Scalars="Indicator Function"> 
<DataArray  type="Float64"  Name="Indicator Function"  format="ascii">1.4444474582904269e-34  2.1684090207184211e-18  8.8116544694472520e-19  2.1258422233338649e-17  1.1277719796729763e-17  -1.6040560251387680e-19  -1.0358673951248654e-19  1.0628248957718935e-18  6.5723977122612194e-17  -2.1098970462952673e-20  3.9308566212914079e-18  8.8473625683744819e-17  6.0185310762101120e-36  -3.8037116401647908e-33  7.1383061741774833e-17  -2.7302956378156326e-19  -1.4058203404063080e-19  6.8885196679911442e-18  -1.4010060902113769e-19  -3.3703774026776627e-33  -1.7334400612586496e-17  -1.6869326646499209e-19  -3.9194309209128144e-19  1.0178968298011951e-17  -2.0187798504499222e-19  -1.3522813549289972e-19  -6.1160361452837439e-19  -7.4286245748451872e-19  -8.1277265498395083e-18  9.6296497219361793e-35  -7.3569314260144773e-19  -8.0090292117229028e-19  -4.8148248609680896e-35  -3.5549565721295785e-19  4.7329921108261689e-16  -3.7466519923658219e-19  -5.5464177004064398e-19  -7.9066972168130780e-19  -8.4171301468649229e-20  -5.2963073470648986e-33  -1.5295654075656551e-17  -1.9259299443872359e-34  -1.9368453492650346e-19  -3.0100560184615505e-19  -2.9732103975010831e-19  -1.5300834370125143e-19  7.1326842395525445e-16  -3.6466582785316156e-19  -7.0912970665706934e-19  -3.5456485332853491e-19  -5.6268975000630713e-19  -6.2725206796974247e-19  -5.6243205655087986e-19  -1.0108437128453634e-18  -5.0542185642268201e-19  -5.4649414190575789e-19  2.2550331853554222e-15  -3.0743428282302651e-19  -5.2750812760631878e-19  -8.4826038747689124e-19  -4.8242842340465252e-19  -1.1148475957279946e-18  -3.8316771594322936e-19  -8.9369851086804894e-19  -5.3569764952079096e-19  -1.0354867665089651e-18  -1.1408531595158911e-18  -2.3332119863626206e-19  7.1957831008630243e-17  -1.4325278664040492e-18  -1.4987070353476766e-18  -6.8176891749387457e-19  -6.4247096239966848e-19  -1.5163958551647310e-18  -2.3731274402171498e-18  -2.9777711223705703e-18  -3.2591244199694678e-18  -3.3058819266822396e-18  -2.9822358623008908e-18  -2.3895787728457061e-18  -1.1638747258784510e-18  8.1825608268128509e-16  -9.4643298577489143e-19  -1.3657584605632750e-18  -9.5165558708187834e-19  -7.4065577196267595e-19  -4.1624011878828660e-19  -7.4208670305171187e-19  -4.4190609841272646e-19  -6.0954247364265047e-19  -3.0477123682132552e-19  -4.8565958287819256e-19  -3.1209236330614282e-19  7.4548395149220033e-16  -1.6396819412101019e-19  -4.0842262700071095e-20  2.4074124304840448e-35  -2.2781603060740055e-20  -7.2307879912031986e-20  -1.6869174811910378e-19  3.9603858164690598e-16  9.3534283720547248e-16  1.0212999792693088e-16  -4.1032752803821669e-17  4.4405389965834353e-16  2.3450434866617349e-16  3.0691924649796383e-16  3.0558738814192440e-16  3.5562988719895376e-17  1.6311027831624587e-16  5.7334713725785570e-18  9.4454085811851196e-18  -1.0928523583151473e-20  3.9300492537432414e-18  5.7150937775058719e-18  1.1712951422786998e-17  -1.7965357490421105e-17  -4.4339692251168893e-18  5.3282243224293241e-18  2.0486364958962275e-17  -1.0940971947256290e-17  7.0725830527604451e-18  4.4105952653919796e-19  4.0528689452477251e-17  2.4347444015534336e-18  4.2600315970340202e-18  5.6205480764266533e-19  9.4921314480177870e-20  1.2814140730352885e-17  8.6943445865980616e-19  -3.8282483692082012e-19  8.9563466376221547e-19  -6.9333477997940491e-33  3.4800635030327178e-18  5.4047647731754536e-18  3.9481563859938335e-33  -1.0246056716505234e-19  -7.1385205124922019e-22  1.5531261428638261e-18  5.8680928493662798e-19  1.5465352430149467e-18  9.7025562400179941e-19  1.1144454152536368e-19  1.4450467420411618e-18  6.5004919404594331e-19  3.9934760705433662e-18  1.0500402311010873e-19  4.8890402966498650e-18  1.1688599209250571e-17  9.1485774188421582e-19  1.6761885943785304e-18  2.4345121647269413e-17  1.3542913963750039e-17  1.1967484034924095e-18  -4.7408517380846528e-19  1.6612400894957788e-18  2.7865673546334794e-19  1.1106080894616808e-18  2.6019158187402743e-19  -2.5672543769654322e-19  3.6765460072417342e-19  -3.9381125382249453e-20  -2.7293127215089336e-21  5.6697248550981413e-19  9.2178889471671688e-19  6.8800857974256286e-18  3.6986520241471946e-19  2.1328346110721278e-19  4.9525830052661133e-18  5.0159224826836867e-19  2.7614508235483573e-18  3.7594471280859465e-19  1.5517167284028172e-18  1.0889890459698710e-19  1.2473656673556923e-19  3.8743543130772374e-20  1.3451630385300700e-18  2.5321476900855227e-19  1.3682806061580716e-18  5.4482193306320048e-19  2.4985299097204093e-20  2.1905540287914199e-20  1.1675804609675183e-19  8.5933671110581496e-20  2.4331355589909324e-20  1.0967037817417204e-20  2.7073097688362300e-19  -1.2387841203491993e-22  7.5373475688034213e-22  1.1482805848267440e-19  2.0170530363475824e-20  3.2725762726892484e-35  5.0662022345512853e-20  1.7494002682469774e-21  6.3256365010599340e-21  9.6738264013942801e-21  -8.2383738465419919e-22  3.1331307242843395e-20  6.8971547290315698e-21  3.0527259597050456e-20  -9.9917019819894438e-37  8.4259435066941569e-35  1.1825881064098246e-03  1.6014836852565689e-04  2.2326471253830233e-03  2.9207583117706261e-03  2.6697951581042597e-03  2.8896104468385418e-03  1.8660528058758240e-03  2.4427124978851442e-03  1.8891075717617442e-03  6.5671932485869013e-05  1.2239359910845825e-03  1.6915514091653667e-04  5.9356874376529278e-04  8.9364955568982524e-03  7.1990965658663003e-03  4.9184633668311077e-03  2.5325007844815418e-03  5.0476564046557978e-03  3.1859042828436095e-03  5.9218379210743896e-03  6.0778154559332003e-03  4.0968902026460542e-03  7.0606190539709906e-03  6.7872290974240052e-03  2.4309592417973199e-04  7.4946377052537410e-03  1.4941149033728458e-02  6.6863145548233770e-03  6.2498840390397045e-03  2.2914728288673143e-02  1.7957053071790616e-03  1.3529931735816340e-02  1.2808080874849390e-02  6.5952424621589746e-03  1.3498736413364512e-02  1.9983075751033245e-02  6.7434729406424150e-03  1.4243439455748286e-02  1.5162953677179940e-03  4.9403356909954758e-03  3.2629262123429442e-03  6.9782207945794329e-03  1.0844869730486203e-02  1.0712119390623963e-02  7.8078036963523758e-04  2.3659630938926797e-03  1.0973812282860840e-03  6.5692355457370091e-03  1.2774545130632505e-02  2.0273034787628805e-02  2.2599137436607245e-02  1.4754125392670956e-02  2.7548125048795702e-03  1.8209741474000746e-02  1.9689526510776382e-02  7.9316209276794822e-03  1.1076487372501574e-02  1.9005483255381810e-02  2.5007064798381342e-03  1.7381315743025049e-02  1.2556474009686644e-02  1.3805071861938641e-02  1.0130035205791905e-02  1.1034423519211693e-02  4.1330591794544970e-03  2.4291002700868661e-02  8.4062821058865540e-03  5.5586848183739939e-03  1.2192456027185274e-02  1.9709899847747871e-02  1.7143355859843400e-02  3.7099790411911008e-03  1.1573727947438042e-02  2.1530095259345162e-02  3.1985415792186035e-02  3.7650047772317861e-02  3.9886142207155376e-02  3.9610403348970265e-02  3.3917983598271743e-02  2.6087832484705597e-02  7.9225868847356811e-03  4.3219363438363797e-03  1.4888452796349596e-02  1.7159090778108666e-02  8.5639576004136585e-03  1.3342468234483658e-02  8.2708125824448484e-04  1.3368245597361158e-02  1.2765497618966335e-03  1.0980541028654124e-02  1.7497730531833101e-02  1.1244312408725242e-02  7.4432306151081956e-03  4.2877104901563210e-03  2.9537883917759786e-03  7.3574879630803258e-04  8.2079375244201158e-04  2.6051659282222226e-03  2.5572612387862806e-03  1.7602497564857043e-03  2.9620493157649589e-03  4.6321558025534740e-03  1.8502637320381599e-03  1.5695919069329321e-03  1.7520848307626534e-04  9.1846134972118753e-04  2.9401498680487462e-04  1.7474423742909980e-03  1.3517092020979735e-04  3.0915978896679260e-04  2.1927718200207471e-04  3.6809608086927633e-05  1.7846597490371220e-04  2.7579256290944770e-04  5.3283276427347351e-04  1.2649661513489130e-03  4.5429717066533738e-04  6.9284745743331379e-04  9.3194328884202307e-04  9.8014753587562838e-04  4.8618477960843750e-04  1.6438341329919602e-04  3.4814291724842968e-05  4.2481742688030836e-04  1.9376785053039849e-04  1.3016281661536633e-04  1.5531281131721819e-04  1.5086824821866621e-04  1.1921968540897853e-04  7.9805855910394466e-05  6.2465200661459473e-05  2.1885960524121193e-05  4.1525474168373185e-05  3.1335847306449501e-05  9.1533328467132992e-06  2.4359480246801618e-05  1.9714617175446049e-05  3.0023067402912425e-06  2.0512162149357481e-05  4.6914062716453286e-05  6.4900216618775210e-05  6.5146967387828578e-05  6.0075669785347068e-05  5.5268795542078326e-05  2.5837285757873978e-05  3.8317308540020197e-06  3.2232637774291623e-05  1.3753385176420901e-04  2.4779521408428668e-04  2.8868699992115002e-04  2.1275234558499451e-04  7.9375511693263124e-05  2.1671836558311125e-05  7.5541503402862121e-05  9.6947993912888493e-05  9.6565957384817441e-05  8.3904710757296621e-05  6.7018406133104023e-05  5.5209854609973717e-05  4.3578956436245445e-05  3.7692367277262379e-05  3.5871683602197482e-05  3.1231085221162063e-05  3.8428079861540970e-05  7.9893725989319960e-05  1.3012752811372656e-04  1.4662211658130825e-04  1.3692823201096003e-04  1.1731751962996513e-04  9.4592673267039902e-05  7.3536681699644632e-05  5.6515859081662216e-05  4.3797455757335308e-05  3.8873136411560811e-05  3.9114535392750003e-05  3.7370470325558769e-05  2.7816354739975834e-05  1.6353045284671548e-05  7.6193309481467545e-06  2.2506035496331797e-06  1.1252378370392038e-06  1.2776704550269961e-07  6.4337555455676185e-07  3.9117724467938094e-06  5.0026695709168267e-06  4.5009627732700749e-06  3.3904452942595486e-06  2.3594521898212231e-06  2.3256282923149289e-06  1.2456993207547443e-06  3.3199335428620564e-07  1.2511918057615370e-07  2.9037323527380028e-07  3.6879625269176199e-07  3.9866702145082847e-07  3.9500026752434171e-07  4.3031005334494165e-07  3.7826347693363376e-07  6.5404458911721318e-08  1.8153384049232999e-24  1.2037062152420224e-34  3.5269093079246701e-03  5.0135719199691075e-03  1.6166633877423057e-03  3.7808019017184259e-03  5.3349896118324884e-03  3.5020297931124709e-04  1.0273951890365552e-02  3.1439169154446884e-04  8.2829462299528773e-03  6.1341238555190506e-03  6.1898536929770424e-03  1.3472796752604895e-02  6.5227410450362615e-03  3.1996902608885727e-03  1.0118456414001257e-02  1.2600394433466213e-02  2.2824793708105924e-02  8.1279800391318296e-03  3.6241434340721062e-03  9.2484800625115670e-03  2.6610754079591136e-02  1.0233232104013053e-02  1.6741085802558137e-02  7.5190031451556364e-03  1.4888778184086906e-02  9.6579586253506342e-04  9.2685040451416095e-03  3.1207952969529566e-03  3.2919188363892300e-02  1.3158313664522435e-03  1.7962088420472616e-02  3.1564880909976063e-02  1.1168809126596608e-02  3.0700451971164919e-02  1.7598228454245749e-02  2.7987446099012620e-03  3.7478663592236652e-04  2.5575385551744077e-02  1.2637372974879093e-02  1.7907528809075382e-02  3.6762369293599440e-02  2.8364290753785496e-02  3.4559247251520889e-02  4.1515473723837702e-02  4.2799846132155116e-02  2.8012428543792298e-02  2.6421487076717171e-02  4.1740511112921826e-02  4.1813208266009101e-02  2.3435987537169890e-02  9.4385817636330593e-03  4.1356043083347366e-02  5.7488071670826278e-02  4.9510415049169192e-02  2.3827350205086684e-02  8.0101129803033973e-03  3.2191719939165392e-02  2.0911394873154271e-02  1.6792011038531240e-02  2.0262928101793792e-02  2.1381390837779651e-02  4.7760950513744370e-02  8.8395665215830563e-03  1.5334621281651681e-02  2.1516710567243112e-02  2.4595818552496717e-02  3.4978553912245192e-02  8.9220649497680753e-03  2.1104055177723131e-02  1.8145475618963340e-02  2.5142961187747646e-02  1.1585083187136464e-02  7.1020582324539993e-03  2.4703615572801669e-02  4.2990247356951374e-02  4.5093051268506289e-02  5.6817275554016014e-02  5.1156039638520466e-02  5.4938175242105126e-02  3.7809380622462696e-02  2.1916013747225193e-02  2.2065568873608694e-03  1.3650482428525023e-02  2.1898660151253576e-02  2.3031743860821074e-02  1.1776125115202167e-02  1.8301084964974772e-02  2.4110794912345287e-02  1.1129412521509688e-02  1.9281347777116865e-02  1.4165810322391684e-02  9.5562299214927646e-05  2.3106909654585085e-03  6.3911478080626123e-03  8.8225317157198443e-03  6.1598311722550888e-03  4.1749244205292069e-03  3.1557723252480202e-03  5.5914020239084808e-03  1.0124927345549378e-02  6.6762333107278898e-03  2.9342469018093739e-03  3.8970699664342833e-03  3.7933666524623470e-03  4.3950126657849153e-03  1.6172451255174094e-03  2.7852584699523302e-03  2.4968332467140046e-03  1.4309369371801330e-03  6.1193956232412036e-04  8.5686760029048364e-04  6.2330751866401652e-05  2.9621003874580570e-04  9.2237411527281359e-05  1.0222400745537167e-03  6.5195090543131184e-04  2.0331195910170225e-03  2.7998225806398957e-04  1.9415466880438861e-03  4.0523640403051386e-04  1.6108386830991663e-03  1.1971168344935580e-04  2.1037117005885426e-04  3.4259630174445275e-04  5.3766014656225617e-04  1.5000407526443140e-04  2.5297368940382323e-04  1.6114451301841047e-04  1.7009383595451599e-04  1.2221918239387381e-04  1.0522071055069046e-04  5.5898305267150370e-05  3.3122301153778678e-05  7.1103920774248650e-05  1.3057478287768981e-05  2.0078806483599029e-05  3.6950032978591812e-05  1.2270620552604078e-05  1.6731320641759562e-05  5.2699842533135617e-05  8.3314488669126494e-05  9.2274106435316592e-05  8.1257916707899068e-05  7.9412464555923628e-05  5.9806530668031507e-05  6.8623407362553939e-06  1.1860583126683597e-05  1.3410653199692993e-04  2.9563942027310852e-04  3.9307690074723024e-04  3.4304960326285135e-04  1.6397428617204334e-04  5.5429350613873583e-06  7.6379514986144950e-05  1.1704689531227579e-04  1.3114543019994868e-04  1.2295755345184860e-04  1.0227990151243411e-04  8.2725660311549408e-05  6.9275143304818265e-05  5.4334415841932264e-05  5.3255581647752631e-05  4.8647459383675939e-05  4.6717184388642403e-05  8.2608380582484628e-05  1.6033842626911560e-04  2.0259144903759347e-04  1.9258395371749484e-04  1.6900178608302704e-04  1.4168238299067256e-04  1.1279975601489598e-04  8.7817533678466155e-05  6.7300150816537328e-05  5.5447222222703515e-05  5.3922522522845816e-05  5.3785360232227566e-05  4.4146755355909041e-05  2.6895954048260213e-05  1.3712405587498662e-05  5.6067602629054574e-06  5.8808248304040107e-08  1.7072407378585897e-06  4.9477709985399826e-07  4.0927495036431702e-06  7.7655378992833909e-06  6.6946044180788765e-06  5.6190102371567109e-06  3.5455624952904459e-06  3.6293701650048590e-06  2.8160409334417789e-06  9.7741675203055306e-07  3.4172628496640884e-07  1.3190157496867262e-07  5.0770433652547317e-07  3.9690219803694132e-07  4.8005964196915699e-07  5.4991522583286937e-07  7.1718855014575739e-07  6.0773710433294148e-07  1.5181283838363345e-22  -2.1269668552157772e-20  1.2683258456592005e-03  1.2328166168373016e-03  3.2693296113298005e-05  3.1431092109283675e-03  1.2062741873233140e-02  6.5294490148637755e-04  1.1053860990483664e-02  1.0970645003765614e-02  5.9804678666325970e-03  1.0282455796060802e-02  3.3677973688906382e-03  7.6732112568023772e-03  8.3536272343449729e-03  6.3733165067157582e-05  1.1521752032418472e-02  2.0456365806841004e-02  2.5302410548124776e-02  1.6536942934088930e-02  1.1372628341859635e-02  1.1221499398819359e-02  4.6431824734269409e-04  6.4454170925801477e-03  1.2279154259799627e-02  2.3629676843168086e-02  2.4651531402055098e-03  7.3440928572897964e-04  1.4692411664318110e-02  3.7868768561126073e-02  3.7710069876779398e-03  1.8901925539409194e-02  3.6767317715244344e-02  1.3315459822753973e-02  3.8591261325316449e-02  6.9932980231046191e-03  8.9235269863040013e-03  2.4026742110912620e-02  4.7056082393882370e-02  3.3561706366795029e-02  4.1728698923312539e-02  2.0463745716354405e-02  3.2268233839612961e-03  1.7918120626809923e-02  6.1935723134747510e-03  6.9031233406135362e-03  8.9343244006681883e-03  9.6522673900886584e-03  1.9456880353737698e-02  2.0840284169145216e-02  3.4345804781166375e-02  4.8338648536609845e-02  5.6727603107417694e-02  4.9469152631064821e-02  2.2189851221818650e-02  2.3053340304371443e-02  6.1435357008914976e-02  6.2701664913773020e-02  2.2818312872726162e-02  3.2856897055942351e-02  5.3344369347009507e-02  1.1246612905539804e-02  3.7630030063588678e-02  2.6596998205675383e-02  3.5283762705592817e-02  3.6009238999984268e-02  1.4277362773628129e-02  5.0979311041650602e-03  5.4616731193102876e-02  6.2737848238131238e-03  2.2322827810300191e-02  2.2509165051060983e-02  2.7786672544313707e-02  2.1619019894168454e-02  4.1863924794792208e-03  2.4766914453097044e-02  3.3579310574961559e-02  5.2870400892639766e-02  5.6108054590916383e-02  6.1586214291768158e-02  5.6964291622314950e-02  5.0358143632940867e-02  3.5656084991597892e-02  4.5748328557554665e-03  1.0873695796389348e-02  2.2874289409920433e-02  2.2170168547572800e-02  1.0731284841941394e-02  3.3366956012786539e-02  3.4856077986147619e-03  3.7539565642464218e-02  4.3332823463653912e-03  3.2920754992192401e-02  4.9956854069980836e-02  3.5227875410765573e-02  2.3603164574617790e-02  1.6242833009438230e-02  1.2846799714181904e-02  6.2622451906960220e-03  7.0476124957242841e-04  3.9140319433734021e-03  3.6694027493990450e-03  6.0582943728545056e-03  1.0528142999155408e-02  1.2058241110244457e-02  5.0295030915412054e-03  2.0498737622005833e-03  1.3729304771182929e-03  4.8619982382326914e-04  1.1421607092852715e-03  4.3720333076777904e-03  7.8265056967808191e-04  8.4535869466440553e-05  7.2407392186862299e-04  2.1575060859482922e-05  4.4515811309769258e-04  4.7841134239683938e-04  1.1701434126142429e-03  2.9488641249994945e-03  6.0042641622620350e-04  3.8123567176139435e-04  1.9978876718221485e-03  2.5604571719637596e-03  6.2664080274065122e-04  4.2325452906799110e-04  7.7653149928155282e-05  7.6531423948140423e-04  1.4099825864308954e-04  4.7575755783630958e-04  2.0371078858936906e-04  1.2693821789127717e-04  1.4256833536696636e-04  1.0940260446810401e-04  1.0910260010434049e-04  2.5610693336055615e-05  7.4279113025932605e-05  5.7841078225450291e-05  3.9447119752665228e-06  4.2162273477085582e-05  3.0944712763493504e-05  5.9789829667501435e-06  4.3340668351073922e-05  8.2107122237429575e-05  1.0368294392978879e-04  9.4466469913115228e-05  8.3244868690359085e-05  8.3477635628345436e-05  3.3854438980823973e-05  1.2610320754014266e-05  7.5930502286459116e-05  2.7042630539566296e-04  4.2333353250365447e-04  4.3362257099523389e-04  2.5760757617962954e-04  3.8591031798558053e-05  6.7831840050118790e-05  1.0539636300984718e-04  1.2876099222200414e-04  1.3406862811663704e-04  1.2044051132353803e-04  9.7847948230799260e-05  8.4532546578636148e-05  6.8263601264688042e-05  5.9447221339935938e-05  6.0499570712617523e-05  5.2091581096823214e-05  6.5455787897190812e-05  1.4259898758570814e-04  2.2428847156063473e-04  2.2504792265593432e-04  1.9192825531859191e-04  1.6440731906271525e-04  1.3671129614677550e-04  1.0878515576871560e-04  8.5272522036939955e-05  6.6500360536584911e-05  6.0947376135989344e-05  6.2303089149525167e-05  5.6987688583845462e-05  3.7310048316502654e-05  1.8822510502644810e-05  8.5953524062318832e-06  3.1112187021432386e-06  1.9396587959954399e-06  4.6628451962176893e-07  7.9323627245799712e-07  8.4788309317477392e-06  9.1756449701444777e-06  6.6006848413699659e-06  5.0041134052834463e-06  3.5132097700666396e-06  4.4424177300858271e-06  2.2424466047920084e-06  5.6131294578472476e-07  6.5262118852380761e-07  3.1169874288522001e-08  2.6827888008939112e-07  3.0443208488411962e-07  3.7186981687457134e-07  4.9816569875178264e-07  5.0185079253757436e-07  -3.9893339531031382e-36  -3.8518598887744717e-34  3.8316028546316863e-04  2.5443372636226270e-03  1.0110569610147840e-02  2.8002503823767089e-04  7.0892667934565300e-04  3.4909401995351468e-03  5.8933281702548907e-03  9.0180973815317984e-03  2.9357183552323708e-03  7.9203507740697714e-03  8.7516900808683514e-03  6.4684869330137043e-03  1.6644494025211246e-02  1.2581947388733219e-02  1.6372652182288924e-03  2.3601640570061873e-02  1.5037443654649812e-03  2.7696401957632472e-02  1.5743595293583653e-02  1.16081255708