<?xml version="1.0"?>
<VTKFile type="UnstructuredGrid"  version="0.1"  >
<UnstructuredGrid>
<Piece  NumberOfPoints="676" NumberOfCells="1250">
<Points>
<DataArray  type="Float64"  NumberOfComponents="3"  format="ascii">0 0 0  0.04 0 0  0.08 0 0  0.12 0 0  0.16 0 0  0.2 0 0  0.24 0 0  0.28 0 0  0.32 0 0  0.36 0 0  0.4 0 0  0.44 0 0  0.48 0 0  0.52 0 0  0.5600000000000001 0 0  0.6 0 0  0.64 0 0  0.68 0 0  0.72 0 0  0.76 0 0  0.8 0 0  0.84 0 0  0.88 0 0  0.92 0 0  0.96 0 0  1 0 0  0 0.04 0  0.04 0.04 0  0.08 0.04 0  0.12 0.04 0  0.16 0.04 0  0.2 0.04 0  0.24 0.04 0  0.28 0.04 0  0.32 0.04 0  0.36 0.04 0  0.4 0.04 0  0.44 0.04 0  0.48 0.04 0  0.52 0.04 0  0.5600000000000001 0.04 0  0.6 0.04 0  0.64 0.04 0  0.68 0.04 0  0.72 0.04 0  0.76 0.04 0  0.8 0.04 0  0.84 0.04 0  0.88 0.04 0  0.92 0.04 0  0.96 0.04 0  1 0.04 0  0 0.08 0  0.04 0.08 0  0.08 0.08 0  0.12 0.08 0  0.16 0.08 0  0.2 0.08 0  0.24 0.08 0  0.28 0.08 0  0.32 0.08 0  0.36 0.08 0  0.4 0.08 0  0.44 0.08 0  0.48 0.08 0  0.52 0.08 0  0.5600000000000001 0.08 0  0.6 0.08 0  0.64 0.08 0  0.68 0.08 0  0.72 0.08 0  0.76 0.08 0  0.8 0.08 0  0.84 0.08 0  0.88 0.08 0  0.92 0.08 0  0.96 0.08 0  1 0.08 0  0 0.12 0  0.04 0.12 0  0.08 0.12 0  0.12 0.12 0  0.16 0.12 0  0.2 0.12 0  0.24 0.12 0  0.28 0.12 0  0.32 0.12 0  0.36 0.12 0  0.4 0.12 0  0.44 0.12 0  0.48 0.12 0  0.52 0.12 0  0.5600000000000001 0.12 0  0.6 0.12 0  0.64 0.12 0  0.68 0.12 0  0.72 0.12 0  0.76 0.12 0  0.8 0.12 0  0.84 0.12 0  0.88 0.12 0  0.92 0.12 0  0.96 0.12 0  1 0.12 0  0 0.16 0  0.04 0.16 0  0.08 0.16 0  0.12 0.16 0  0.16 0.16 0  0.2 0.16 0  0.24 0.16 0  0.28 0.16 0  0.32 0.16 0  0.36 0.16 0  0.4 0.16 0  0.44 0.16 0  0.48 0.16 0  0.52 0.16 0  0.5600000000000001 0.16 0  0.6 0.16 0  0.64 0.16 0  0.68 0.16 0  0.72 0.16 0  0.76 0.16 0  0.8 0.16 0  0.84 0.16 0  0.88 0.16 0  0.92 0.16 0  0.96 0.16 0  1 0.16 0  0 0.2 0  0.04 0.2 0  0.08 0.2 0  0.12 0.2 0  0.16 0.2 0  0.2 0.2 0  0.24 0.2 0  0.28 0.2 0  0.32 0.2 0  0.36 0.2 0  0.4 0.2 0  0.44 0.2 0  0.48 0.2 0  0.52 0.2 0  0.5600000000000001 0.2 0  0.6 0.2 0  0.64 0.2 0  0.68 0.2 0  0.72 0.2 0  0.76 0.2 0  0.8 0.2 0  0.84 0.2 0  0.88 0.2 0  0.92 0.2 0  0.96 0.2 0  1 0.2 0  0 0.24 0  0.04 0.24 0  0.08 0.24 0  0.12 0.24 0  0.16 0.24 0  0.2 0.24 0  0.24 0.24 0  0.28 0.24 0  0.32 0.24 0  0.36 0.24 0  0.4 0.24 0  0.44 0.24 0  0.48 0.24 0  0.52 0.24 0  0.5600000000000001 0.24 0  0.6 0.24 0  0.64 0.24 0  0.68 0.24 0  0.72 0.24 0  0.76 0.24 0  0.8 0.24 0  0.84 0.24 0  0.88 0.24 0  0.92 0.24 0  0.96 0.24 0  1 0.24 0  0 0.28 0  0.04 0.28 0  0.08 0.28 0  0.12 0.28 0  0.16 0.28 0  0.2 0.28 0  0.24 0.28 0  0.28 0.28 0  0.32 0.28 0  0.36 0.28 0  0.4 0.28 0  0.44 0.28 0  0.48 0.28 0  0.52 0.28 0  0.5600000000000001 0.28 0  0.6 0.28 0  0.64 0.28 0  0.68 0.28 0  0.72 0.28 0  0.76 0.28 0  0.8 0.28 0  0.84 0.28 0  0.88 0.28 0  0.92 0.28 0  0.96 0.28 0  1 0.28 0  0 0.32 0  0.04 0.32 0  0.08 0.32 0  0.12 0.32 0  0.16 0.32 0  0.2 0.32 0  0.24 0.32 0  0.28 0.32 0  0.32 0.32 0  0.36 0.32 0  0.4 0.32 0  0.44 0.32 0  0.48 0.32 0  0.52 0.32 0  0.5600000000000001 0.32 0  0.6 0.32 0  0.64 0.32 0  0.68 0.32 0  0.72 0.32 0  0.76 0.32 0  0.8 0.32 0  0.84 0.32 0  0.88 0.32 0  0.92 0.32 0  0.96 0.32 0  1 0.32 0  0 0.36 0  0.04 0.36 0  0.08 0.36 0  0.12 0.36 0  0.16 0.36 0  0.2 0.36 0  0.24 0.36 0  0.28 0.36 0  0.32 0.36 0  0.36 0.36 0  0.4 0.36 0  0.44 0.36 0  0.48 0.36 0  0.52 0.36 0  0.5600000000000001 0.36 0  0.6 0.36 0  0.64 0.36 0  0.68 0.36 0  0.72 0.36 0  0.76 0.36 0  0.8 0.36 0  0.84 0.36 0  0.88 0.36 0  0.92 0.36 0  0.96 0.36 0  1 0.36 0  0 0.4 0  0.04 0.4 0  0.08 0.4 0  0.12 0.4 0  0.16 0.4 0  0.2 0.4 0  0.24 0.4 0  0.28 0.4 0  0.32 0.4 0  0.36 0.4 0  0.4 0.4 0  0.44 0.4 0  0.48 0.4 0  0.52 0.4 0  0.5600000000000001 0.4 0  0.6 0.4 0  0.64 0.4 0  0.68 0.4 0  0.72 0.4 0  0.76 0.4 0  0.8 0.4 0  0.84 0.4 0  0.88 0.4 0  0.92 0.4 0  0.96 0.4 0  1 0.4 0  0 0.44 0  0.04 0.44 0  0.08 0.44 0  0.12 0.44 0  0.16 0.44 0  0.2 0.44 0  0.24 0.44 0  0.28 0.44 0  0.32 0.44 0  0.36 0.44 0  0.4 0.44 0  0.44 0.44 0  0.48 0.44 0  0.52 0.44 0  0.5600000000000001 0.44 0  0.6 0.44 0  0.64 0.44 0  0.68 0.44 0  0.72 0.44 0  0.76 0.44 0  0.8 0.44 0  0.84 0.44 0  0.88 0.44 0  0.92 0.44 0  0.96 0.44 0  1 0.44 0  0 0.48 0  0.04 0.48 0  0.08 0.48 0  0.12 0.48 0  0.16 0.48 0  0.2 0.48 0  0.24 0.48 0  0.28 0.48 0  0.32 0.48 0  0.36 0.48 0  0.4 0.48 0  0.44 0.48 0  0.48 0.48 0  0.52 0.48 0  0.5600000000000001 0.48 0  0.6 0.48 0  0.64 0.48 0  0.68 0.48 0  0.72 0.48 0  0.76 0.48 0  0.8 0.48 0  0.84 0.48 0  0.88 0.48 0  0.92 0.48 0  0.96 0.48 0  1 0.48 0  0 0.52 0  0.04 0.52 0  0.08 0.52 0  0.12 0.52 0  0.16 0.52 0  0.2 0.52 0  0.24 0.52 0  0.28 0.52 0  0.32 0.52 0  0.36 0.52 0  0.4 0.52 0  0.44 0.52 0  0.48 0.52 0  0.52 0.52 0  0.5600000000000001 0.52 0  0.6 0.52 0  0.64 0.52 0  0.68 0.52 0  0.72 0.52 0  0.76 0.52 0  0.8 0.52 0  0.84 0.52 0  0.88 0.52 0  0.92 0.52 0  0.96 0.52 0  1 0.52 0  0 0.5600000000000001 0  0.04 0.5600000000000001 0  0.08 0.5600000000000001 0  0.12 0.5600000000000001 0  0.16 0.5600000000000001 0  0.2 0.5600000000000001 0  0.24 0.5600000000000001 0  0.28 0.5600000000000001 0  0.32 0.5600000000000001 0  0.36 0.5600000000000001 0  0.4 0.5600000000000001 0  0.44 0.5600000000000001 0  0.48 0.5600000000000001 0  0.52 0.5600000000000001 0  0.5600000000000001 0.5600000000000001 0  0.6 0.5600000000000001 0  0.64 0.5600000000000001 0  0.68 0.5600000000000001 0  0.72 0.5600000000000001 0  0.76 0.5600000000000001 0  0.8 0.5600000000000001 0  0.84 0.5600000000000001 0  0.88 0.5600000000000001 0  0.92 0.5600000000000001 0  0.96 0.5600000000000001 0  1 0.5600000000000001 0  0 0.6 0  0.04 0.6 0  0.08 0.6 0  0.12 0.6 0  0.16 0.6 0  0.2 0.6 0  0.24 0.6 0  0.28 0.6 0  0.32 0.6 0  0.36 0.6 0  0.4 0.6 0  0.44 0.6 0  0.48 0.6 0  0.52 0.6 0  0.5600000000000001 0.6 0  0.6 0.6 0  0.64 0.6 0  0.68 0.6 0  0.72 0.6 0  0.76 0.6 0  0.8 0.6 0  0.84 0.6 0  0.88 0.6 0  0.92 0.6 0  0.96 0.6 0  1 0.6 0  0 0.64 0  0.04 0.64 0  0.08 0.64 0  0.12 0.64 0  0.16 0.64 0  0.2 0.64 0  0.24 0.64 0  0.28 0.64 0  0.32 0.64 0  0.36 0.64 0  0.4 0.64 0  0.44 0.64 0  0.48 0.64 0  0.52 0.64 0  0.5600000000000001 0.64 0  0.6 0.64 0  0.64 0.64 0  0.68 0.64 0  0.72 0.64 0  0.76 0.64 0  0.8 0.64 0  0.84 0.64 0  0.88 0.64 0  0.92 0.64 0  0.96 0.64 0  1 0.64 0  0 0.68 0  0.04 0.68 0  0.08 0.68 0  0.12 0.68 0  0.16 0.68 0  0.2 0.68 0  0.24 0.68 0  0.28 0.68 0  0.32 0.68 0  0.36 0.68 0  0.4 0.68 0  0.44 0.68 0  0.48 0.68 0  0.52 0.68 0  0.5600000000000001 0.68 0  0.6 0.68 0  0.64 0.68 0  0.68 0.68 0  0.72 0.68 0  0.76 0.68 0  0.8 0.68 0  0.84 0.68 0  0.88 0.68 0  0.92 0.68 0  0.96 0.68 0  1 0.68 0  0 0.72 0  0.04 0.72 0  0.08 0.72 0  0.12 0.72 0  0.16 0.72 0  0.2 0.72 0  0.24 0.72 0  0.28 0.72 0  0.32 0.72 0  0.36 0.72 0  0.4 0.72 0  0.44 0.72 0  0.48 0.72 0  0.52 0.72 0  0.5600000000000001 0.72 0  0.6 0.72 0  0.64 0.72 0  0.68 0.72 0  0.72 0.72 0  0.76 0.72 0  0.8 0.72 0  0.84 0.72 0  0.88 0.72 0  0.92 0.72 0  0.96 0.72 0  1 0.72 0  0 0.76 0  0.04 0.76 0  0.08 0.76 0  0.12 0.76 0  0.16 0.76 0  0.2 0.76 0  0.24 0.76 0  0.28 0.76 0  0.32 0.76 0  0.36 0.76 0  0.4 0.76 0  0.44 0.76 0  0.48 0.76 0  0.52 0.76 0  0.5600000000000001 0.76 0  0.6 0.76 0  0.64 0.76 0  0.68 0.76 0  0.72 0.76 0  0.76 0.76 0  0.8 0.76 0  0.84 0.76 0  0.88 0.76 0  0.92 0.76 0  0.96 0.76 0  1 0.76 0  0 0.8 0  0.04 0.8 0  0.08 0.8 0  0.12 0.8 0  0.16 0.8 0  0.2 0.8 0  0.24 0.8 0  0.28 0.8 0  0.32 0.8 0  0.36 0.8 0  0.4 0.8 0  0.44 0.8 0  0.48 0.8 0  0.52 0.8 0  0.5600000000000001 0.8 0  0.6 0.8 0  0.64 0.8 0  0.68 0.8 0  0.72 0.8 0  0.76 0.8 0  0.8 0.8 0  0.84 0.8 0  0.88 0.8 0  0.92 0.8 0  0.96 0.8 0  1 0.8 0  0 0.84 0  0.04 0.84 0  0.08 0.84 0  0.12 0.84 0  0.16 0.84 0  0.2 0.84 0  0.24 0.84 0  0.28 0.84 0  0.32 0.84 0  0.36 0.84 0  0.4 0.84 0  0.44 0.84 0  0.48 0.84 0  0.52 0.84 0  0.5600000000000001 0.84 0  0.6 0.84 0  0.64 0.84 0  0.68 0.84 0  0.72 0.84 0  0.76 0.84 0  0.8 0.84 0  0.84 0.84 0  0.88 0.84 0  0.92 0.84 0  0.96 0.84 0  1 0.84 0  0 0.88 0  0.04 0.88 0  0.08 0.88 0  0.12 0.88 0  0.16 0.88 0  0.2 0.88 0  0.24 0.88 0  0.28 0.88 0  0.32 0.88 0  0.36 0.88 0  0.4 0.88 0  0.44 0.88 0  0.48 0.88 0  0.52 0.88 0  0.5600000000000001 0.88 0  0.6 0.88 0  0.64 0.88 0  0.68 0.88 0  0.72 0.88 0  0.76 0.88 0  0.8 0.88 0  0.84 0.88 0  0.88 0.88 0  0.92 0.88 0  0.96 0.88 0  1 0.88 0  0 0.92 0  0.04 0.92 0  0.08 0.92 0  0.12 0.92 0  0.16 0.92 0  0.2 0.92 0  0.24 0.92 0  0.28 0.92 0  0.32 0.92 0  0.36 0.92 0  0.4 0.92 0  0.44 0.92 0  0.48 0.92 0  0.52 0.92 0  0.5600000000000001 0.92 0  0.6 0.92 0  0.64 0.92 0  0.68 0.92 0  0.72 0.92 0  0.76 0.92 0  0.8 0.92 0  0.84 0.92 0  0.88 0.92 0  0.92 0.92 0  0.96 0.92 0  1 0.92 0  0 0.96 0  0.04 0.96 0  0.08 0.96 0  0.12 0.96 0  0.16 0.96 0  0.2 0.96 0  0.24 0.96 0  0.28 0.96 0  0.32 0.96 0  0.36 0.96 0  0.4 0.96 0  0.44 0.96 0  0.48 0.96 0  0.52 0.96 0  0.5600000000000001 0.96 0  0.6 0.96 0  0.64 0.96 0  0.68 0.96 0  0.72 0.96 0  0.76 0.96 0  0.8 0.96 0  0.84 0.96 0  0.88 0.96 0  0.92 0.96 0  0.96 0.96 0  1 0.96 0  0 1 0  0.04 1 0  0.08 1 0  0.12 1 0  0.16 1 0  0.2 1 0  0.24 1 0  0.28 1 0  0.32 1 0  0.36 1 0  0.4 1 0  0.44 1 0  0.48 1 0  0.52 1 0  0.5600000000000001 1 0  0.6 1 0  0.64 1 0  0.68 1 0  0.72 1 0  0.76 1 0  0.8 1 0  0.84 1 0  0.88 1 0  0.92 1 0  0.96 1 0  1 1 0  </DataArray>
</Points>
<Cells>
[...]
<PointData  Scalars="Indicator Function"> 
<DataArray  type="Float64"  Name="Indicator Function"  format="ascii">-2.4564206197876277e-20  -8.7529093860101310e-19  1.6952663672125187e-17  1.5952736661609291e-17  -5.9350210348063090e-19  -1.2660721389524973e-19  -7.8177093998273792e-20  -1.2345305395222769e-18  -9.3466990316193572e-18  -5.3437786762823355e-19  5.2749750412815820e-17  8.1471278567575296e-18  -3.4754076167526018e-35  -3.4754076167526023e-34  2.6038743989336878e-17  5.4303244011759411e-36  2.6065557125644514e-35  4.0601941941164127e-18  4.3442595209407523e-36  1.0860648802351881e-36  6.6700303266428172e-19  -1.7042576249549718e-21  -9.3720513091045800e-21  2.4224452747303112e-19  -3.4094412369421586e-21  0.0000000000000000e+00  -3.9531204439452624e-21  4.4250939951763013e-04  3.3404060916470829e-03  1.5083200803299106e-02  2.1894620918202579e-04  4.5615056105685085e-03  2.8166266511961118e-03  1.3017613638526921e-02  7.9462643595080672e-03  1.5703876515142070e-02  1.7745576045311334e-03  1.5108284235842024e-02  8.1083685678196779e-03  2.1417700759215779e-03  1.7845381203427607e-03  1.5683445971014791e-03  9.8850032418865076e-04  7.8714628781427422e-04  3.9035318849976448e-04  2.9952374924954316e-04  1.7981651166331991e-04  1.5548660003943341e-04  1.6869617272543308e-04  8.4483780770804804e-05  1.2283806627387433e-04  3.4094412369421594e-21  -2.6246454764114788e-19  7.1213087033207976e-05  2.4457253207630427e-04  4.6262592755766871e-03  2.4045784812703998e-02  4.7344006107845338e-03  2.6485352788853479e-02  2.5330234084880488e-02  4.8033972664976485e-02  1.0120020806464851e-03  2.2743934996896160e-02  1.1074667754906948e-02  3.1370441602915321e-02  3.5030029707697359e-04  5.0068661312186276e-03  4.6287504930345533e-03  3.1821223355715184e-03  2.1568328046137706e-03  1.2525843870308485e-03  7.0749706920158171e-04  6.1592299721428302e-04  3.7693720077092504e-04  4.5012001384550648e-04  3.7047577247026239e-04  1.1202703027097198e-04  -2.1183532859466121e-20  -9.2400180421744235e-20  4.7281409558185593e-03  6.3896845414413818e-03  7.1091462672762127e-03  4.0413409457362916e-02  4.1048169019089987e-03  9.2117463078824763e-03  5.1514881747004337e-04  2.7931542263366978e-02  2.6463407354612445e-02  4.3312433991704508e-02  1.0088225956990301e-02  4.7439912067291867e-02  2.9133654030198318e-02  9.9869340261818408e-03  1.0957408502482805e-02  8.7168846852392155e-03  4.9078256573177681e-03  3.2129838703075981e-03  1.5561953743154289e-03  1.0649776732317316e-03  6.7897521385177359e-04  5.0199125065879084e-04  5.7896954161519554e-04  4.1111303717330014e-04  -5.7053394949171973e-20  -4.7034340506612283e-19  4.0272632782395188e-03  3.7455833586298162e-03  1.9136897615363441e-03  1.8580116910745838e-04  5.7697568703463757e-02  5.1914568440734723e-03  6.6173456744946596e-02  4.7746775589765124e-02  1.2309055051865267e-01  2.0232124266195119e-02  7.2629008076951038e-02  5.0445598925888936e-02  1.0135682485720990e-01  2.9290048065605753e-02  2.4402424842801518e-02  2.0845818890377288e-02  1.3721249260484370e-02  7.4899074211805536e-03  3.8354195923912711e-03  1.7415077448959147e-03  1.1954260597830514e-03  5.4466531856299559e-04  5.2757953669948349e-04  3.9104013139919344e-04  9.7177712373478591e-20  -1.3901630467010407e-34  9.5686264489174434e-03  8.4462145428965095e-03  5.3792120112552029e-03  6.8992925697565176e-03  7.9650497134075959e-02  2.6475992673851798e-02  2.1492426055604384e-02  1.9346128617279041e-02  9.5537604864680312e-02  1.0862534993675914e-01  1.8490736508890929e-01  1.0229626383352569e-01  1.6409918646100569e-01  1.1778525169572625e-01  6.4671506187036945e-02  4.6799024920220866e-02  3.1419774816828665e-02  1.6445122099478154e-02  8.4848560302829071e-03  3.6376469533329226e-03  1.7969491512900598e-03  9.1906044588310981e-04  3.7459705998308025e-04  4.1285298960369891e-04  -2.2917944742167816e-20  -8.4713060658344678e-35  1.4741591275741437e-02  9.4238787522000142e-03  7.9498385976448892e-03  6.3863087266887893e-03  3.1148328747488293e-02  1.7391926110377845e-01  2.1485692588829722e-02  1.9772417655500241e-01  1.5727613927213321e-02  3.6567163871794162e-01  1.1889592932814809e-01  2.0868109306024596e-01  2.2049887363353185e-01  2.7352560218309224e-01  1.2266011756406597e-01  6.7469973730056712e-02  4.9060099287021798e-02  3.3313224136393177e-02  1.8001789646576543e-02  8.3460534407855998e-03  3.2832529019829961e-03  1.6844896304897357e-03  5.0976545136543008e-04  1.9213141634748558e-04  -1.0665436109141022e-20  -4.3450008974735377e-22  1.0055359999222611e-02  3.2258264038445591e-03  2.1297380026952573e-02  3.7605084176607587e-02  3.0186499591354516e-02  1.3766313634779148e-01  1.7081419598385674e-03  1.7044872354867649e-01  1.3088237061678457e-01  6.6346534582294656e-02  3.7371385252423360e-02  4.0428912306054288e-01  3.4751549792250164e-03  3.8759675219783629e-01  5.0065980097405738e-01  8.4528895011870813e-03  4.9289857475490043e-02  5.7737130813841096e-02  3.5328682027370564e-02  1.7663626333021338e-02  7.1840099522197170e-03  3.0410115352809499e-03  1.3552199098510625e-03  2.9031701257729457e-04  -3.7173489162915876e-21  -2.7803260934020815e-34  1.8771055574607062e-02  1.7610424591790706e-02  5.8224352784036759e-03  1.4824498907178241e-02  5.6205309921921839e-02  9.3125533693627652e-02  1.4205453482022334e-01  2.0020999805913822e-01  3.0368718832511321e-01  1.1352743807026748e-01  1.9491894571535995e-01  3.8260105476273086e-02  1.2619453927617988e-01  9.8319826144660644e-03  8.5703271025176816e-02  7.3163510602907642e-02  1.1693598273575558e-02  7.4086706276206102e-02  5.3907349142851724e-02  3.1586329569596804e-02  1.4501995184641955e-02  5.5391049371661194e-03  2.5364793261300812e-03  8.4419852746770373e-04  -1.3901630467010407e-34  -1.0556652507109957e-19  3.1693086794149835e-03  1.3616510208279566e-02  3.9825584905547405e-02  8.6581135437496695e-02  7.6224351431521328e-02  4.4722233218156611e-02  2.2644688270045898e-01  4.4133701008604881e-01  8.7704269252371361e-02  3.9728622243741976e-02  6.0195456788654494e-03  1.1476581872278113e-01  1.0499603305309846e-01  6.1886215879093910e-02  5.5183487328439342e-02  1.1430802562074856e-01  7.1114158426110657e-02  1.8656258089885289e-02  6.1582551056354157e-02  4.3156703782681223e-02  2.4261046201098167e-02  1.0043441198132438e-02  3.9957208063256620e-03  1.5538560345199205e-03  3.4754076167526018e-35  2.6934409029832668e-34  2.5302466689982920e-03  4.3490440302514947e-03  3.8751934839886784e-03  2.9933611840821935e-02  1.2363344294839052e-01  3.8022839839256795e-01  1.1596978354180941e-01  1.5306407517798673e-01  4.8118930252650044e-02  5.9669371836640353e-02  1.5353604114631868e-02  8.9015637968992478e-02  8.1499807160953411e-02  1.0000632540016852e-01  5.7721708941771907e-02  1.3829375283093162e-01  1.1496612420911319e-01  6.2438588935800676e-02  4.4358163135450726e-02  4.1579254738365490e-02  2.9906690074222062e-02  1.5899162804462789e-02  6.3357026491959101e-03  2.4154400569563494e-03  4.1704891401031222e-34  -9.5573709460696562e-35  3.5750041503961666e-03  8.8126146782524744e-04  2.4451836814675398e-02  5.0962660787309176e-02  1.0426445035139643e-01  6.8922226480751525e-02  4.8819341475038203e-01  6.2156168592724617e-02  2.1336649515674478e-02  3.2420144394199740e-02  3.0949965009388195e-02  2.3801463768319483e-02  1.1059612147350108e-01  1.0267693404759796e-01  3.6433043859453680e-02  8.7201373366157978e-02  2.5997256444921357e-01  2.6992021678382144e-01  4.8852889922022073e-02  7.7079178502652904e-03  2.3016126429996692e-02  1.9284015313102882e-02  9.5563049150408849e-03  3.7398152255172946e-03  -5.5606521868041630e-34  -2.7862507017597464e-19  1.1765175096245284e-02  9.0498042143288167e-03  7.8208909972781512e-03  3.7438849574286004e-02  1.2879755313327393e-01  1.7186201385484356e-01  3.4860643801816645e-02  1.5890615431589422e-01  6.2889088192579823e-02  1.8882884690565125e-02  4.7537463139465101e-02  3.0412631090972236e-02  9.2223631135739018e-02  8.4203898360977289e-02  1.2706457464917900e-01  6.2272239886970997e-02  1.7619981364936707e-01  1.9657908405888158e-01  4.8355581268381770e-01  4.3309288679115113e-02  2.5257442118735256e-03  1.5721588655774665e-02  1.1914259038587855e-02  5.3977901713138064e-03  2.0852445700515611e-34  -7.8196671376933552e-35  5.0192630488823933e-03  1.5952544853485497e-02  3.2176094546055176e-02  6.6531092633148187e-02  9.6665659179617072e-02  1.3521572959885308e-01  2.5939940232924902e-01  8.2873689613289697e-02  9.9241716925132159e-02  3.0810824208998402e-02  7.0528315949305745e-04  2.4565012815027744e-02  2.5506967692104358e-02  1.2330033566498302e-01  1.1277432471988576e-01  2.1258881917930570e-03  2.3293110434066183e-01  4.9460810578042536e-01  4.3291832311230967e-02  6.6181888226753680e-02  4.7611077121035718e-02  1.6057694450915176e-03  1.1594784430936913e-02  6.6540192342114867e-03  1.3901630467010407e-34  -3.6071604035061432e-20  1.6150428687101740e-03  5.7603717165858647e-03  1.3717988273349026e-02  4.9145835503260314e-02  1.3865099992689661e-01  2.0315717573784106e-01  1.3281405942808919e-01  1.1390691344821718e-01  1.3697479317797354e-01  6.8674016020608603e-02  5.6922151613002396e-02  2.4798908436313466e-02  1.2076601048431132e-02  1.2310455209194129e-01  3.5240840943810546e-02  1.1675190585186407e-01  5.4447013342159047e-02  2.4933987168030905e-01  7.8182631909994438e-01  8.4952888352431991e-02  2.8812928257029621e-02  3.9475848973400063e-02  5.2473226086976648e-03  7.6328623368825572e-03  5.1609803108776139e-33  -4.8418919615341774e-20  8.1858902366328135e-03  7.2596383317290215e-03  1.8630932600439864e-02  3.1848052826341115e-02  6.0478852359931376e-02  8.7053342416366600e-02  2.8610106747500269e-01  1.3412309497611505e-01  9.8837842092794045e-02  1.2812161989667811e-01  7.4474204008187633e-02  8.0115987592078858e-02  1.6797307196836298e-02  1.2033809455630049e-02  3.1985567617042465e-01  2.4380680779592001e-01  1.3916729959864410e-01  1.2252799639847924e-01  1.2442414372484103e-02  1.2699004542963732e-01  3.7403503442244114e-02  4.2423562853103787e-02  2.6399621646521466e-02  9.0574752489116835e-03  -5.0279087831571109e-19  -2.6065557125644514e-35  8.7223771334934009e-04  7.4999047167388635e-03  1.5840442884380985e-02  3.7996672491333851e-02  7.5044591546635619e-02  1.0181486335436983e-01  6.4735661471552221e-03  1.9188669586929313e-01  5.8517893055993343e-02  1.9772171263118127e-01  6.4593345757005677e-02  1.3559587329925607e-01  1.5683708445829562e-02  6.2942591835383116e-02  2.3008628901685585e-01  1.1029485720631779e-01  5.6358124368087004e-01  3.8141140486379721e-01  1.9263827672938166e-01  7.2128429856710335e-02  5.3352060774859385e-02  1.3516619337931012e-02  2.9000468507754101e-02  1.0297982554344507e-02  1.1121304373608326e-33  -3.4397169077329386e-20  4.5988899285320670e-04  3.3523534448183295e-03  5.7990438845274914e-03  2.0938600951739654e-02  4.8941430072309548e-02  9.3477996201180233e-02  1.3846097634388543e-01  3.4413975657137650e-03  2.2636101129219055e-01  2.3770507675538874e-01  2.8154852268769215e-01  1.6836905239403951e-01  1.4731374164118849e-01  6.0676088125750711e-02  1.8913877950148561e-01  5.1669174781507055e-01  1.4503214224731686e-01  1.1547574604035718e-01  5.8491545988074545e-02  7.2249351287868344e-02  6.8935786809503422e-02  4.5668971709833472e-02  2.0610413745059373e-02  1.2374190562156683e-02  -3.8924565307629145e-32  -8.1293048985688535e-20  1.4756569268936370e-03  1.4638974019940575e-04  6.9572927409287692e-03  1.0573313934071328e-02  2.7549088396543627e-02  4.8816598482496629e-02  6.4977340890671739e-02  6.1515063794212239e-02  2.7699162318769976e-01  8.3664746121034791e-02  3.4755836554672448e-01  1.7841814926838626e-01  5.4804730216983411e-01  2.0265878891364122e-01  7.9627653239254553e-02  7.2252109400875464e-01  2.4945731896919898e-01  1.3183463210317084e-01  3.4628340539579125e-02  3.7272743469534339e-02  5.5909234041907681e-02  5.7014168653645010e-02  2.6056451791316149e-02  1.0682905483049322e-02  3.3363913120824978e-33  -9.5068705521812095e-20  1.4644453804790328e-03  1.7655058006102397e-03  3.1674782499522005e-03  8.7810362603982679e-03  1.8205659620942810e-02  3.4928498542909817e-02  4.7833890121777946e-02  4.7614138462946064e-02  7.6919029865718663e-02  1.8263763099321331e-02  4.1336048491872980e-02  5.3708060571006211e-01  3.3398116873375017e-02  6.2962412084815844e-01  4.7505143081750306e-01  7.0779328065079236e-02  8.4214875842245143e-02  9.0401582174446632e-02  8.2992596300790755e-02  2.2592805955148385e-02  5.3263378111550269e-02  5.0269169242177683e-02  4.6991511999503174e-02  1.5750092352363619e-03  1.1121304373608326e-33  -9.4351043646648264e-20  1.7126055470505135e-03  2.6359925745189005e-03  1.6223668168282512e-03  7.0182206781534123e-03  1.1047884828965501e-02  2.4228827640353428e-02  3.8080259098238270e-02  4.3446101418190476e-02  7.2557439535828562e-03  2.7304669062063712e-02  2.5261991027763220e-02  1.5164528791685769e-01  2.1993857110202693e-02  1.3390388388979399e-01  2.2985689352385846e-02  1.1534316827916193e-01  3.0251466341633039e-02  8.2438265847376763e-02  7.7100266562954170e-02  5.1159425451986887e-02  3.3899623587262333e-02  3.6155817860991840e-02  3.5984684445399331e-02  2.9123415060039251e-02  8.0280162909899916e-18  -4.6220589008626607e-20  1.6996773000362529e-03  2.5073955848871547e-03  3.3836543566328485e-03  3.3559609851900297e-03  9.0274917718251597e-03  1.4719252004898844e-02  2.7218364797135720e-02  3.8091959028248641e-02  4.7975365016699960e-02  3.1855134784104969e-02  3.9512078890167300e-02  2.7179145176457628e-02  8.0645251314213587e-02  1.7754454270730840e-02  7.2046612581304764e-02  2.9735876964158570e-02  2.9919650833371943e-02  9.6156888273523748e-03  7.5401751362756606e-02  5.6640566497626547e-02  2.8649123496442348e-02  2.7540028892711722e-02  1.6114280916635439e-02  1.1281574478744512e-02  1.1121304373608326e-33  -2.0721994705527981e-20  8.3263610974438284e-04  1.8944527495434967e-03  2.5473149983598251e-03  2.8341387427205391e-03  6.1851553977376548e-03  1.0373149239265881e-02  1.8989769983735173e-02  2.9457499820881989e-02  3.8876828435179894e-02  1.6946944617619274e-02  2.5011653959044783e-02  3.6332380309956308e-02  2.1508777221745275e-02  3.7514304702918983e-03  1.1085424189681715e-02  1.8065273739636747e-02  1.7729743138860461e-02  1.7680543572029910e-03  6.3256810586975298e-02  4.6648039443701203e-02  3.6699154850988007e-02  3.6547986672718531e-03  7.7079612502485156e-03  6.0209669425251829e-03  1.1121304373608326e-33  -1.3812558555658223e-20  3.7329427053675720e-04  1.0492839544247224e-03  1.4613235996580563e-03  2.1338041588204125e-03  2.4099791760806670e-03  6.7570723781829383e-03  1.1473166979696248e-02  2.1962311550487376e-02  3.4717087309649633e-02  4.6515269157441821e-02  4.3932540513195685e-03  1.4784487640836369e-02  2.6838165990417041e-02  2.0797781429555125e-02  2.6780110612509081e-02  3.0118460317486912e-03  1.9117716814230031e-03  7.4575967737023560e-03  1.2896953005998161e-03  3.9548418717562595e-02  2.2024747211103653e-02  2.1372036796219556e-02  3.6392048026304747e-03  2.8243988566545590e-04  7.8392816034087556e-21  -2.4436459805291735e-36  2.4882493425718185e-04  4.8966522772282955e-04  8.4260151011105811e-04  9.8877653325991888e-04  1.3594009233790321e-03  2.6694897639459939e-03  5.0736223051764820e-03  9.8402123382153612e-03  1.9104575803556734e-02  3.6910272059759816e-02  2.9586369528780614e-02  5.1312176109018165e-03  9.2116391666586320e-03  1.7196887852396297e-02  1.3708666792009936e-02  2.4437679299816606e-02  1.1172234985823246e-02  2.0292800240435827e-03  8.3511956197023906e-03  4.3054253611565100e-03  9.7254655612195222e-04  3.7611935495631124e-03  9.1203343719954838e-03  1.1726841152453048e-02  -6.5097045267875832e-19  -1.0860648802351881e-36  6.9062792778290663e-21  1.2231846228964707e-19  -1.1693444963865284e-19  2.4699655652269582e-19  -5.6100201075838363e-20  -1.4818644999670075e-19  -2.1721297604703763e-34  2.4327853317268216e-33  -7.8976137058673453e-19  -5.1223292357404910e-18  8.2118671664795984e-19  -2.8483979679926557e-19  0.0000000000000000e+00  1.5218778826986204e-17  -7.6098387547018711e-19  -1.3565637113530979e-18  3.1009181294445426e-19  -1.1264767030524744e-19  4.4485217494433304e-33  3.7274955285766984e-17  -5.3987178956323698e-20  -4.4485217494433304e-33  -2.2242608747216655e-32  -6.5097045267875726e-19  5.2131062721443965e-18  </DataArray> 
</PointData> 
</Piece>
</UnstructuredGrid>
</VTKFile>