<?xml version="1.0"?>
<VTKFile type="UnstructuredGrid"  version="0.1"  >
<UnstructuredGrid>
<Piece  NumberOfPoints="676" NumberOfCells="1250">
<Points>
<DataArray  type="Float64"  NumberOfComponents="3"  format="ascii">0 0 0  0.04 0 0  0.08 0 0  0.12 0 0  0.16 0 0  0.2 0 0  0.24 0 0  0.28 0 0  0.32 0 0  0.36 0 0  0.4 0 0  0.44 0 0  0.48 0 0  0.52 0 0  0.5600000000000001 0 0  0.6 0 0  0.64 0 0  0.68 0 0  0.72 0 0  0.76 0 0  0.8 0 0  0.84 0 0  0.88 0 0  0.92 0 0  0.96 0 0  1 0 0  0 0.04 0  0.04 0.04 0  0.08 0.04 0  0.12 0.04 0  0.16 0.04 0  0.2 0.04 0  0.24 0.04 0  0.28 0.04 0  0.32 0.04 0  0.36 0.04 0  0.4 0.04 0  0.44 0.04 0  0.48 0.04 0  0.52 0.04 0  0.5600000000000001 0.04 0  0.6 0.04 0  0.64 0.04 0  0.68 0.04 0  0.72 0.04 0  0.76 0.04 0  0.8 0.04 0  0.84 0.04 0  0.88 0.04 0  0.92 0.04 0  0.96 0.04 0  1 0.04 0  0 0.08 0  0.04 0.08 0  0.08 0.08 0  0.12 0.08 0  0.16 0.08 0  0.2 0.08 0  0.24 0.08 0  0.28 0.08 0  0.32 0.08 0  0.36 0.08 0  0.4 0.08 0  0.44 0.08 0  0.48 0.08 0  0.52 0.08 0  0.5600000000000001 0.08 0  0.6 0.08 0  0.64 0.08 0  0.68 0.08 0  0.72 0.08 0  0.76 0.08 0  0.8 0.08 0  0.84 0.08 0  0.88 0.08 0  0.92 0.08 0  0.96 0.08 0  1 0.08 0  0 0.12 0  0.04 0.12 0  0.08 0.12 0  0.12 0.12 0  0.16 0.12 0  0.2 0.12 0  0.24 0.12 0  0.28 0.12 0  0.32 0.12 0  0.36 0.12 0  0.4 0.12 0  0.44 0.12 0  0.48 0.12 0  0.52 0.12 0  0.5600000000000001 0.12 0  0.6 0.12 0  0.64 0.12 0  0.68 0.12 0  0.72 0.12 0  0.76 0.12 0  0.8 0.12 0  0.84 0.12 0  0.88 0.12 0  0.92 0.12 0  0.96 0.12 0  1 0.12 0  0 0.16 0  0.04 0.16 0  0.08 0.16 0  0.12 0.16 0  0.16 0.16 0  0.2 0.16 0  0.24 0.16 0  0.28 0.16 0  0.32 0.16 0  0.36 0.16 0  0.4 0.16 0  0.44 0.16 0  0.48 0.16 0  0.52 0.16 0  0.5600000000000001 0.16 0  0.6 0.16 0  0.64 0.16 0  0.68 0.16 0  0.72 0.16 0  0.76 0.16 0  0.8 0.16 0  0.84 0.16 0  0.88 0.16 0  0.92 0.16 0  0.96 0.16 0  1 0.16 0  0 0.2 0  0.04 0.2 0  0.08 0.2 0  0.12 0.2 0  0.16 0.2 0  0.2 0.2 0  0.24 0.2 0  0.28 0.2 0  0.32 0.2 0  0.36 0.2 0  0.4 0.2 0  0.44 0.2 0  0.48 0.2 0  0.52 0.2 0  0.5600000000000001 0.2 0  0.6 0.2 0  0.64 0.2 0  0.68 0.2 0  0.72 0.2 0  0.76 0.2 0  0.8 0.2 0  0.84 0.2 0  0.88 0.2 0  0.92 0.2 0  0.96 0.2 0  1 0.2 0  0 0.24 0  0.04 0.24 0  0.08 0.24 0  0.12 0.24 0  0.16 0.24 0  0.2 0.24 0  0.24 0.24 0  0.28 0.24 0  0.32 0.24 0  0.36 0.24 0  0.4 0.24 0  0.44 0.24 0  0.48 0.24 0  0.52 0.24 0  0.5600000000000001 0.24 0  0.6 0.24 0  0.64 0.24 0  0.68 0.24 0  0.72 0.24 0  0.76 0.24 0  0.8 0.24 0  0.84 0.24 0  0.88 0.24 0  0.92 0.24 0  0.96 0.24 0  1 0.24 0  0 0.28 0  0.04 0.28 0  0.08 0.28 0  0.12 0.28 0  0.16 0.28 0  0.2 0.28 0  0.24 0.28 0  0.28 0.28 0  0.32 0.28 0  0.36 0.28 0  0.4 0.28 0  0.44 0.28 0  0.48 0.28 0  0.52 0.28 0  0.5600000000000001 0.28 0  0.6 0.28 0  0.64 0.28 0  0.68 0.28 0  0.72 0.28 0  0.76 0.28 0  0.8 0.28 0  0.84 0.28 0  0.88 0.28 0  0.92 0.28 0  0.96 0.28 0  1 0.28 0  0 0.32 0  0.04 0.32 0  0.08 0.32 0  0.12 0.32 0  0.16 0.32 0  0.2 0.32 0  0.24 0.32 0  0.28 0.32 0  0.32 0.32 0  0.36 0.32 0  0.4 0.32 0  0.44 0.32 0  0.48 0.32 0  0.52 0.32 0  0.5600000000000001 0.32 0  0.6 0.32 0  0.64 0.32 0  0.68 0.32 0  0.72 0.32 0  0.76 0.32 0  0.8 0.32 0  0.84 0.32 0  0.88 0.32 0  0.92 0.32 0  0.96 0.32 0  1 0.32 0  0 0.36 0  0.04 0.36 0  0.08 0.36 0  0.12 0.36 0  0.16 0.36 0  0.2 0.36 0  0.24 0.36 0  0.28 0.36 0  0.32 0.36 0  0.36 0.36 0  0.4 0.36 0  0.44 0.36 0  0.48 0.36 0  0.52 0.36 0  0.5600000000000001 0.36 0  0.6 0.36 0  0.64 0.36 0  0.68 0.36 0  0.72 0.36 0  0.76 0.36 0  0.8 0.36 0  0.84 0.36 0  0.88 0.36 0  0.92 0.36 0  0.96 0.36 0  1 0.36 0  0 0.4 0  0.04 0.4 0  0.08 0.4 0  0.12 0.4 0  0.16 0.4 0  0.2 0.4 0  0.24 0.4 0  0.28 0.4 0  0.32 0.4 0  0.36 0.4 0  0.4 0.4 0  0.44 0.4 0  0.48 0.4 0  0.52 0.4 0  0.5600000000000001 0.4 0  0.6 0.4 0  0.64 0.4 0  0.68 0.4 0  0.72 0.4 0  0.76 0.4 0  0.8 0.4 0  0.84 0.4 0  0.88 0.4 0  0.92 0.4 0  0.96 0.4 0  1 0.4 0  0 0.44 0  0.04 0.44 0  0.08 0.44 0  0.12 0.44 0  0.16 0.44 0  0.2 0.44 0  0.24 0.44 0  0.28 0.44 0  0.32 0.44 0  0.36 0.44 0  0.4 0.44 0  0.44 0.44 0  0.48 0.44 0  0.52 0.44 0  0.5600000000000001 0.44 0  0.6 0.44 0  0.64 0.44 0  0.68 0.44 0  0.72 0.44 0  0.76 0.44 0  0.8 0.44 0  0.84 0.44 0  0.88 0.44 0  0.92 0.44 0  0.96 0.44 0  1 0.44 0  0 0.48 0  0.04 0.48 0  0.08 0.48 0  0.12 0.48 0  0.16 0.48 0  0.2 0.48 0  0.24 0.48 0  0.28 0.48 0  0.32 0.48 0  0.36 0.48 0  0.4 0.48 0  0.44 0.48 0  0.48 0.48 0  0.52 0.48 0  0.5600000000000001 0.48 0  0.6 0.48 0  0.64 0.48 0  0.68 0.48 0  0.72 0.48 0  0.76 0.48 0  0.8 0.48 0  0.84 0.48 0  0.88 0.48 0  0.92 0.48 0  0.96 0.48 0  1 0.48 0  0 0.52 0  0.04 0.52 0  0.08 0.52 0  0.12 0.52 0  0.16 0.52 0  0.2 0.52 0  0.24 0.52 0  0.28 0.52 0  0.32 0.52 0  0.36 0.52 0  0.4 0.52 0  0.44 0.52 0  0.48 0.52 0  0.52 0.52 0  0.5600000000000001 0.52 0  0.6 0.52 0  0.64 0.52 0  0.68 0.52 0  0.72 0.52 0  0.76 0.52 0  0.8 0.52 0  0.84 0.52 0  0.88 0.52 0  0.92 0.52 0  0.96 0.52 0  1 0.52 0  0 0.5600000000000001 0  0.04 0.5600000000000001 0  0.08 0.5600000000000001 0  0.12 0.5600000000000001 0  0.16 0.5600000000000001 0  0.2 0.5600000000000001 0  0.24 0.5600000000000001 0  0.28 0.5600000000000001 0  0.32 0.5600000000000001 0  0.36 0.5600000000000001 0  0.4 0.5600000000000001 0  0.44 0.5600000000000001 0  0.48 0.5600000000000001 0  0.52 0.5600000000000001 0  0.5600000000000001 0.5600000000000001 0  0.6 0.5600000000000001 0  0.64 0.5600000000000001 0  0.68 0.5600000000000001 0  0.72 0.5600000000000001 0  0.76 0.5600000000000001 0  0.8 0.5600000000000001 0  0.84 0.5600000000000001 0  0.88 0.5600000000000001 0  0.92 0.5600000000000001 0  0.96 0.5600000000000001 0  1 0.5600000000000001 0  0 0.6 0  0.04 0.6 0  0.08 0.6 0  0.12 0.6 0  0.16 0.6 0  0.2 0.6 0  0.24 0.6 0  0.28 0.6 0  0.32 0.6 0  0.36 0.6 0  0.4 0.6 0  0.44 0.6 0  0.48 0.6 0  0.52 0.6 0  0.5600000000000001 0.6 0  0.6 0.6 0  0.64 0.6 0  0.68 0.6 0  0.72 0.6 0  0.76 0.6 0  0.8 0.6 0  0.84 0.6 0  0.88 0.6 0  0.92 0.6 0  0.96 0.6 0  1 0.6 0  0 0.64 0  0.04 0.64 0  0.08 0.64 0  0.12 0.64 0  0.16 0.64 0  0.2 0.64 0  0.24 0.64 0  0.28 0.64 0  0.32 0.64 0  0.36 0.64 0  0.4 0.64 0  0.44 0.64 0  0.48 0.64 0  0.52 0.64 0  0.5600000000000001 0.64 0  0.6 0.64 0  0.64 0.64 0  0.68 0.64 0  0.72 0.64 0  0.76 0.64 0  0.8 0.64 0  0.84 0.64 0  0.88 0.64 0  0.92 0.64 0  0.96 0.64 0  1 0.64 0  0 0.68 0  0.04 0.68 0  0.08 0.68 0  0.12 0.68 0  0.16 0.68 0  0.2 0.68 0  0.24 0.68 0  0.28 0.68 0  0.32 0.68 0  0.36 0.68 0  0.4 0.68 0  0.44 0.68 0  0.48 0.68 0  0.52 0.68 0  0.5600000000000001 0.68 0  0.6 0.68 0  0.64 0.68 0  0.68 0.68 0  0.72 0.68 0  0.76 0.68 0  0.8 0.68 0  0.84 0.68 0  0.88 0.68 0  0.92 0.68 0  0.96 0.68 0  1 0.68 0  0 0.72 0  0.04 0.72 0  0.08 0.72 0  0.12 0.72 0  0.16 0.72 0  0.2 0.72 0  0.24 0.72 0  0.28 0.72 0  0.32 0.72 0  0.36 0.72 0  0.4 0.72 0  0.44 0.72 0  0.48 0.72 0  0.52 0.72 0  0.5600000000000001 0.72 0  0.6 0.72 0  0.64 0.72 0  0.68 0.72 0  0.72 0.72 0  0.76 0.72 0  0.8 0.72 0  0.84 0.72 0  0.88 0.72 0  0.92 0.72 0  0.96 0.72 0  1 0.72 0  0 0.76 0  0.04 0.76 0  0.08 0.76 0  0.12 0.76 0  0.16 0.76 0  0.2 0.76 0  0.24 0.76 0  0.28 0.76 0  0.32 0.76 0  0.36 0.76 0  0.4 0.76 0  0.44 0.76 0  0.48 0.76 0  0.52 0.76 0  0.5600000000000001 0.76 0  0.6 0.76 0  0.64 0.76 0  0.68 0.76 0  0.72 0.76 0  0.76 0.76 0  0.8 0.76 0  0.84 0.76 0  0.88 0.76 0  0.92 0.76 0  0.96 0.76 0  1 0.76 0  0 0.8 0  0.04 0.8 0  0.08 0.8 0  0.12 0.8 0  0.16 0.8 0  0.2 0.8 0  0.24 0.8 0  0.28 0.8 0  0.32 0.8 0  0.36 0.8 0  0.4 0.8 0  0.44 0.8 0  0.48 0.8 0  0.52 0.8 0  0.5600000000000001 0.8 0  0.6 0.8 0  0.64 0.8 0  0.68 0.8 0  0.72 0.8 0  0.76 0.8 0  0.8 0.8 0  0.84 0.8 0  0.88 0.8 0  0.92 0.8 0  0.96 0.8 0  1 0.8 0  0 0.84 0  0.04 0.84 0  0.08 0.84 0  0.12 0.84 0  0.16 0.84 0  0.2 0.84 0  0.24 0.84 0  0.28 0.84 0  0.32 0.84 0  0.36 0.84 0  0.4 0.84 0  0.44 0.84 0  0.48 0.84 0  0.52 0.84 0  0.5600000000000001 0.84 0  0.6 0.84 0  0.64 0.84 0  0.68 0.84 0  0.72 0.84 0  0.76 0.84 0  0.8 0.84 0  0.84 0.84 0  0.88 0.84 0  0.92 0.84 0  0.96 0.84 0  1 0.84 0  0 0.88 0  0.04 0.88 0  0.08 0.88 0  0.12 0.88 0  0.16 0.88 0  0.2 0.88 0  0.24 0.88 0  0.28 0.88 0  0.32 0.88 0  0.36 0.88 0  0.4 0.88 0  0.44 0.88 0  0.48 0.88 0  0.52 0.88 0  0.5600000000000001 0.88 0  0.6 0.88 0  0.64 0.88 0  0.68 0.88 0  0.72 0.88 0  0.76 0.88 0  0.8 0.88 0  0.84 0.88 0  0.88 0.88 0  0.92 0.88 0  0.96 0.88 0  1 0.88 0  0 0.92 0  0.04 0.92 0  0.08 0.92 0  0.12 0.92 0  0.16 0.92 0  0.2 0.92 0  0.24 0.92 0  0.28 0.92 0  0.32 0.92 0  0.36 0.92 0  0.4 0.92 0  0.44 0.92 0  0.48 0.92 0  0.52 0.92 0  0.5600000000000001 0.92 0  0.6 0.92 0  0.64 0.92 0  0.68 0.92 0  0.72 0.92 0  0.76 0.92 0  0.8 0.92 0  0.84 0.92 0  0.88 0.92 0  0.92 0.92 0  0.96 0.92 0  1 0.92 0  0 0.96 0  0.04 0.96 0  0.08 0.96 0  0.12 0.96 0  0.16 0.96 0  0.2 0.96 0  0.24 0.96 0  0.28 0.96 0  0.32 0.96 0  0.36 0.96 0  0.4 0.96 0  0.44 0.96 0  0.48 0.96 0  0.52 0.96 0  0.5600000000000001 0.96 0  0.6 0.96 0  0.64 0.96 0  0.68 0.96 0  0.72 0.96 0  0.76 0.96 0  0.8 0.96 0  0.84 0.96 0  0.88 0.96 0  0.92 0.96 0  0.96 0.96 0  1 0.96 0  0 1 0  0.04 1 0  0.08 1 0  0.12 1 0  0.16 1 0  0.2 1 0  0.24 1 0  0.28 1 0  0.32 1 0  0.36 1 0  0.4 1 0  0.44 1 0  0.48 1 0  0.52 1 0  0.5600000000000001 1 0  0.6 1 0  0.64 1 0  0.68 1 0  0.72 1 0  0.76 1 0  0.8 1 0  0.84 1 0  0.88 1 0  0.92 1 0  0.96 1 0  1 1 0  </DataArray>
</Points>
<Cells>
[...]
<PointData  Scalars="Indicator Function"> 
<DataArray  type="Float64"  Name="Indicator Function"  format="ascii">-1.4993586784608014e-20  -7.5305946029216594e-19  1.3513480749095560e-17  1.3732466384821635e-17  -5.8570398824236665e-19  -1.0075995179852875e-19  -6.9699227336084388e-20  -2.0964274345290580e-18  -8.1392051584615527e-18  -4.2781493748397826e-19  3.1982479392587224e-17  7.6188054923461243e-18  -2.4074124304840448e-35  -2.6481536735324493e-34  2.2995777666871975e-17  0.0000000000000000e+00  -4.5138983071575840e-36  6.0384030530551726e-19  0.0000000000000000e+00  -9.3881807162707794e-21  2.2810683995354097e-19  -8.4319214314354755e-21  -5.3294594185574460e-21  1.5948663615432187e-19  -3.7615819226313200e-37  7.5231638452626401e-37  -7.9223744081681477e-21  2.7010044742443149e-04  2.5708824932687961e-03  1.1707817929841860e-02  8.0948211652668819e-05  3.6302598509897806e-03  2.5111793140702859e-03  1.0226237731179347e-02  5.5642902555240086e-03  1.2125843248429261e-02  1.6439071479308525e-03  1.1457326280829315e-02  5.1158320569126229e-03  1.4609100503847135e-03  7.4805709310929046e-04  8.4835198576609203e-04  4.6101871298710631e-04  2.8704632819697193e-04  3.1697350799918694e-05  3.3824485740386988e-04  8.3064191237912963e-06  1.4260670600358904e-04  8.0592639864725864e-05  5.5710685873642264e-05  2.9368976646242156e-06  3.3854237303681880e-36  -2.3747637462669432e-19  1.4271680973006068e-04  3.5277399069154591e-04  4.0872668265456618e-03  1.8161398264569407e-02  4.3545230328870333e-03  1.9550615581217106e-02  1.8821696127179922e-02  3.4868267546351736e-02  1.1610847786239745e-03  1.6967738993608719e-02  8.3409398004546682e-03  2.2273032487684783e-02  5.1952880503865738e-04  2.3700269098206731e-03  2.6570453043271349e-03  1.5989426391878553e-03  1.0377833721443882e-03  4.0380555888688705e-04  2.5399684096902335e-04  6.7308175238011564e-04  3.8244242567945678e-05  4.1164532845863332e-04  5.5563713755857840e-05  7.7181108599571913e-05  5.7589766516925833e-21  -7.1165241597712615e-20  4.2779940491123091e-03  5.4855201144753361e-03  5.9135094137224148e-03  3.0466098427115666e-02  3.7605863375799989e-03  6.3848884036386269e-03  1.5933716454047077e-03  2.0349469146005526e-02  1.6891264482452806e-02  3.1076181616780756e-02  6.3203879981833400e-03  3.2715826726533580e-02  1.6905808593920088e-02  6.1822083137271508e-03  5.6010332800625322e-03  4.9959350542258408e-03  2.4401420748671569e-03  1.5017405934119657e-03  3.8559137261717682e-04  7.6508442139340538e-04  3.4334230865994418e-04  2.4293171632004107e-04  4.9804039845146057e-04  6.7004173787098953e-05  -9.2986970605527813e-21  -3.7076618166831217e-19  2.9603935094496738e-03  2.4951277612839176e-03  2.7188199543377884e-03  9.0727889825483984e-04  4.2343098430758244e-02  4.6710404488763107e-03  4.6359341109629769e-02  3.5444086787722137e-02  8.4798718745633980e-02  1.0780980914650937e-02  4.7983705364872321e-02  3.0819763841302240e-02  6.5092924564020924e-02  1.4577928552028684e-02  1.3349248948770825e-02  1.1717185261345858e-02  7.3735199896499490e-03  3.8314273423028337e-03  1.7669131292477078e-03  4.6529154574060868e-04  8.9790788946834585e-04  6.8016782337713974e-05  4.9557431939263109e-04  3.1464510311719204e-04  7.8598403564909138e-20  -1.6851887013388314e-34  8.4394464648918106e-03  6.7102333240090448e-03  3.7862051811858475e-03  4.2636252597475751e-03  5.7920431851498845e-02  1.8953763200892679e-02  1.3484757961943913e-02  1.0139956736792384e-02  6.1403931442260321e-02  6.8984859098747020e-02  1.2281575153217940e-01  7.0259248454327239e-02  1.1057189232306712e-01  7.1818736271178366e-02  3.9824836416238699e-02  2.6812600204540727e-02  1.7632480760873284e-02  8.2580072420036961e-03  4.0760137960210068e-03  1.3865664426101999e-03  7.4911101747057599e-04  2.8043571858224215e-04  1.5951106728702658e-04  3.5443078458432143e-04  -1.9674860884073626e-20  2.4074124304840448e-35  1.1814676357613839e-02  6.8613800572369689e-03  6.7430419735343477e-03  4.4395869505154031e-03  2.4046232683453784e-02  1.2345651209409546e-01  1.7509006963407469e-02  1.3010329073786181e-01  1.2226848669683578e-02  2.5542367214395140e-01  9.7206589804161109e-02  1.5925424663664817e-01  1.6709293464991745e-01  2.0058271942537942e-01  8.4987516686368711e-02  4.3001750061800785e-02  2.9155906542689475e-02  1.7496041905528111e-02  8.4079462858294950e-03  3.6582181339018397e-03  1.0284695970114619e-03  6.5839872632575066e-04  2.2742489811636033e-04  3.1594651173532064e-05  3.6111186457260672e-35  4.7546395502059885e-34  8.4061201835467902e-03  2.9103844543661717e-03  1.5673115068647381e-02  2.7225274763795472e-02  2.0569110980353005e-02  9.8775088940567662e-02  2.5192127928666519e-03  1.1168571424128050e-01  7.7337837193140260e-02  6.0967011949529817e-02  1.9553239583202178e-02  2.8304727136466368e-01  2.4064582351588589e-02  2.7006620857957347e-01  3.1985069157727686e-01  7.8853085182196674e-03  3.8278782670576182e-02  3.6252773593581943e-02  1.8416162943733352e-02  8.0621021120895319e-03  2.7887437449601671e-03  1.1845402832168959e-03  1.8245318195151902e-04  2.3444379680363556e-04  1.7021736833860891e-20  -1.9259299443872359e-34  1.4839350744912719e-02  1.2699752684932990e-02  2.7785388173245215e-03  1.3329983692612974e-02  3.7253691816483893e-02  5.8614407799337111e-02  9.3858948668519307e-02  1.4526052089989852e-01  1.9851914575852775e-01  7.0732662793192097e-02  1.4281543084084702e-01  1.9859195997183769e-02  9.3039526139341175e-02  1.7740241428819272e-02  6.5158079823909962e-02  5.5796354297577032e-02  3.0823719380891842e-02  5.8549352170102979e-02  3.4447440434492084e-02  1.5799528871145403e-02  6.3032064367888338e-03  2.0539818711118184e-03  9.3779070850350118e-04  9.9083690358421704e-06  2.7501248600178808e-22  -9.7107600457259944e-20  1.9662585455945598e-03  1.0387244258326782e-02  2.9050262333618820e-02  5.8600316142231344e-02  4.8419270950156690e-02  2.5960166800425913e-02  1.4071754749709081e-01  3.0155620087950968e-01  6.2988566944732441e-02  4.9957031779505764e-02  2.0535197198772316e-02  8.2836321042388625e-02  7.2850297597621669e-02  3.3673694221358755e-02  4.1090313857630616e-02  8.5400209064935714e-02  5.4285037867687659e-02  3.6351778634813599e-02  4.8538519999711364e-02  2.6112730668048027e-02  1.0909469327771835e-02  3.5396528486585483e-03  1.6718737909809994e-03  4.3187961277218030e-04  1.2037062152420224e-35  1.2037062152420224e-34  2.5097548732341680e-03  4.0796476786059141e-03  9.3600379836795175e-04  1.9026091239781735e-02  7.9416546808795771e-02  2.6479563804867295e-01  9.2375730176348328e-02  1.2222567332307561e-01  3.5677433481125335e-02  4.1722592080239318e-02  2.4872203891976585e-02  5.5764789473357827e-02  5.2245983005445411e-02  6.9144909683720959e-02  2.3465061474218559e-02  9.9932817618196654e-02  8.3386939876257435e-02  5.3407903835878533e-02  5.0975725572332868e-02  3.1588904927758336e-02  1.5404631851223607e-02  5.7919186147970779e-03  1.8184083051001308e-03  7.2676669051935871e-04  2.3886045208708882e-34  -1.2638915260041235e-34  2.3242581744200657e-03  4.4736359423589779e-04  1.7881846643932043e-02  3.2812864666277274e-02  6.9463029995447623e-02  6.5864782369769156e-02  3.3571942469593041e-01  4.4169242139053759e-02  7.4077693578545297e-03  1.7207237790828257e-02  1.0550373136929000e-03  1.0254971615275533e-03  7.4586870030047533e-02  6.6141408238927182e-02  1.7492037764532391e-02  4.9998069958331774e-02  1.8047697051084502e-01  1.9612913702578569e-01  1.5963803770269923e-02  2.0737134554237990e-02  1.5969839020432058e-02  7.5952148451808883e-03  1.9252989108366663e-03  1.0086112392594234e-03  -1.9259299443872359e-34  -1.7237741109057806e-19  8.3422786540374733e-03  6.8097424482227867e-03  4.6254565269376506e-03  2.1310799370506523e-02  8.9028305696333035e-02  1.3541078728352504e-01  2.4769404942041062e-02  1.1624673220652017e-01  4.8723111523170486e-02  1.0052037505915882e-02  2.9735925161789644e-02  1.3514078620198598e-02  5.1680789178365320e-02  5.2887285598518470e-02  8.1788952126681178e-02  3.0809408392792496e-02  1.1502449975401455e-01  1.4306980603257682e-01  3.3037217491431736e-01  1.4249266949400503e-02  8.9794259130134783e-03  7.6461364496303499e-03  2.9465622214717765e-03  8.6747804746394638e-04  2.4074124304840448e-35  -7.2222372914521344e-35  3.1052753774184734e-03  1.0570189805652499e-02  2.1050621215361425e-02  4.3014300187849915e-02  6.6501713201911866e-02  1.1367679980236334e-01  1.8847974893156344e-01  5.6538242330928370e-02  6.9862331894207860e-02  3.3226869833159922e-02  7.1507329126530069e-03  1.0101933063907274e-02  1.3583589328650275e-02  7.8325685885353602e-02  7.0795365785422268e-02  9.5209092329304103e-03  1.4896741571210834e-01  3.4359968015906600e-01  4.0529807141528908e-03  5.4180193357723561e-02  1.8262511383124007e-02  4.3117184747004465e-03  3.8014030199884901e-03  4.6626622521339590e-04  2.4074124304840448e-35  -1.5929818514334315e-20  2.2560464486400811e-03  2.1059265087008099e-03  5.8917480957009511e-03  2.6301313405753049e-02  8.9682894881797592e-02  1.6027258478493675e-01  9.0841333020070511e-02  8.5869437188763428e-02  9.6327833256448434e-02  4.6721562599962248e-02  5.0150254266531184e-02  8.7204280319603221e-03  2.2225164547917727e-02  7.7318250153342732e-02  1.3265766691901649e-02  6.8897756262344831e-02  4.4854970358448779e-02  1.8454387806778846e-01  5.2358903187690986e-01  4.9598411582646253e-02  1.6364084335626504e-03  1.1517314359563846e-02  1.9403957944862710e-03  7.2091833341139981e-04  3.4621368869812390e-19  -1.9494767114992681e-20  6.7067599216094629e-03  4.5330771110579241e-03  1.1071803061718004e-02  1.6568692292925943e-02  3.6706323120474109e-02  6.4577191137232690e-02  1.9061505140947843e-01  9.6257647521239664e-02  7.0179600787304272e-02  8.6236684437224029e-02  5.4979736804170322e-02  6.2535294985590337e-02  1.8819483141727485e-02  2.2308741584939548e-03  2.0803827898393293e-01  1.5032387363125857e-01  9.9526950360577807e-02  1.0056942045292568e-01  2.5412316104770935e-03  8.6486383207208237e-02  1.8889581096872957e-02  2.0982307142227482e-02  5.4936367003295388e-03  7.2755351775594384e-04  7.2222372914521344e-35  1.2037062152420224e-35  3.5118650365902212e-04  4.9569803736468484e-03  9.3010331194426834e-03  2.1654125566845730e-02  4.5346947915771388e-02  7.3828282365957315e-02  3.9936009011982819e-02  1.3732523100366417e-01  4.5541755011986637e-02  1.3417500628980691e-01  3.8130582291125599e-02  9.4967207735384626e-02  7.8138149640877216e-03  5.6185736095493218e-02  1.5068759400563977e-01  6.4623936978306804e-02  3.8197633239268636e-01  2.5655768259376321e-01  1.3413438355943288e-01  4.4506332176288382e-02  2.5179006928182094e-02  2.0857749613187589e-04  1.7014163585913542e-02  1.1321699186358138e-03  2.4074124304840448e-35  -1.5046327690525280e-35  9.3028465535563779e-04  1.5013470862917536e-03  1.3383879790527286e-03  9.2149961729418965e-03  2.5472194694544602e-02  6.1379009984682029e-02  1.0376725901925866e-01  2.7330296462228211e-02  1.6324886224444993e-01  1.6932464570820768e-01  1.8877173509556347e-01  1.1339332679141487e-01  9.8527606414464938e-02  3.6417264192218864e-02  1.1781709896156310e-01  3.5514591445786259e-01  9.8675320364739444e-02  6.1508171961083387e-02  3.6413950420706130e-02  4.7295883352759846e-02  4.2638884850644480e-02  1.1955605471838415e-02  1.1353509764917762e-02  9.0244806511830099e-03  -3.6111186457260672e-34  3.0092655381050560e-36  8.1726550614901134e-04  8.1230569043916248e-04  3.7380540025944214e-03  3.0169771733468105e-03  1.1116933867420235e-02  2.5010838279962120e-02  4.3765413365826990e-02  5.9314019668142079e-02  1.9516786364160130e-01  8.3348207021952544e-02  2.5485659902433250e-01  1.2733630039150809e-01  3.8158297259361673e-01  1.6045169629927472e-01  7.9683823439565163e-02  4.8449864442605345e-01  1.7316172744619332e-01  9.3227006155055803e-02  5.8993052294292525e-02  1.8945043561942928e-02  3.2410511029351101e-02  3.0734627841538072e-02  4.3916660121769242e-03  9.9440849238224670e-03  3.8518598887744717e-34  -6.7708474607363760e-36  5.9339951764799097e-04  6.9237109944367563e-04  4.1521601214059044e-04  3.5460634395509884e-03  6.5657402777737168e-03  1.5984037012588315e-02  2.8656001436284120e-02  2.8085498361324769e-02  3.2313535102441969e-02  7.9572607374986688e-03  4.4689894644977093e-02  3.4831416998218195e-01  9.4257867458190456e-03  4.1290951162146150e-01  3.1365003367549021e-01  7.3674952338899091e-02  8.0805562652839030e-02  6.0070433138918099e-02  5.5595480142091792e-02  3.7595107559101518e-02  3.1052480216659073e-02  2.8207353014588640e-02  1.8452499087230633e-02  6.3648410495822027e-04  -3.5331965406627274e-20  -3.9278245402396300e-21  5.8719351244930463e-04  1.1028120801492526e-03  2.7359701826236199e-04  2.4325296954074076e-03  2.9281995284821233e-03  7.9320743145127239e-03  1.6968527847580427e-02  2.6166784767955791e-02  2.4000596308993722e-02  8.5711458077329303e-04  2.0170880695167825e-02  9.9838138291099096e-02  1.9089001986605146e-02  9.2735331057089851e-02  5.4230375212904929e-03  7.5557936240617934e-02  9.1709439882800350e-03  3.3036654906842731e-02  4.7703175901735569e-02  1.5423859850424585e-02  2.0540660125339737e-02  2.5349864765026195e-02  2.1366314571333391e-02  5.3939042293193558e-03  5.0554864380955693e-19  -2.3553301580806199e-21  7.0757396543199482e-05  6.1100861237331884e-04  1.1743777960915504e-03  5.0397758801035315e-04  3.1737045258255349e-03  3.6940209986685161e-03  8.5258743846875033e-03  1.5065252776076621e-02  1.5965127589452680e-02  7.9265901061311254e-03  1.4681431512366599e-02  2.8036386947326214e-02  5.7203022994245074e-02  3.8491208290273297e-02  5.7426950177753282e-02  9.0125883068080635e-03  6.7341046630179708e-06  2.0411329471825265e-02  3.9899506232004320e-02  3.2154409595756182e-02  1.4099516499571753e-02  1.6039117764588221e-02  1.9035849780651381e-02  1.3583969650685521e-02  1.1555579666323415e-33  0.0000000000000000e+00  1.0709255796167148e-04  2.8622435201103844e-04  6.7663656141954041e-04  3.5682079793651991e-04  5.9575527743590195e-04  2.4595265905627147e-03  4.1052463698887497e-03  8.3306905478753752e-03  1.3133091128444590e-02  1.2300807714476210e-02  1.2876115703140428e-02  2.2471285908523472e-02  1.2754002006988526e-02  9.4245564457893626e-03  9.1307348459354458e-04  1.6171529126098007e-02  1.0421736942454098e-02  1.9393726291058278e-02  1.2414658574281454e-03  2.2162478020167915e-02  1.3996431212679929e-02  1.9337336374551779e-02  1.2860750591613854e-02  6.8910196987674397e-03  1.1555579666323415e-33  -5.6423728839469800e-37  3.0440206378442069e-05  4.6010853308077377e-05  2.7226759339395293e-04  6.4837502705358135e-04  1.0792610743586763e-04  1.2429447425637181e-03  1.7770855090024082e-03  3.5790341394215971e-03  6.7730673188082244e-03  9.1868833077047660e-03  4.5157116429902291e-03  7.7270864954766209e-03  1.7670145531599849e-02  1.7689627832884955e-02  2.4531699628374339e-02  6.0813775770081320e-03  1.3445109215986615e-03  4.0237138985591819e-03  2.8510159667230597e-04  9.3613138109842949e-03  6.1890899736392240e-03  4.4372407646466067e-03  1.1272986145247590e-02  7.2631595780476539e-03  -9.2444637330587321e-33  -2.3509887016445750e-38  2.8372139084952847e-05  6.1388543336239013e-05  9.2200500437162282e-05  2.1225916081265772e-04  3.3093050424908645e-04  2.0910151066543217e-04  9.0195887503046791e-04  1.3249930560572979e-03  2.5637271562037305e-03  4.6089198965395079e-03  5.9215797279690823e-03  9.5903721704048328e-04  3.5818934501767271e-03  7.4689686659551941e-03  4.1829189469518111e-03  2.0787890703218678e-02  4.1717979256006895e-03  3.4403534625356575e-03  1.1027728420214117e-03  1.3764474344955091e-02  3.8137225439824735e-03  2.1557415731727112e-03  1.0131160492656140e-02  3.6676604855896424e-03  -2.0359605588047499e-19  9.4039548065783001e-38  2.0688700574472260e-36  1.2037062152420224e-35  1.2413220344683356e-35  2.4074124304840448e-35  1.3541694921472752e-35  -1.1607465581233278e-20  2.9791728827240055e-34  -2.4074124304840448e-34  1.4444474582904269e-34  5.8379751439238087e-34  -5.7777898331617076e-34  -5.3237259991538265e-20  0.0000000000000000e+00  1.0958311161265443e-17  -2.3219864625233293e-19  -1.1539597446052293e-18  1.1579065277708279e-19  -1.9097798134779907e-19  -6.1216190007173871e-20  1.3904922073699694e-18  -2.1170412889306777e-19  -1.1966769648389900e-19  2.8119619112798664e-19  -2.0359605588047508e-19  -1.8766457485672072e-20  </DataArray> 
</PointData> 
</Piece>
</UnstructuredGrid>
</VTKFile>