<?xml version="1.0"?>
<VTKFile type="UnstructuredGrid"  version="0.1"  >
<UnstructuredGrid>
<Piece  NumberOfPoints="10201" NumberOfCells="20000">
<Points>
<DataArray  type="Float64"  NumberOfComponents="3"  format="ascii">0 0 0  0.01 0 0  0.02 0 0  0.03 0 0  0.04 0 0  0.05 0 0  0.06 0 0  0.07000000000000001 0 0  0.08 0 0  0.09 0 0  0.1 0 0  0.11 0 0  0.12 0 0  0.13 0 0  0.14 0 0  0.15 0 0  0.16 0 0  0.17 0 0  0.18 0 0  0.19 0 0  0.2 0 0  0.21 0 0  0.22 0 0  0.23 0 0  0.24 0 0  0.25 0 0  0.26 0 0  0.27 0 0  0.28 0 0  0.29 0 0  0.3 0 0  0.31 0 0  0.32 0 0  0.33 0 0  0.34 0 0  0.35 0 0  0.36 0 0  0.37 0 0  0.38 0 0  0.39 0 0  0.4 0 0  0.41 0 0  0.42 0 0  0.43 0 0  0.44 0 0  0.45 0 0  0.46 0 0  0.47 0 0  0.48 0 0  0.49 0 0  0.5 0 0  0.51 0 0  0.52 0 0  0.53 0 0  0.54 0 0  0.55 0 0  0.5600000000000001 0 0  0.57 0 0  0.58 0 0  0.59 0 0  0.6 0 0  0.61 0 0  0.62 0 0  0.63 0 0  0.64 0 0  0.65 0 0  0.66 0 0  0.67 0 0  0.68 0 0  0.6899999999999999 0 0  0.7 0 0  0.71 0 0  0.72 0 0  0.73 0 0  0.74 0 0  0.75 0 0  0.76 0 0  0.77 0 0  0.78 0 0  0.79 0 0  0.8 0 0  0.8100000000000001 0 0  0.82 0 0  0.83 0 0  0.84 0 0  0.85 0 0  0.86 0 0  0.87 0 0  0.88 0 0  0.89 0 0  0.9 0 0  0.91 0 0  0.92 0 0  0.93 0 0  0.9399999999999999 0 0  0.95 0 0  0.96 0 0  0.97 0 0  0.98 0 0  0.99 0 0  1 0 0  0 0.01 0  0.01 0.01 0  0.02 0.01 0  0.03 0.01 0  0.04 0.01 0  0.05 0.01 0  0.06 0.01 0  0.07000000000000001 0.01 0  0.08 0.01 0  0.09 0.01 0  0.1 0.01 0  0.11 0.01 0  0.12 0.01 0  0.13 0.01 0  0.14 0.01 0  0.15 0.01 0  0.16 0.01 0  0.17 0.01 0  0.18 0.01 0  0.19 0.01 0  0.2 0.01 0  0.21 0.01 0  0.22 0.01 0  0.23 0.01 0  0.24 0.01 0  0.25 0.01 0  0.26 0.01 0  0.27 0.01 0  0.28 0.01 0  0.29 0.01 0  0.3 0.01 0  0.31 0.01 0  0.32 0.01 0  0.33 0.01 0  0.34 0.01 0  0.35 0.01 0  0.36 0.01 0  0.37 0.01 0  0.38 0.01 0  0.39 0.01 0  0.4 0.01 0  0.41 0.01 0  0.42 0.01 0  0.43 0.01 0  0.44 0.01 0  0.45 0.01 0  0.46 0.01 0  0.47 0.01 0  0.48 0.01 0  0.49 0.01 0  0.5 0.01 0  0.51 0.01 0  0.52 0.01 0  0.53 0.01 0  0.54 0.01 0  0.55 0.01 0  0.5600000000000001 0.01 0  0.57 0.01 0  0.58 0.01 0  0.59 0.01 0  0.6 0.01 0  0.61 0.01 0  0.62 0.01 0  0.63 0.01 0  0.64 0.01 0  0.65 0.01 0  0.66 0.01 0  0.67 0.01 0  0.68 0.01 0  0.6899999999999999 0.01 0  0.7 0.01 0  0.71 0.01 0  0.72 0.01 0  0.73 0.01 0  0.74 0.01 0  0.75 0.01 0  0.76 0.01 0  0.77 0.01 0  0.78 0.01 0  0.79 0.01 0  0.8 0.01 0  0.8100000000000001 0.01 0  0.82 0.01 0  0.83 0.01 0  0.84 0.01 0  0.85 0.01 0  0.86 0.01 0  0.87 0.01 0  0.88 0.01 0  0.89 0.01 0  0.9 0.01 0  0.91 0.01 0  0.92 0.01 0  0.93 0.01 0  0.9399999999999999 0.01 0  0.95 0.01 0  0.96 0.01 0  0.97 0.01 0  0.98 0.01 0  0.99 0.01 0  1 0.01 0  0 0.02 0  0.01 0.02 0  0.02 0.02 0  0.03 0.02 0  0.04 0.02 0  0.05 0.02 0  0.06 0.02 0  0.07000000000000001 0.02 0  0.08 0.02 0  0.09 0.02 0  0.1 0.02 0  0.11 0.02 0  0.12 0.02 0  0.13 0.02 0  0.14 0.02 0  0.15 0.02 0  0.16 0.02 0  0.17 0.02 0  0.18 0.02 0  0.19 0.02 0  0.2 0.02 0  0.21 0.02 0  0.22 0.02 0  0.23 0.02 0  0.24 0.02 0  0.25 0.02 0  0.26 0.02 0  0.27 0.02 0  0.28 0.02 0  0.29 0.02 0  0.3 0.02 0  0.31 0.02 0  0.32 0.02 0  0.33 0.02 0  0.34 0.02 0  0.35 0.02 0  0.36 0.02 0  0.37 0.02 0  0.38 0.02 0  0.39 0.02 0  0.4 0.02 0  0.41 0.02 0  0.42 0.02 0  0.43 0.02 0  0.44 0.02 0  0.45 0.02 0  0.46 0.02 0  0.47 0.02 0  0.48 0.02 0  0.49 0.02 0  0.5 0.02 0  0.51 0.02 0  0.52 0.02 0  0.53 0.02 0  0.54 0.02 0  0.55 0.02 0  0.5600000000000001 0.02 0  0.57 0.02 0  0.58 0.02 0  0.59 0.02 0  0.6 0.02 0  0.61 0.02 0  0.62 0.02 0  0.63 0.02 0  0.64 0.02 0  0.65 0.02 0  0.66 0.02 0  0.67 0.02 0  0.68 0.02 0  0.6899999999999999 0.02 0  0.7 0.02 0  0.71 0.02 0  0.72 0.02 0  0.73 0.02 0  0.74 0.02 0  0.75 0.02 0  0.76 0.02 0  0.77 0.02 0  0.78 0.02 0  0.79 0.02 0  0.8 0.02 0  0.8100000000000001 0.02 0  0.82 0.02 0  0.83 0.02 0  0.84 0.02 0  0.85 0.02 0  0.86 0.02 0  0.87 0.02 0  0.88 0.02 0  0.89 0.02 0  0.9 0.02 0  0.91 0.02 0  0.92 0.02 0  0.93 0.02 0  0.9399999999999999 0.02 0  0.95 0.02 0  0.96 0.02 0  0.97 0.02 0  0.98 0.02 0  0.99 0.02 0  1 0.02 0  0 0.03 0  0.01 0.03 0  0.02 0.03 0  0.03 0.03 0  0.04 0.03 0  0.05 0.03 0  0.06 0.03 0  0.07000000000000001 0.03 0  0.08 0.03 0  0.09 0.03 0  0.1 0.03 0  0.11 0.03 0  0.12 0.03 0  0.13 0.03 0  0.14 0.03 0  0.15 0.03 0  0.16 0.03 0  0.17 0.03 0  0.18 0.03 0  0.19 0.03 0  0.2 0.03 0  0.21 0.03 0  0.22 0.03 0  0.23 0.03 0  0.24 0.03 0  0.25 0.03 0  0.26 0.03 0  0.27 0.03 0  0.28 0.03 0  0.29 0.03 0  0.3 0.03 0  0.31 0.03 0  0.32 0.03 0  0.33 0.03 0  0.34 0.03 0  0.35 0.03 0  0.36 0.03 0  0.37 0.03 0  0.38 0.03 0  0.39 0.03 0  0.4 0.03 0  0.41 0.03 0  0.42 0.03 0  0.43 0.03 0  0.44 0.03 0  0.45 0.03 0  0.46 0.03 0  0.47 0.03 0  0.48 0.03 0  0.49 0.03 0  0.5 0.03 0  0.51 0.03 0  0.52 0.03 0  0.53 0.03 0  0.54 0.03 0  0.55 0.03 0  0.5600000000000001 0.03 0  0.57 0.03 0  0.58 0.03 0  0.59 0.03 0  0.6 0.03 0  0.61 0.03 0  0.62 0.03 0  0.63 0.03 0  0.64 0.03 0  0.65 0.03 0  0.66 0.03 0  0.67 0.03 0  0.68 0.03 0  0.6899999999999999 0.03 0  0.7 0.03 0  0.71 0.03 0  0.72 0.03 0  0.73 0.03 0  0.74 0.03 0  0.75 0.03 0  0.76 0.03 0  0.77 0.03 0  0.78 0.03 0  0.79 0.03 0  0.8 0.03 0  0.8100000000000001 0.03 0  0.82 0.03 0  0.83 0.03 0  0.84 0.03 0  0.85 0.03 0  0.86 0.03 0  0.87 0.03 0  0.88 0.03 0  0.89 0.03 0  0.9 0.03 0  0.91 0.03 0  0.92 0.03 0  0.93 0.03 0  0.9399999999999999 0.03 0  0.95 0.03 0  0.96 0.03 0  0.97 0.03 0  0.98 0.03 0  0.99 0.03 0  1 0.03 0  0 0.04 0  0.01 0.04 0  0.02 0.04 0  0.03 0.04 0  0.04 0.04 0  0.05 0.04 0  0.06 0.04 0  0.07000000000000001 0.04 0  0.08 0.04 0  0.09 0.04 0  0.1 0.04 0  0.11 0.04 0  0.12 0.04 0  0.13 0.04 0  0.14 0.04 0  0.15 0.04 0  0.16 0.04 0  0.17 0.04 0  0.18 0.04 0  0.19 0.04 0  0.2 0.04 0  0.21 0.04 0  0.22 0.04 0  0.23 0.04 0  0.24 0.04 0  0.25 0.04 0  0.26 0.04 0  0.27 0.04 0  0.28 0.04 0  0.29 0.04 0  0.3 0.04 0  0.31 0.04 0  0.32 0.04 0  0.33 0.04 0  0.34 0.04 0  0.35 0.04 0  0.36 0.04 0  0.37 0.04 0  0.38 0.04 0  0.39 0.04 0  0.4 0.04 0  0.41 0.04 0  0.42 0.04 0  0.43 0.04 0  0.44 0.04 0  0.45 0.04 0  0.46 0.04 0  0.47 0.04 0  0.48 0.04 0  0.49 0.04 0  0.5 0.04 0  0.51 0.04 0  0.52 0.04 0  0.53 0.04 0  0.54 0.04 0  0.55 0.04 0  0.5600000000000001 0.04 0  0.57 0.04 0  0.58 0.04 0  0.59 0.04 0  0.6 0.04 0  0.61 0.04 0  0.62 0.04 0  0.63 0.04 0  0.64 0.04 0  0.65 0.04 0  0.66 0.04 0  0.67 0.04 0  0.68 0.04 0  0.6899999999999999 0.04 0  0.7 0.04 0  0.71 0.04 0  0.72 0.04 0  0.73 0.04 0  0.74 0.04 0  0.75 0.04 0  0.76 0.04 0  0.77 0.04 0  0.78 0.04 0  0.79 0.04 0  0.8 0.04 0  0.8100000000000001 0.04 0  0.82 0.04 0  0.83 0.04 0  0.84 0.04 0  0.85 0.04 0  0.86 0.04 0  0.87 0.04 0  0.88 0.04 0  0.89 0.04 0  0.9 0.04 0  0.91 0.04 0  0.92 0.04 0  0.93 0.04 0  0.9399999999999999 0.04 0  0.95 0.04 0  0.96 0.04 0  0.97 0.04 0  0.98 0.04 0  0.99 0.04 0  1 0.04 0  0 0.05 0  0.01 0.05 0  0.02 0.05 0  0.03 0.05 0  0.04 0.05 0  0.05 0.05 0  0.06 0.05 0  0.07000000000000001 0.05 0  0.08 0.05 0  0.09 0.05 0  0.1 0.05 0  0.11 0.05 0  0.12 0.05 0  0.13 0.05 0  0.14 0.05 0  0.15 0.05 0  0.16 0.05 0  0.17 0.05 0  0.18 0.05 0  0.19 0.05 0  0.2 0.05 0  0.21 0.05 0  0.22 0.05 0  0.23 0.05 0  0.24 0.05 0  0.25 0.05 0  0.26 0.05 0  0.27 0.05 0  0.28 0.05 0  0.29 0.05 0  0.3 0.05 0  0.31 0.05 0  0.32 0.05 0  0.33 0.05 0  0.34 0.05 0  0.35 0.05 0  0.36 0.05 0  0.37 0.05 0  0.38 0.05 0  0.39 0.05 0  0.4 0.05 0  0.41 0.05 0  0.42 0.05 0  0.43 0.05 0  0.44 0.05 0  0.45 0.05 0  0.46 0.05 0  0.47 0.05 0  0.48 0.05 0  0.49 0.05 0  0.5 0.05 0  0.51 0.05 0  0.52 0.05 0  0.53 0.05 0  0.54 0.05 0  0.55 0.05 0  0.5600000000000001 0.05 0  0.57 0.05 0  0.58 0.05 0  0.59 0.05 0  0.6 0.05 0  0.61 0.05 0  0.62 0.05 0  0.63 0.05 0  0.64 0.05 0  0.65 0.05 0  0.66 0.05 0  0.67 0.05 0  0.68 0.05 0  0.6899999999999999 0.05 0  0.7 0.05 0  0.71 0.05 0  0.72 0.05 0  0.73 0.05 0  0.74 0.05 0  0.75 0.05 0  0.76 0.05 0  0.77 0.05 0  0.78 0.05 0  0.79 0.05 0  0.8 0.05 0  0.8100000000000001 0.05 0  0.82 0.05 0  0.83 0.05 0  0.84 0.05 0  0.85 0.05 0  0.86 0.05 0  0.87 0.05 0  0.88 0.05 0  0.89 0.05 0  0.9 0.05 0  0.91 0.05 0  0.92 0.05 0  0.93 0.05 0  0.9399999999999999 0.05 0  0.95 0.05 0  0.96 0.05 0  0.97 0.05 0  0.98 0.05 0  0.99 0.05 0  1 0.05 0  0 0.06 0  0.01 0.06 0  0.02 0.06 0  0.03 0.06 0  0.04 0.06 0  0.05 0.06 0  0.06 0.06 0  0.07000000000000001 0.06 0  0.08 0.06 0  0.09 0.06 0  0.1 0.06 0  0.11 0.06 0  0.12 0.06 0  0.13 0.06 0  0.14 0.06 0  0.15 0.06 0  0.16 0.06 0  0.17 0.06 0  0.18 0.06 0  0.19 0.06 0  0.2 0.06 0  0.21 0.06 0  0.22 0.06 0  0.23 0.06 0  0.24 0.06 0  0.25 0.06 0  0.26 0.06 0  0.27 0.06 0  0.28 0.06 0  0.29 0.06 0  0.3 0.06 0  0.31 0.06 0  0.32 0.06 0  0.33 0.06 0  0.34 0.06 0  0.35 0.06 0  0.36 0.06 0  0.37 0.06 0  0.38 0.06 0  0.39 0.06 0  0.4 0.06 0  0.41 0.06 0  0.42 0.06 0  0.43 0.06 0  0.44 0.06 0  0.45 0.06 0  0.46 0.06 0  0.47 0.06 0  0.48 0.06 0  0.49 0.06 0  0.5 0.06 0  0.51 0.06 0  0.52 0.06 0  0.53 0.06 0  0.54 0.06 0  0.55 0.06 0  0.5600000000000001 0.06 0  0.57 0.06 0  0.58 0.06 0  0.59 0.06 0  0.6 0.06 0  0.61 0.06 0  0.62 0.06 0  0.63 0.06 0  0.64 0.06 0  0.65 0.06 0  0.66 0.06 0  0.67 0.06 0  0.68 0.06 0  0.6899999999999999 0.06 0  0.7 0.06 0  0.71 0.06 0  0.72 0.06 0  0.73 0.06 0  0.74 0.06 0  0.75 0.06 0  0.76 0.06 0  0.77 0.06 0  0.78 0.06 0  0.79 0.06 0  0.8 0.06 0  0.8100000000000001 0.06 0  0.82 0.06 0  0.83 0.06 0  0.84 0.06 0  0.85 0.06 0  0.86 0.06 0  0.87 0.06 0  0.88 0.06 0  0.89 0.06 0  0.9 0.06 0  0.91 0.06 0  0.92 0.06 0  0.93 0.06 0  0.9399999999999999 0.06 0  0.95 0.06 0  0.96 0.06 0  0.97 0.06 0  0.98 0.06 0  0.99 0.06 0  1 0.06 0  0 0.07000000000000001 0  0.01 0.07000000000000001 0  0.02 0.07000000000000001 0  0.03 0.07000000000000001 0  0.04 0.07000000000000001 0  0.05 0.07000000000000001 0  0.06 0.07000000000000001 0  0.07000000000000001 0.07000000000000001 0  0.08 0.07000000000000001 0  0.09 0.07000000000000001 0  0.1 0.07000000000000001 0  0.11 0.07000000000000001 0  0.12 0.07000000000000001 0  0.13 0.07000000000000001 0  0.14 0.07000000000000001 0  0.15 0.07000000000000001 0  0.16 0.07000000000000001 0  0.17 0.0700
[...]
<PointData  Scalars="u"> 
<DataArray  type="Float64"  Name="u"  format="ascii">0.0000000000000000e+00  0.0000000000000000e+00  0.0000000000000000e+00  0.0000000000000000e+00  0.0000000000000000e+00  0.0000000000000000e+00  0.0000000000000000e+00  0.0000000000000000e+00  0.0000000000000000e+00  0.0000000000000000e+00  0.0000000000000000e+00  0.0000000000000000e+00  0.0000000000000000e+00  0.0000000000000000e+00  0.0000000000000000e+00  0.0000000000000000e+00  0.0000000000000000e+00  0.0000000000000000e+00  0.0000000000000000e+00  0.0000000000000000e+00  0.0000000000000000e+00  0.0000000000000000e+00  0.0000000000000000e+00  0.0000000000000000e+00  0.0000000000000000e+00  0.0000000000000000e+00  0.0000000000000000e+00  0.0000000000000000e+00  0.0000000000000000e+00  0.0000000000000000e+00  0.0000000000000000e+00  0.0000000000000000e+00  0.0000000000000000e+00  0.0000000000000000e+00  0.0000000000000000e+00  0.0000000000000000e+00  0.0000000000000000e+00  0.0000000000000000e+00  0.0000000000000000e+00  0.0000000000000000e+00  0.0000000000000000e+00  0.0000000000000000e+00  0.0000000000000000e+00  0.0000000000000000e+00  0.0000000000000000e+00  0.0000000000000000e+00  0.0000000000000000e+00  0.0000000000000000e+00  0.0000000000000000e+00  0.0000000000000000e+00  0.0000000000000000e+00  0.0000000000000000e+00  0.0000000000000000e+00  0.0000000000000000e+00  0.0000000000000000e+00  0.0000000000000000e+00  0.0000000000000000e+00  0.0000000000000000e+00  0.0000000000000000e+00  0.0000000000000000e+00  0.0000000000000000e+00  0.0000000000000000e+00  0.0000000000000000e+00  0.0000000000000000e+00  0.0000000000000000e+00  0.0000000000000000e+00  0.0000000000000000e+00  0.0000000000000000e+00  0.0000000000000000e+00  0.0000000000000000e+00  0.0000000000000000e+00  0.0000000000000000e+00  0.0000000000000000e+00  0.0000000000000000e+00  0.0000000000000000e+00  0.0000000000000000e+00  0.0000000000000000e+00  0.0000000000000000e+00  0.0000000000000000e+00  0.0000000000000000e+00  0.0000000000000000e+00  0.0000000000000000e+00  0.0000000000000000e+00  0.0000000000000000e+00  0.0000000000000000e+00  0.0000000000000000e+00  0.0000000000000000e+00  0.0000000000000000e+00  0.0000000000000000e+00  0.0000000000000000e+00  0.0000000000000000e+00  0.0000000000000000e+00  0.0000000000000000e+00  0.0000000000000000e+00  0.0000000000000000e+00  0.0000000000000000e+00  0.0000000000000000e+00  0.0000000000000000e+00  0.0000000000000000e+00  0.0000000000000000e+00  0.0000000000000000e+00  0.0000000000000000e+00  -1.4588884209835512e-02  -2.5427959418517332e-02  -4.6933247513829207e-03  -1.0524635365908570e-02  4.7525808273667213e-03  -9.8836794175035107e-04  -1.2441468636110517e-02  1.3891993719005567e-02  -2.1536101631109972e-02  -1.0429960636121685e-03  2.2437258193459462e-02  -9.5489547709313657e-03  -3.0120395515599706e-02  2.8305588327270891e-02  -1.2961588515256587e-02  2.9195995806574177e-03  2.2901220942130540e-02  -1.8920581906931397e-02  3.1796941176053153e-02  -3.1852542778965133e-02  2.5757721821569764e-02  -2.7226842317585175e-02  1.6033774576626303e-02  -1.0359364184890772e-02  2.5171799245394137e-02  -3.1952732325484554e-02  2.5154647486617523e-02  -4.9518366252987011e-03  -1.0409968782687096e-02  8.6555387374658947e-03  3.0994755830780572e-02  -4.8740275837745310e-02  1.2642218025138464e-02  5.3233850202309713e-03  1.4335764519817039e-02  1.4401026220345182e-02  2.8900262105680573e-03  -7.5744427255542883e-03  -2.1709897755812450e-02  -3.5104364773467026e-02  -2.6403638930419880e-02  -9.9627599541958940e-03  -4.1586193980279107e-03  1.4298479525166982e-02  2.1790860901777013e-02  -3.4974473244120730e-02  2.0738407801278707e-02  -7.4777442147311319e-03  6.6214491962385946e-03  -5.1495459558820759e-03  7.9810198323448742e-03  -1.6904956062775763e-03  -6.1550393647102873e-03  -2.6270831250537570e-04  5.7872182302578113e-03  1.5505815302823470e-03  -2.3013370296644364e-03  1.5997635298162425e-03  -1.8996345175703638e-03  8.3585538207301866e-04  8.2207082145310882e-04  -1.6620610695518006e-03  1.1316751911391921e-03  1.0433848405985706e-03  1.7340107180965864e-04  -9.1611216919467849e-05  -1.0618836008893808e-03  4.8694757817712174e-04  5.6889258971864120e-04  -1.5556953938351194e-04  -5.1042482476758029e-04  1.5897208896315201e-04  -3.1272409250822407e-04  -6.1841501283260150e-04  -2.7519885639607931e-04  9.8125325451645486e-04  6.8018963360751258e-04  1.8931542103153964e-04  -3.2930770882334055e-04  -1.4262786460108670e-04  -4.7934233863025297e-04  -8.5046407354119944e-05  7.6269101901158031e-04  2.1424546088628826e-04  -3.5989359989568517e-04  -3.1826400653522881e-04  -1.9798300327293123e-04  4.1460449794313128e-04  -1.3194586302768505e-04  -4.1702795347639039e-04  1.5722693980947723e-04  9.0701125769549886e-06  -1.0408481579731375e-04  4.4621668593550266e-05  8.2843694349920747e-05  7.6854481406105063e-05  1.0495546879522158e-04  8.1905141257219744e-05  2.3924960383316335e-06  0.0000000000000000e+00  0.0000000000000000e+00  -1.8298311499700968e-03  -7.3464987783708295e-03  9.5473840184401877e-03  -9.6306607002892529e-03  -2.9705470550011645e-02  5.6677502542097028e-03  1.3911297203368467e-02  -1.6082257281165580e-02  -3.0683974731349432e-02  4.4133883416505600e-02  -3.7956478030769035e-02  -3.4865457363093401e-03  3.8796183045891809e-02  -5.1769938470778189e-02  -1.4468941702315106e-02  4.9672562906664719e-02  -3.5227951545644863e-02  3.9924526145981548e-02  -3.8124796523437677e-03  -1.6208547047871535e-03  2.6920594849560407e-02  -5.7874319467929571e-02  5.1977184272109581e-02  -2.7079907489650952e-02  3.8020920217056516e-03  1.4416409972676167e-02  -2.9802557014466942e-02  5.3798237039960679e-02  -3.9086835051071751e-02  -3.2091052749144366e-02  7.6134283973054245e-02  -9.9593060888716473e-03  -3.7850950584703398e-02  8.2055157560818621e-04  9.4658412819354013e-03  3.6723890693768343e-02  2.6197443518864258e-02  6.7087472806002142e-03  -2.0472131079267465e-02  -9.3512246720387857e-03  -4.1050578290983811e-02  -5.9470521187214666e-02  1.5899480393746480e-03  -1.8171838464612648e-03  4.4551500070753550e-02  -1.9289755648939890e-02  1.1366896298810251e-03  -1.3777802388827670e-02  2.2995932442857438e-02  -1.6988870209037939e-02  1.2679734744825182e-02  2.3160249209056355e-03  -2.7236405993425624e-03  -1.2713561447850678e-02  7.9518624204588158e-03  7.4860208695994822e-03  -1.8984329967632733e-03  -1.0741189661935401e-03  1.1007417189192862e-03  -3.2303602540139737e-03  4.1697782981677889e-03  -1.8882751177320524e-03  -1.2873157242747689e-03  3.2600496463167797e-03  5.9278251351374382e-04  7.2540420570214750e-04  -1.5457471407802985e-03  -6.8447085725018074e-04  1.4280168936956056e-03  6.3237825282620003e-04  -9.4715022887952493e-04  -2.6694979885490713e-04  1.8242580495736235e-04  -1.0037991221554022e-03  -1.0859789874846954e-03  5.6206612753323588e-04  1.8556821648364561e-03  8.9477606789278125e-04  -2.7227863835658443e-04  -5.8002349297632733e-04  -1.3275533608130271e-04  -1.0958630213964990e-03  8.5942478168000470e-04  1.2412122488069421e-03  -3.7770272727783648e-04  -3.6635320527786543e-04  -1.0080753638791328e-03  6.0397224028647424e-04  1.7074770368809449e-04  -5.7942737511211876e-04  -3.7523942045339159e-04  4.8653582281266985e-04  -7.4447760350452208e-04  4.3422773624440662e-04  -2.4593251584972473e-04  1.2842983693346502e-04  8.9794588052370986e-05  1.5164898882137775e-04  1.8471004064565995e-04  0.0000000000000000e+00  0.0000000000000000e+00  2.1416121813270312e-02  1.1675985727344958e-02  -4.1564019325263268e-02  2.9160916764764712e-02  -8.2923079344167947e-04  1.7359603405752069e-03  -5.4919653189105895e-03  -9.1325905986214470e-03  3.5452408151978532e-02  -8.4153548139271020e-02  4.7982560595824023e-02  3.9297877254134334e-02  -5.3311804334085014e-02  -3.0642033123250541e-02  5.0113399528491191e-02  -7.1715872433048916e-02  4.3122270900860127e-02  2.1424865616786241e-02  -3.1924046101516994e-02  8.1570296022559177e-02  -8.7147108740393983e-02  9.5515911589101846e-02  -1.1685298785575514e-01  8.0290546255474646e-02  -3.8874196102350364e-02  5.8289365754854446e-02  -7.4627351780917325e-02  3.9742617029050326e-02  2.2176001536222199e-02  -4.3808118960314675e-02  -1.7156375313627691e-02  1.1618029792065118e-01  -1.1333954738361572e-01  1.7592709163777091e-02  -8.1439433798544576e-03  1.7612658099623271e-02  4.9982040273298910e-02  4.0183903115777644e-02  2.0588733547245421e-02  -2.5114734037042990e-02  -4.1102493579626614e-02  -4.1896148148080362e-02  -5.0033330135075632e-02  -1.7828572437757310e-02  2.4316456977510916e-02  7.8115058100746371e-02  -9.8618860685924764e-02  6.1894239916807516e-02  -3.6848192176549006e-02  3.3014282438396769e-02  -2.5522271980275811e-02  2.7211074442480349e-02  -4.1513065660624439e-03  -1.3705188263944162e-02  -8.7388849721327967e-03  1.6256434858482112e-02  5.8483919573997919e-03  -6.6873446952437667e-03  3.7315430832390549e-03  -4.0189927899381634e-03  3.9246057863816328e-04  3.9244762762166820e-03  -4.8443940459776402e-03  2.1286330452914984e-03  3.6705829561098227e-03  3.6473867316105167e-04  3.2800883605437251e-04  -3.0286326261669844e-03  1.0916912030908617e-03  1.9132632987093258e-03  -2.2011016111001964e-05  -1.5093211123097137e-03  4.4764209272841766e-04  -5.0499359236612373e-04  -1.7104813308525331e-03  -1.0931384080897580e-03  2.5348223266162860e-03  2.1066636956465581e-03  7.4133204401572957e-04  -9.2002447329674096e-04  -5.3640994186947332e-04  -9.5932819655406498e-04  -5.8655001650073158e-04  2.1180861035415099e-03  9.5852033575098683e-04  -1.0633523522268237e-03  -6.7609787886260776e-04  -8.9775659496274009e-04  1.2891485476559160e-03  -3.7115232432768821e-04  -1.2371125468358367e-03  2.3505163761335186e-04  2.2347114219053340e-04  -8.0149073743933060e-04  2.5467937658425364e-04  -7.2394963436871106e-05  1.0206403007470117e-05  6.0935400577632390e-05  5.6282437721176167e-05  0.0000000000000000e+00  0.0000000000000000e+00  -1.3167013704557926e-02  -1.3677979575759745e-02  2.1002414884540882e-02  4.4807823522478698e-03  -2.0526065754858007e-03  -3.2796618226758452e-02  3.5139107322001269e-02  2.8121230611688933e-02  -3.1398781552416738e-02  -9.0611696511041003e-03  2.3936127506686951e-02  -5.0142018541269817e-02  4.3350284907417123e-02  3.9823464458611214e-02  -1.1709219874291993e-01  1.8600566307089623e-02  3.7402351269196797e-02  -5.0560888369993576e-02  7.8633908805780375e-02  -3.4179415641775367e-02  4.3527881553743430e-02  -2.6135378237161534e-03  -3.6346441451688277e-02  2.5926028368832888e-02  -1.9080807873712153e-02  -7.0732826585308316e-03  5.7198365652887405e-02  -8.4633973030470086e-02  9.6198452196797443e-02  -5.4377944078570370e-02  -6.2353834121479497e-02  1.0693227176785096e-01  3.4127719370140253e-02  -1.1573948049328905e-01  4.7142629466921503e-03  7.2573870754300586e-03  5.4922573061419441e-02  5.8660391162370276e-02  3.9608834996761516e-02  6.0213324378697222e-03  2.0219258359461933e-03  -6.8796170324590150e-02  -9.6325837575521309e-02  -1.0820900000079785e-02  -2.0016613175876181e-02  7.1689363485144972e-02  1.2297336616510279e-02  -4.6007315688649006e-02  8.5660087269259673e-03  1.8602228475892178e-02  -1.3179480916566651e-02  8.4987572482250907e-03  1.4963590876737903e-02  -5.1542815816783541e-03  -2.5896606920590485e-02  7.6788551353195672e-03  1.7349219646739581e-02  -5.3388511753949409e-04  -4.7245402463773787e-03  3.6107864680892487e-03  -6.8679713808679757e-03  6.6461426940083836e-03  -1.5685919152436324e-03  -3.9488660674722852e-03  5.9308449774371497e-03  2.1465842841560533e-03  1.2202046983363526e-03  -2.1448395437165409e-03  -2.1295194607632724e-03  2.7100088572625204e-03  1.7031245569077112e-03  -1.3676577076917570e-03  -8.8362032307657222e-04  6.0430513836135305e-04  -1.6219911350758935e-03  -2.2058242031420296e-03  3.8900225086356066e-04  3.9128085073445703e-03  2.0842324440588388e-03  -8.7241556129465884e-05  -1.1716682455554810e-03  -3.5887467965684287e-04  -2.0176793418139982e-03  1.1766724357377763e-03  2.7064153589082935e-03  -1.8309555781206638e-04  -1.0019991220125233e-03  -1.7287369106532553e-03  6.2977805683285288e-04  7.8220427187907502e-04  -9.8794113142346021e-04  -1.0732277685358328e-03  7.6280229937360764e-04  -1.0329216457511401e-03  3.4821118358240841e-04  -4.5466638850604380e-04  1.0764783590520097e-04  -1.5065720389699302e-05  4.4626155350512337e-05  0.0000000000000000e+00  0.0000000000000000e+00  4.0127265340865997e-02  3.4834478809969892e-02  -5.6112670236516497e-03  -4.9439371659006456e-02  5.5323164888417001e-02  5.0073196846742189e-03  -1.8427144112929547e-02  7.4410188691310993e-03  1.6320312103028659e-02  3.3121108630081067e-02  -1.0530273120125251e-01  9.1593539477089078e-02  1.4233985239814761e-02  -5.6207107760839550e-02  5.8702925033870187e-03  1.0597136790370143e-02  -9.7126087334804337e-02  7.7435692716562171e-02  -2.9129546570692282e-03  -5.6355176278189163e-03  8.5589203221601337e-02  -9.2370649940184291e-02  1.2184969999133245e-01  -1.6799203127300144e-01  1.2649163363022367e-01  -6.1636948868382772e-02  6.0723393433197249e-02  -7.1962190655077890e-02  2.4802558648834919e-02  6.7141881090792194e-02  -8.2021528921199904e-02  -5.0491128372737469e-02  1.8372514917429203e-01  -1.1942463178899967e-01  -1.9502004439041612e-02  -2.3397408919595110e-02  1.6132629056180795e-02  8.4676959709937036e-02  7.9417989723898727e-02  4.7724075660133120e-02  -1.6831058872764204e-02  -2.7875399791947263e-02  -6.3592045402390787e-02  -1.0332062781306459e-01  -2.8254882324351693e-02  2.3226937244671442e-02  1.1868239348630479e-01  -1.1718995182706780e-01  6.3347688860241058e-02  -4.8735726804126210e-02  5.2127670947710016e-02  -3.9463736866334857e-02  3.8952128455095270e-02  -9.7347628354499058e-04  -1.7238579280889892e-02  -2.0940443182671641e-02  2.2454778427973852e-02  1.2684806538681112e-02  -8.1990959316866688e-03  3.0962233246984846e-03  -3.5872505089713860e-03  -2.0689669205603126e-03  7.4375301893754402e-03  -6.7449391971831250e-03  1.3172370445742379e-03  6.6292439336372395e-03  1.0497827239170665e-03  9.6834734338705820e-04  -4.4025433327707138e-03  7.4355386726226611e-04  3.3240751482917167e-03  5.8645634722004759e-04  -2.2510701764858381e-03  3.5424049709021634e-04  -2.9047019206256575e-04  -2.6155615574590340e-03  -2.0252244982891469e-03  3.3055415731450006e-03  3.9672304410741984e-03  1.6557934558995909e-03  -1.1237812172447828e-03  -9.7132960705695825e-04  -1.1399016168798389e-03  -1.3901165613692370e-03  3.0996945618752942e-03  2.1158454459915513e-03  -1.3339483320761731e-03  -1.0605583206393225e-03  -1.7431884906127736e-03  1.8515905003522108e-03  -2.6213213350124043e-04  -1.7891308270813662e-03  2.6305532800979656e-05  5.1431294294161450e-04  -1.4550850216004366e-03  5.3623674039561964e-04  -3.3574125728879451e-04  -1.9645388537290343e-05  -9.9411638123035218e-06  0.0000000000000000e+00  0.0000000000000000e+00  -2.9670393957896050e-02  -8.3229555249048938e-03  5.3805435450779218e-03  4.1077410566682862e-02  -2.2529390095282091e-02  7.3964328702038505e-03  -2.4477903370825456e-02  4.2224054624155627e-02  2.7315750421366938e-02  -2.7461595203742410e-02  5.0740439993901109e-03  -1.8756225113193786e-02  -9.5099120600847936e-03  6.8699295746332115e-02  9.7556029542898853e-03  -1.2871483805339556e-01  3.5704486181183027e-02  1.3258605669688077e-03  -2.8927139252650731e-02  7.8228470810845052e-02  -3.5814130319911090e-02  7.7898440137060848e-02  -3.2759977914915535e-02  1.5245478192153581e-03  -3.3868216562603831e-02  2.0048943715062339e-02  -1.9617268968700734e-02  8.3114330486930413e-02  -1.2161934019476808e-01  1.0938796999912360e-01  -3.5182483471031908e-02  -9.0094218435321963e-02  1.0292733208152892e-01  8.6777054765804648e-02  -1.6752039328230586e-01  3.2910575363148823e-03  4.6510737850839019e-04  5.9167696867880391e-02  9.1429480925881018e-02  7.9222717249528146e-02  3.7715605667652585e-02  4.3208695346280031e-03  -8.0584785812281928e-02  -1.1684057617162698e-01  -4.5487578507976953e-02  -3.6978002637620966e-02  8.5369115768512083e-02  5.1280503963303241e-02  -9.0363672070868789e-02  3.4697885519068966e-02  -2.2583398181275479e-04  4.8069090615485569e-03  -5.5632131658468536e-03  3.0787771981241288e-02  -7.3283656598696675e-03  -3.3877983315435900e-02  1.4924111589216720e-03  2.6438483551547633e-02  3.0761888131059767e-03  -7.9449017885956270e-03  5.2742705315532963e-03  -8.5386967000945033e-03  6.5382654657597360e-03  7.3162969214206949e-04  -6.4919175703402488e-03  7.0936951144053885e-03  4.5451275957485212e-03  1.5397770178340643e-03  -1.9724300769927631e-03  -3.6265840077822683e-03  3.3608044826321354e-03  2.9708737707069490e-03  -1.2689292486262999e-03  -1.6189881649298896e-03  8.6440518628657119e-04  -1.7862517342297443e-03  -3.2239620909046123e-03  -9.9127090423995970e-05  5.5129546234782747e-03  3.5738701415683524e-03  4.7279183749354269e-04  -1.6030666055190249e-03  -7.1626660428900785e-04  -2.4250199312473345e-03  9.6807161067479592e-04  4.0717846654307532e-03  5.2152213517199259e-04  -1.5584077547465486e-03  -2.0137709508791278e-03  1.9394180193461755e-04  1.5137801653039096e-03  -1.2467886553963491e-03  -1.7514970827455052e-03  8.4574754183165289e-04  -8.3427919488490525e-04  -1.4557701245087286e-04  -2.8321294413929477e-04  1.5773914312645712e-05  -3.8904884435025683e-05  0.0000000000000000e+00  0.0000000000000000e+00  4.0173579701307457e-03  1.3678628637452801e-02  5.8821237736259597e-03  -3.4176823575867619e-02  -3.2076723448851874e-02  5.8239519320802728e-02  4.2656182241519892e-03  -3.7830473184933655e-02  2.2787099262552419e-02  3.1302732556313953e-02  2.2018202231213840e-02  -9.1858866510708570e-02  7.3834874665215183e-02  5.0720757513363661e-03  -2.2059090607490464e-02  1.0664698151644350e-02  -3.5346526112620763e-02  -8.5309287508784803e-02  6.6772282388243398e-02  -1.3061102249290009e-03  1.9023660571934133e-02  6.8692711862437833e-02  -5.5777589460400401e-02  9.8392613475642335e-02  -1.4993286886963597e-01  1.0237013488519142e-01  -4.8531436044531626e-02  4.7804394075292758e-02  -4.6224639488745091e-02  -3.1951533263047689e-03  9.8357432591134802e-02  -1.0491775088201492e-01  -7.3175796049312444e-02  2.1657276938367459e-01  -8.9644194720786968e-02  -8.3267639389949979e-02  -3.0648285673082958e-02  1.5756844767875703e-02  1.0963384955451203e-01  1.1573482876531307e-01  7.6282911193398306e-02  6.1933640122992187e-03  -1.7762628494416371e-02  -8.8686597176258861e-02  -1.4217570474019794e-01  -4.6240239695805763e-02  1.7746623144868266e-02  1.4092733891371476e-01  -9.8179044147404984e-02  2.2986160073729459e-02  -2.9067116011967171e-02  4.4541013560751810e-02  -3.3696762642439038e-02  3.5114861169928520e-02  1.0130042572810732e-02  -2.1112817618104532e-02  -3.1689791017585109e-02  2.2711878752740923e-02  2.1601239114764394e-02  -6.9201562070148413e-03  -6.9426929958830031e-05  -1.6747372211994864e-03  -4.6066744384828853e-03  9.3402046572548872e-03  -6.4686962882695553e-03  -6.1034617564904544e-04  9.0163272102083136e-03  2.6093428154383121e-03  1.3047346061323040e-03  -4.8676112385887295e-03  -3.0173784660766104e-04  4.5105128919840642e-03  1.5229908374204098e-03  -2.5280527117607535e-03  -1.4131420217552073e-04  6.5860422906240947e-05  -3.1720190698778404e-03  -2.9199160469715341e-03  3.4199938502908591e-03  5.9659734872457813e-03  2.8276930496699878e-03  -8.9620198947276740e-04  -1.3991047748151525e-03  -1.3632052199231267e-03  -1.9959017114786334e-03  3.5204671953927426e-03  3.4326612113335761e-03  -1.0789115349840233e-03  -1.6491182015160584e-03  -2.1680936046515561e-03  1.9886681855423118e-03  3.4866284743749677e-04  -2.0930706006153949e-03  -4.3422786381614928e-04  6.3705023959083297e-04  -1.6190196950182361e-03  4.5227475478394657e-04  -3.8028597419986613e-04  1.4357432713989394e-05  0.0000000000000000e+00  0.0000000000000000e+00  8.8491054187642710e-03  9.6139282415815819e-03  8.2422132524808539e-03  1.1266166579434956e-02  1.8847643863041448e-02  -4.3623770943816802e-02  1.29956769155