<?xml version="1.0"?>
<VTKFile type="UnstructuredGrid"  version="0.1"  >
<UnstructuredGrid>
<Piece  NumberOfPoints="2601" NumberOfCells="5000">
<Points>
<DataArray  type="Float64"  NumberOfComponents="3"  format="ascii">0 0 0  0.02 0 0  0.04 0 0  0.06 0 0  0.08 0 0  0.1 0 0  0.12 0 0  0.14 0 0  0.16 0 0  0.18 0 0  0.2 0 0  0.22 0 0  0.24 0 0  0.26 0 0  0.28 0 0  0.3 0 0  0.32 0 0  0.34 0 0  0.36 0 0  0.38 0 0  0.4 0 0  0.42 0 0  0.44 0 0  0.46 0 0  0.48 0 0  0.5 0 0  0.52 0 0  0.54 0 0  0.5600000000000001 0 0  0.58 0 0  0.6 0 0  0.62 0 0  0.64 0 0  0.66 0 0  0.68 0 0  0.7 0 0  0.72 0 0  0.74 0 0  0.76 0 0  0.78 0 0  0.8 0 0  0.82 0 0  0.84 0 0  0.86 0 0  0.88 0 0  0.9 0 0  0.92 0 0  0.9399999999999999 0 0  0.96 0 0  0.98 0 0  1 0 0  0 0.02 0  0.02 0.02 0  0.04 0.02 0  0.06 0.02 0  0.08 0.02 0  0.1 0.02 0  0.12 0.02 0  0.14 0.02 0  0.16 0.02 0  0.18 0.02 0  0.2 0.02 0  0.22 0.02 0  0.24 0.02 0  0.26 0.02 0  0.28 0.02 0  0.3 0.02 0  0.32 0.02 0  0.34 0.02 0  0.36 0.02 0  0.38 0.02 0  0.4 0.02 0  0.42 0.02 0  0.44 0.02 0  0.46 0.02 0  0.48 0.02 0  0.5 0.02 0  0.52 0.02 0  0.54 0.02 0  0.5600000000000001 0.02 0  0.58 0.02 0  0.6 0.02 0  0.62 0.02 0  0.64 0.02 0  0.66 0.02 0  0.68 0.02 0  0.7 0.02 0  0.72 0.02 0  0.74 0.02 0  0.76 0.02 0  0.78 0.02 0  0.8 0.02 0  0.82 0.02 0  0.84 0.02 0  0.86 0.02 0  0.88 0.02 0  0.9 0.02 0  0.92 0.02 0  0.9399999999999999 0.02 0  0.96 0.02 0  0.98 0.02 0  1 0.02 0  0 0.04 0  0.02 0.04 0  0.04 0.04 0  0.06 0.04 0  0.08 0.04 0  0.1 0.04 0  0.12 0.04 0  0.14 0.04 0  0.16 0.04 0  0.18 0.04 0  0.2 0.04 0  0.22 0.04 0  0.24 0.04 0  0.26 0.04 0  0.28 0.04 0  0.3 0.04 0  0.32 0.04 0  0.34 0.04 0  0.36 0.04 0  0.38 0.04 0  0.4 0.04 0  0.42 0.04 0  0.44 0.04 0  0.46 0.04 0  0.48 0.04 0  0.5 0.04 0  0.52 0.04 0  0.54 0.04 0  0.5600000000000001 0.04 0  0.58 0.04 0  0.6 0.04 0  0.62 0.04 0  0.64 0.04 0  0.66 0.04 0  0.68 0.04 0  0.7 0.04 0  0.72 0.04 0  0.74 0.04 0  0.76 0.04 0  0.78 0.04 0  0.8 0.04 0  0.82 0.04 0  0.84 0.04 0  0.86 0.04 0  0.88 0.04 0  0.9 0.04 0  0.92 0.04 0  0.9399999999999999 0.04 0  0.96 0.04 0  0.98 0.04 0  1 0.04 0  0 0.06 0  0.02 0.06 0  0.04 0.06 0  0.06 0.06 0  0.08 0.06 0  0.1 0.06 0  0.12 0.06 0  0.14 0.06 0  0.16 0.06 0  0.18 0.06 0  0.2 0.06 0  0.22 0.06 0  0.24 0.06 0  0.26 0.06 0  0.28 0.06 0  0.3 0.06 0  0.32 0.06 0  0.34 0.06 0  0.36 0.06 0  0.38 0.06 0  0.4 0.06 0  0.42 0.06 0  0.44 0.06 0  0.46 0.06 0  0.48 0.06 0  0.5 0.06 0  0.52 0.06 0  0.54 0.06 0  0.5600000000000001 0.06 0  0.58 0.06 0  0.6 0.06 0  0.62 0.06 0  0.64 0.06 0  0.66 0.06 0  0.68 0.06 0  0.7 0.06 0  0.72 0.06 0  0.74 0.06 0  0.76 0.06 0  0.78 0.06 0  0.8 0.06 0  0.82 0.06 0  0.84 0.06 0  0.86 0.06 0  0.88 0.06 0  0.9 0.06 0  0.92 0.06 0  0.9399999999999999 0.06 0  0.96 0.06 0  0.98 0.06 0  1 0.06 0  0 0.08 0  0.02 0.08 0  0.04 0.08 0  0.06 0.08 0  0.08 0.08 0  0.1 0.08 0  0.12 0.08 0  0.14 0.08 0  0.16 0.08 0  0.18 0.08 0  0.2 0.08 0  0.22 0.08 0  0.24 0.08 0  0.26 0.08 0  0.28 0.08 0  0.3 0.08 0  0.32 0.08 0  0.34 0.08 0  0.36 0.08 0  0.38 0.08 0  0.4 0.08 0  0.42 0.08 0  0.44 0.08 0  0.46 0.08 0  0.48 0.08 0  0.5 0.08 0  0.52 0.08 0  0.54 0.08 0  0.5600000000000001 0.08 0  0.58 0.08 0  0.6 0.08 0  0.62 0.08 0  0.64 0.08 0  0.66 0.08 0  0.68 0.08 0  0.7 0.08 0  0.72 0.08 0  0.74 0.08 0  0.76 0.08 0  0.78 0.08 0  0.8 0.08 0  0.82 0.08 0  0.84 0.08 0  0.86 0.08 0  0.88 0.08 0  0.9 0.08 0  0.92 0.08 0  0.9399999999999999 0.08 0  0.96 0.08 0  0.98 0.08 0  1 0.08 0  0 0.1 0  0.02 0.1 0  0.04 0.1 0  0.06 0.1 0  0.08 0.1 0  0.1 0.1 0  0.12 0.1 0  0.14 0.1 0  0.16 0.1 0  0.18 0.1 0  0.2 0.1 0  0.22 0.1 0  0.24 0.1 0  0.26 0.1 0  0.28 0.1 0  0.3 0.1 0  0.32 0.1 0  0.34 0.1 0  0.36 0.1 0  0.38 0.1 0  0.4 0.1 0  0.42 0.1 0  0.44 0.1 0  0.46 0.1 0  0.48 0.1 0  0.5 0.1 0  0.52 0.1 0  0.54 0.1 0  0.5600000000000001 0.1 0  0.58 0.1 0  0.6 0.1 0  0.62 0.1 0  0.64 0.1 0  0.66 0.1 0  0.68 0.1 0  0.7 0.1 0  0.72 0.1 0  0.74 0.1 0  0.76 0.1 0  0.78 0.1 0  0.8 0.1 0  0.82 0.1 0  0.84 0.1 0  0.86 0.1 0  0.88 0.1 0  0.9 0.1 0  0.92 0.1 0  0.9399999999999999 0.1 0  0.96 0.1 0  0.98 0.1 0  1 0.1 0  0 0.12 0  0.02 0.12 0  0.04 0.12 0  0.06 0.12 0  0.08 0.12 0  0.1 0.12 0  0.12 0.12 0  0.14 0.12 0  0.16 0.12 0  0.18 0.12 0  0.2 0.12 0  0.22 0.12 0  0.24 0.12 0  0.26 0.12 0  0.28 0.12 0  0.3 0.12 0  0.32 0.12 0  0.34 0.12 0  0.36 0.12 0  0.38 0.12 0  0.4 0.12 0  0.42 0.12 0  0.44 0.12 0  0.46 0.12 0  0.48 0.12 0  0.5 0.12 0  0.52 0.12 0  0.54 0.12 0  0.5600000000000001 0.12 0  0.58 0.12 0  0.6 0.12 0  0.62 0.12 0  0.64 0.12 0  0.66 0.12 0  0.68 0.12 0  0.7 0.12 0  0.72 0.12 0  0.74 0.12 0  0.76 0.12 0  0.78 0.12 0  0.8 0.12 0  0.82 0.12 0  0.84 0.12 0  0.86 0.12 0  0.88 0.12 0  0.9 0.12 0  0.92 0.12 0  0.9399999999999999 0.12 0  0.96 0.12 0  0.98 0.12 0  1 0.12 0  0 0.14 0  0.02 0.14 0  0.04 0.14 0  0.06 0.14 0  0.08 0.14 0  0.1 0.14 0  0.12 0.14 0  0.14 0.14 0  0.16 0.14 0  0.18 0.14 0  0.2 0.14 0  0.22 0.14 0  0.24 0.14 0  0.26 0.14 0  0.28 0.14 0  0.3 0.14 0  0.32 0.14 0  0.34 0.14 0  0.36 0.14 0  0.38 0.14 0  0.4 0.14 0  0.42 0.14 0  0.44 0.14 0  0.46 0.14 0  0.48 0.14 0  0.5 0.14 0  0.52 0.14 0  0.54 0.14 0  0.5600000000000001 0.14 0  0.58 0.14 0  0.6 0.14 0  0.62 0.14 0  0.64 0.14 0  0.66 0.14 0  0.68 0.14 0  0.7 0.14 0  0.72 0.14 0  0.74 0.14 0  0.76 0.14 0  0.78 0.14 0  0.8 0.14 0  0.82 0.14 0  0.84 0.14 0  0.86 0.14 0  0.88 0.14 0  0.9 0.14 0  0.92 0.14 0  0.9399999999999999 0.14 0  0.96 0.14 0  0.98 0.14 0  1 0.14 0  0 0.16 0  0.02 0.16 0  0.04 0.16 0  0.06 0.16 0  0.08 0.16 0  0.1 0.16 0  0.12 0.16 0  0.14 0.16 0  0.16 0.16 0  0.18 0.16 0  0.2 0.16 0  0.22 0.16 0  0.24 0.16 0  0.26 0.16 0  0.28 0.16 0  0.3 0.16 0  0.32 0.16 0  0.34 0.16 0  0.36 0.16 0  0.38 0.16 0  0.4 0.16 0  0.42 0.16 0  0.44 0.16 0  0.46 0.16 0  0.48 0.16 0  0.5 0.16 0  0.52 0.16 0  0.54 0.16 0  0.5600000000000001 0.16 0  0.58 0.16 0  0.6 0.16 0  0.62 0.16 0  0.64 0.16 0  0.66 0.16 0  0.68 0.16 0  0.7 0.16 0  0.72 0.16 0  0.74 0.16 0  0.76 0.16 0  0.78 0.16 0  0.8 0.16 0  0.82 0.16 0  0.84 0.16 0  0.86 0.16 0  0.88 0.16 0  0.9 0.16 0  0.92 0.16 0  0.9399999999999999 0.16 0  0.96 0.16 0  0.98 0.16 0  1 0.16 0  0 0.18 0  0.02 0.18 0  0.04 0.18 0  0.06 0.18 0  0.08 0.18 0  0.1 0.18 0  0.12 0.18 0  0.14 0.18 0  0.16 0.18 0  0.18 0.18 0  0.2 0.18 0  0.22 0.18 0  0.24 0.18 0  0.26 0.18 0  0.28 0.18 0  0.3 0.18 0  0.32 0.18 0  0.34 0.18 0  0.36 0.18 0  0.38 0.18 0  0.4 0.18 0  0.42 0.18 0  0.44 0.18 0  0.46 0.18 0  0.48 0.18 0  0.5 0.18 0  0.52 0.18 0  0.54 0.18 0  0.5600000000000001 0.18 0  0.58 0.18 0  0.6 0.18 0  0.62 0.18 0  0.64 0.18 0  0.66 0.18 0  0.68 0.18 0  0.7 0.18 0  0.72 0.18 0  0.74 0.18 0  0.76 0.18 0  0.78 0.18 0  0.8 0.18 0  0.82 0.18 0  0.84 0.18 0  0.86 0.18 0  0.88 0.18 0  0.9 0.18 0  0.92 0.18 0  0.9399999999999999 0.18 0  0.96 0.18 0  0.98 0.18 0  1 0.18 0  0 0.2 0  0.02 0.2 0  0.04 0.2 0  0.06 0.2 0  0.08 0.2 0  0.1 0.2 0  0.12 0.2 0  0.14 0.2 0  0.16 0.2 0  0.18 0.2 0  0.2 0.2 0  0.22 0.2 0  0.24 0.2 0  0.26 0.2 0  0.28 0.2 0  0.3 0.2 0  0.32 0.2 0  0.34 0.2 0  0.36 0.2 0  0.38 0.2 0  0.4 0.2 0  0.42 0.2 0  0.44 0.2 0  0.46 0.2 0  0.48 0.2 0  0.5 0.2 0  0.52 0.2 0  0.54 0.2 0  0.5600000000000001 0.2 0  0.58 0.2 0  0.6 0.2 0  0.62 0.2 0  0.64 0.2 0  0.66 0.2 0  0.68 0.2 0  0.7 0.2 0  0.72 0.2 0  0.74 0.2 0  0.76 0.2 0  0.78 0.2 0  0.8 0.2 0  0.82 0.2 0  0.84 0.2 0  0.86 0.2 0  0.88 0.2 0  0.9 0.2 0  0.92 0.2 0  0.9399999999999999 0.2 0  0.96 0.2 0  0.98 0.2 0  1 0.2 0  0 0.22 0  0.02 0.22 0  0.04 0.22 0  0.06 0.22 0  0.08 0.22 0  0.1 0.22 0  0.12 0.22 0  0.14 0.22 0  0.16 0.22 0  0.18 0.22 0  0.2 0.22 0  0.22 0.22 0  0.24 0.22 0  0.26 0.22 0  0.28 0.22 0  0.3 0.22 0  0.32 0.22 0  0.34 0.22 0  0.36 0.22 0  0.38 0.22 0  0.4 0.22 0  0.42 0.22 0  0.44 0.22 0  0.46 0.22 0  0.48 0.22 0  0.5 0.22 0  0.52 0.22 0  0.54 0.22 0  0.5600000000000001 0.22 0  0.58 0.22 0  0.6 0.22 0  0.62 0.22 0  0.64 0.22 0  0.66 0.22 0  0.68 0.22 0  0.7 0.22 0  0.72 0.22 0  0.74 0.22 0  0.76 0.22 0  0.78 0.22 0  0.8 0.22 0  0.82 0.22 0  0.84 0.22 0  0.86 0.22 0  0.88 0.22 0  0.9 0.22 0  0.92 0.22 0  0.9399999999999999 0.22 0  0.96 0.22 0  0.98 0.22 0  1 0.22 0  0 0.24 0  0.02 0.24 0  0.04 0.24 0  0.06 0.24 0  0.08 0.24 0  0.1 0.24 0  0.12 0.24 0  0.14 0.24 0  0.16 0.24 0  0.18 0.24 0  0.2 0.24 0  0.22 0.24 0  0.24 0.24 0  0.26 0.24 0  0.28 0.24 0  0.3 0.24 0  0.32 0.24 0  0.34 0.24 0  0.36 0.24 0  0.38 0.24 0  0.4 0.24 0  0.42 0.24 0  0.44 0.24 0  0.46 0.24 0  0.48 0.24 0  0.5 0.24 0  0.52 0.24 0  0.54 0.24 0  0.5600000000000001 0.24 0  0.58 0.24 0  0.6 0.24 0  0.62 0.24 0  0.64 0.24 0  0.66 0.24 0  0.68 0.24 0  0.7 0.24 0  0.72 0.24 0  0.74 0.24 0  0.76 0.24 0  0.78 0.24 0  0.8 0.24 0  0.82 0.24 0  0.84 0.24 0  0.86 0.24 0  0.88 0.24 0  0.9 0.24 0  0.92 0.24 0  0.9399999999999999 0.24 0  0.96 0.24 0  0.98 0.24 0  1 0.24 0  0 0.26 0  0.02 0.26 0  0.04 0.26 0  0.06 0.26 0  0.08 0.26 0  0.1 0.26 0  0.12 0.26 0  0.14 0.26 0  0.16 0.26 0  0.18 0.26 0  0.2 0.26 0  0.22 0.26 0  0.24 0.26 0  0.26 0.26 0  0.28 0.26 0  0.3 0.26 0  0.32 0.26 0  0.34 0.26 0  0.36 0.26 0  0.38 0.26 0  0.4 0.26 0  0.42 0.26 0  0.44 0.26 0  0.46 0.26 0  0.48 0.26 0  0.5 0.26 0  0.52 0.26 0  0.54 0.26 0  0.5600000000000001 0.26 0  0.58 0.26 0  0.6 0.26 0  0.62 0.26 0  0.64 0.26 0  0.66 0.26 0  0.68 0.26 0  0.7 0.26 0  0.72 0.26 0  0.74 0.26 0  0.76 0.26 0  0.78 0.26 0  0.8 0.26 0  0.82 0.26 0  0.84 0.26 0  0.86 0.26 0  0.88 0.26 0  0.9 0.26 0  0.92 0.26 0  0.9399999999999999 0.26 0  0.96 0.26 0  0.98 0.26 0  1 0.26 0  0 0.28 0  0.02 0.28 0  0.04 0.28 0  0.06 0.28 0  0.08 0.28 0  0.1 0.28 0  0.12 0.28 0  0.14 0.28 0  0.16 0.28 0  0.18 0.28 0  0.2 0.28 0  0.22 0.28 0  0.24 0.28 0  0.26 0.28 0  0.28 0.28 0  0.3 0.28 0  0.32 0.28 0  0.34 0.28 0  0.36 0.28 0  0.38 0.28 0  0.4 0.28 0  0.42 0.28 0  0.44 0.28 0  0.46 0.28 0  0.48 0.28 0  0.5 0.28 0  0.52 0.28 0  0.54 0.28 0  0.5600000000000001 0.28 0  0.58 0.28 0  0.6 0.28 0  0.62 0.28 0  0.64 0.28 0  0.66 0.28 0  0.68 0.28 0  0.7 0.28 0  0.72 0.28 0  0.74 0.28 0  0.76 0.28 0  0.78 0.28 0  0.8 0.28 0  0.82 0.28 0  0.84 0.28 0  0.86 0.28
[...]
<PointData  Scalars="Indicator Function"> 
<DataArray  type="Float64"  Name="Indicator Function"  format="ascii">-3.5050780980514239e-21  1.5508829129409419e-17  -1.6340555763550750e-18  3.0460932317382988e-17  9.4306828698598223e-18  -4.4473941288915016e-19  -1.9710388402367517e-18  4.2738779357372655e-16  2.1729930221956412e-16  -9.9892629118141912e-19  1.8272252776886212e-16  4.7947277698611892e-16  -3.1643001192447590e-19  -1.0324813020346520e-32  -5.3385064673167665e-17  -2.0960979709488253e-18  -7.7315240033473356e-19  2.4402230486822926e-16  -9.1294383608307655e-19  -1.3855343799811679e-18  1.3803359299187897e-16  -1.0782962822903777e-18  -9.9144428829237872e-19  4.8124223460579891e-16  1.5296019289402252e-34  -6.4894838659973416e-19  -3.0066590836847850e-19  -1.5692138334183653e-19  1.5719516127280960e-16  -3.6017073168961151e-21  -4.4071348220290834e-20  -2.1464762659307595e-20  -8.5110726951300823e-20  -1.1155953081801588e-19  1.0730864632665850e-19  -6.1586248267544844e-20  9.5600120558764076e-36  -1.9229314917704150e-20  -6.6679638795208550e-20  -7.5405609862652064e-20  3.7155965709290985e-17  -3.1336719934394225e-20  -6.2714290817236215e-20  -6.9609075822011007e-20  -5.7674440665072667e-20  -3.1954075238515291e-20  1.4574261954634924e-18  -1.2118387131103842e-20  -4.9109556322586096e-21  -3.3313315331030603e-21  9.5600120558764076e-36  -8.5266516411411393e-19  8.1669961870096189e-03  2.7528319818360125e-03  1.8778613737411470e-03  1.0914678973752709e-02  1.6023426033316392e-02  6.8477720186460589e-04  3.5507079145691990e-02  1.5738057424949055e-02  3.2643443723029672e-02  1.7995056290940902e-02  3.3443757709273694e-03  1.1400592670335290e-02  1.0492697912006811e-02  1.8841160716704379e-02  1.9808386534406478e-02  2.7855750896385482e-02  3.6717506706311652e-02  2.2549983488673667e-02  8.9471043819087832e-03  2.0486016278614363e-02  3.4960650728229757e-02  1.9445335763568696e-03  1.7860272509248695e-02  1.5568536200883457e-02  1.7155677303253103e-03  1.0832630983130330e-02  5.6536886683579207e-03  8.0862202188749762e-04  4.7488170730015158e-05  4.1138505556076249e-05  7.7334957691243026e-04  4.3216867192384000e-04  1.3171342167705216e-03  1.3511107373013114e-03  1.3184318855512982e-03  4.5022327621979815e-04  2.5543364233764087e-04  3.4640454199184921e-04  1.0279913147292774e-03  8.4439104855169435e-04  3.3459949409669925e-04  3.9721241382985610e-04  9.3115402010631137e-04  7.8838862168129781e-04  6.4477604711144312e-04  2.5324542179286136e-04  8.2739262856198486e-05  1.7693582364378333e-04  1.2002386760904418e-04  -6.3411454559735339e-21  1.5296019289402252e-33  2.0803512903261628e-02  2.3883646219665999e-02  8.8518714124412191e-03  1.1427395347013624e-02  1.3382939432311563e-02  3.0011728283536907e-02  3.4635071325924624e-02  1.0253831691274915e-02  3.5163401674803821e-02  2.3614756605069155e-02  5.2502962379648251e-02  8.6181645202399418e-02  6.3340262174141973e-02  7.1889554904655487e-03  4.6227999033911726e-02  5.8717573504034656e-02  3.1532627556374285e-03  6.1653526053137682e-02  6.0311541760717921e-03  3.7497369351363094e-02  1.7972128586809612e-02  6.7022229974933747e-02  6.2458368941835984e-02  4.7180442348055442e-02  2.0157118169716274e-02  2.6074501127954682e-02  2.3449921006693957e-03  6.0694949544243641e-03  4.6283076938276498e-03  3.4701638302385960e-04  2.5938883479920865e-04  6.0662992128274792e-04  2.0098795872231573e-03  2.2579880417838726e-03  1.5694056903655135e-03  1.8601265610836432e-03  1.7523901674309375e-04  5.7452209473434867e-04  1.0040630947570600e-03  1.4365661474027896e-03  2.2931479805974797e-04  9.9479849226474727e-04  6.3259783577030619e-04  1.5534336633923375e-03  8.8712777422644655e-04  4.9117292885753787e-04  4.4180086363883940e-05  4.7975599325719064e-04  4.2314761987363253e-04  1.0570235183978448e-19  -1.7021870718285915e-19  1.1245268064336214e-02  4.0235520874788216e-03  8.4555681463119245e-03  1.7248958096747015e-02  1.9356812130818437e-02  3.1634050067441105e-02  4.6980277656321337e-03  7.8535613729767251e-02  5.5613553136391165e-02  7.9788366378931982e-02  6.0405920926009951e-02  2.5973146494247475e-02  2.7405191873696847e-03  1.2728001232830324e-02  2.5643645753952012e-02  3.7415465185746191e-02  5.5280858969986975e-02  8.7467636887414948e-02  4.0117253005548692e-02  4.6044805419353171e-03  4.2862357856344534e-02  5.7531585404898652e-02  6.9328268938516294e-03  5.6301640857074266e-02  5.8411577577689174e-02  1.1976892507709724e-02  2.5901667204266711e-02  1.8729647279998627e-02  3.0831218916094237e-03  2.8997269133394900e-03  3.1871598667940784e-04  1.0705638652426660e-03  1.2449375683282395e-03  2.8673287420298006e-03  2.2551887162592862e-03  1.9432199571905774e-03  8.4129498732854219e-04  3.9244467150205496e-04  2.1332542088144425e-05  1.3799842765998122e-03  8.2747365693384436e-04  1.7607859369819095e-03  1.0520224261629484e-03  1.6037584920290870e-03  1.3739436394035597e-03  1.0125462613760673e-03  2.8491794536874415e-04  2.4096763841360179e-04  4.3676627233715180e-04  -6.0613496491050874e-20  -5.1564436078398758e-19  3.4463488631980004e-02  3.1303351584570436e-03  2.6702717942380497e-02  1.0839262142744628e-03  2.0298163598942254e-02  2.1731987413296155e-02  5.9831351625043355e-02  3.6750937357455542e-02  7.8801568176562319e-03  3.2977279055339773e-02  1.8038259984862703e-02  5.9837923283294542e-02  1.2772283264908393e-01  1.1757261039088095e-01  2.5719893821332381e-02  8.5874994199072893e-02  1.0803261618800851e-01  8.3880336363916109e-03  1.1329460422850081e-01  6.8239925923315780e-03  4.0056145517174575e-02  2.0927691378814645e-02  1.0110447862505087e-01  1.0415459470424948e-01  6.1003095712146793e-02  1.9126642740469258e-02  3.6315938407409307e-02  9.6449317861335292e-04  1.6361661578370192e-02  9.8849067683528056e-03  1.2041371126912683e-05  9.6225754664419939e-05  1.0537000659161565e-03  3.2692286033156773e-03  3.1036954991932892e-03  1.6515312019279866e-03  2.3535769386182543e-03  5.8243814363849293e-04  1.2551608037899610e-03  9.5665500949223127e-04  1.4984861685643713e-03  1.0230263035797076e-03  2.3840777300105482e-03  1.0091985430853529e-03  2.5193308382391063e-03  1.2677183258277297e-03  9.3478516753399377e-04  2.5198175218555963e-04  2.2906006860645844e-04  3.8475705566949965e-20  -3.0690128651544594e-19  2.2628070150456266e-02  2.0140844903785454e-02  2.3759896180384019e-02  1.0836483615624996e-02  2.2922625286306026e-02  3.4720576730982118e-02  2.7024490746513932e-02  4.2036025169809978e-03  1.0612584189923997e-01  8.0878655432015639e-02  1.0395534545598221e-01  8.2546621890771069e-02  4.6428898894589059e-02  3.1850179400218316e-02  5.0058442317308287e-03  2.7829713422612989e-02  3.5457011507421483e-02  7.9169190688423152e-02  1.1746962269924695e-01  5.7712518090882063e-02  1.9302912900315758e-02  5.8842735559107726e-02  7.3759363063061231e-02  1.3979536864255144e-02  9.3624967706544576e-02  8.9330965254114464e-02  2.3635231097834122e-02  3.9117865870804409e-02  2.6414032710705068e-02  7.1147433657811968e-04  7.8113259647545315e-03  6.4525473021284359e-04  1.0197493568393902e-03  1.1385769997022885e-03  3.9583947807302180e-03  2.6268304828804987e-03  1.7649724930199071e-03  1.1019079842457561e-03  1.0426657612716073e-04  5.7137872021714861e-04  1.5080225324806548e-03  7.4861126362659011e-04  2.9528480646116989e-03  1.9724383382778931e-03  1.9461425080137321e-03  2.2097415430512202e-03  1.5016216054391926e-03  7.9117632796552116e-04  2.4392253193936247e-04  5.7360072335258448e-35  -4.6450891480567679e-19  9.7860405239544000e-03  2.6012628177919096e-02  2.9448665988759067e-02  4.1423128768974318e-02  4.0039970043404486e-03  2.6524652575339258e-02  2.4439320539351897e-02  7.9342185865841103e-02  4.2095930199340020e-02  7.2071195373338047e-03  2.9566622457916025e-02  1.0272310934844040e-02  5.7405842187457250e-02  1.4779091747360673e-01  1.4517725474300627e-01  3.3637503722320834e-02  1.1923044738476804e-01  1.5176798825497786e-01  2.5505208418358412e-02  1.6274775509867151e-01  2.0432602821839098e-02  2.9813817579925968e-02  2.6774120284287689e-02  1.2763960777588920e-01  1.2990025620142293e-01  6.1119657983105140e-02  5.2765099689263415e-03  3.5955574701175899e-02  5.5424238906722064e-03  2.6050846798384264e-02  1.2505022550541209e-02  3.2791130422947551e-03  3.4777043300507422e-05  1.5999744658651248e-03  3.5612058703887268e-03  3.6712428748398168e-03  1.6005898382985670e-03  2.1762323594610735e-03  7.4739001706180814e-04  1.1122428511494149e-03  8.6979223516601165e-04  1.7457406481338586e-03  1.2732268392961368e-03  3.5744038237924027e-03  1.4880970205244635e-03  3.0316431400227127e-03  1.7309738152728748e-03  1.3753854722996681e-03  5.9637244467464212e-04  -6.8472895871995675e-22  -4.8828913302991843e-19  1.3952463132470094e-02  1.4118395867745935e-02  1.4145873583991535e-02  3.4573278799940779e-02  3.3672644218769580e-02  4.4025841407508579e-02  4.3840201209776150e-02  2.0216903074060703e-02  2.0555130945774984e-02  1.3300050864709714e-01  8.9190529019587267e-02  1.0791611224323892e-01  8.4091920126754149e-02  4.3323640509242978e-02  3.6961460351151221e-02  7.3219314673927758e-03  2.2827417657619913e-02  3.4820682766977869e-02  8.7119526199543676e-02  1.3720051946996942e-01  6.8680181789009212e-02  1.9012123870456480e-02  7.0863911131787402e-02  9.9801332832721773e-02  9.2456405332587300e-03  1.1651255649149592e-01  9.9033909686001856e-02  1.1060250494008902e-02  4.3073098909418593e-02  2.6406864376009684e-02  4.8334844910615706e-03  1.2233020062446092e-02  5.4105202066812214e-04  1.4464975422870828e-03  2.8797364217652015e-04  4.3596262342711894e-03  2.6068527240805223e-03  1.2873325655810115e-03  9.0141321775472267e-04  7.4553014653930890e-04  7.0832748044079253e-04  1.8248103010427208e-03  9.8148553145896650e-04  3.3361919045136754e-03  2.7917486346663877e-03  2.0288206850109522e-03  2.7406312574967074e-03  1.6751908165686183e-03  9.7718944785030225e-04  -1.3561227805301869e-19  -3.6170157958368999e-19  8.9819029202786657e-03  4.7913825630189122e-03  2.4461503030684336e-02  4.5045838014012497e-02  3.7525295197957470e-02  1.7055244195669166e-02  2.5686549303904103e-02  4.5166140750272270e-03  1.0034482011626164e-01  6.1948851223377482e-02  1.7269577531175580e-02  5.0041168515215013e-02  1.5977177916458953e-02  6.9622022875659620e-02  1.7710188044710998e-01  1.7304343951684564e-01  4.0252441883043028e-02  1.5260400139338637e-01  2.0237126135272698e-01  3.7247983259752059e-02  2.1706865549349594e-01  4.5498555981141588e-02  2.0595233359457264e-02  2.8247953452225943e-02  1.5919702877230177e-01  1.4853697928505868e-01  6.9641335739956720e-02  5.4918358154884238e-03  4.4028359119962779e-02  1.2068604722533991e-02  2.9628360168540289e-02  1.1793168686799992e-02  8.8363318214551637e-03  6.6578428201547000e-04  2.2301921066224086e-03  2.7634694305478449e-03  3.7954682430990047e-03  1.1432355762189767e-03  1.2590463494707284e-03  1.0894597231117817e-03  1.1165158831139611e-04  9.1815633185515137e-04  2.2731820320709569e-03  1.1063545604293704e-03  4.1116853230681811e-03  1.8981859918772250e-03  2.8629759099969574e-03  1.9172775877613216e-03  1.1229061029693808e-03  3.1166905250216787e-20  -2.8187627826534495e-19  1.3862800828022166e-02  1.3578205853759472e-02  1.1010453933713343e-02  4.9972758411829443e-03  4.4385061797095018e-02  5.1176810394362969e-02  5.3829734198377437e-02  7.2526719947699977e-02  8.2778652760135719e-03  4.5723434684576493e-02  1.8807561877255663e-01  8.3290492991809059e-02  1.1304272799295807e-01  7.4279545150980536e-02  3.6418780934855448e-02  2.0989947675507742e-02  1.1680066769439090e-02  3.7478064198182503e-03  3.5558645558067238e-02  7.0103209807807113e-02  1.5005180897699105e-01  6.2924387881632418e-02  5.8597817888340186e-03  9.7404668576258707e-02  1.4009961938043589e-01  9.9676090184709649e-03  1.2054383611714044e-01  1.0470317517361948e-01  1.9061397966607763e-02  4.0486396384957282e-02  1.9570955117473417e-02  7.9659822209766137e-03  1.5500994986215060e-02  5.4989624271516132e-03  2.7811006117824462e-03  9.4077118540559200e-04  3.7230547684379911e-03  2.1777888985300862e-03  4.6916354468391454e-04  2.2034374257770407e-04  1.5306997102321816e-03  3.5393984699282256e-04  2.4736617717644673e-03  1.6907834853101885e-03  2.9762177430039702e-03  3.2942703258934921e-03  2.0481196780529455e-03  2.5914978327743450e-03  1.3694336773993324e-03  -7.6018839967291834e-20  0.0000000000000000e+00  1.6302932605336343e-02  1.7104486165019472e-02  1.2827591503287328e-02  5.4457993205673239e-03  7.0586808799573547e-02  3.2260369494042263e-02  4.2018993148033389e-02  2.9833689976987092e-02  1.1645120582879254e-02  9.0132403248774487e-02  5.5902642295611552e-02  3.9337954620113628e-02  1.1511457589932833e-01  9.2178827324081065e-03  1.2041420998002639e-01  2.0353983348676435e-01  2.3334322991371878e-01  5.5495764067217804e-02  1.8104374341330332e-01  2.6656970057175344e-01  1.5918851913496408e-02  3.0310894008431655e-01  8.3974381524652530e-02  1.7400948891317464e-02  3.4354340295600867e-02  2.2078537222832034e-01  1.5209271919274128e-01  1.0355491881921465e-01  1.9775277637700015e-02  7.8469843695672600e-02  1.8835372314571330e-02  2.1559200041561217e-02  1.0111136041849440e-02  1.5128293265622227e-02  4.0976966626669262e-03  4.1052543788046699e-03  7.8106713743078776e-04  3.0346542140179946e-03  1.7931285973761286e-04  1.0159646966368242e-04  2.0239950309334006e-03  1.3242377412620234e-03  1.7581801441086404e-03  3.3868184808329396e-03  1.6877749395763022e-04  3.4680488538280877e-03  1.9279784299266905e-03  2.1837460647400921e-03  1.5563717385094398e-03  -2.1598996737113294e-19  -2.2119896610334600e-19  9.8840183868297935e-03  6.1872478015588695e-03  2.3637441462743273e-02  2.0109205956742742e-02  1.5560807723829151e-02  1.3682280800938638e-02  1.1198055144550711e-01  8.3530721192545662e-02  1.0930458378554149e-01  3.3393797531592211e-03  6.3940711112668344e-02  2.1698801266536472e-01  1.4770632919139134e-01  7.0811465326403547e-02  8.0355208557371716e-02  5.4691191632094072e-02  4.6130649333768169e-02  5.5333567625595872e-03  5.9988719622318568e-02  6.0535956181389718e-02  3.9966654705257412e-02  1.7016911588849357e-01  7.9557689127898124e-02  1.1907366273618182e-01  1.9645237739863486e-01  2.1534321680619170e-01  2.1888900659227332e-02  7.9509982679483560e-02  1.4920601487430943e-01  7.0170149558629588e-02  5.4213503675684623e-02  5.0297776714334228e-03  1.8078398384731315e-03  2.0498482276742988e-02  1.4739016746629386e-02  6.1041346216865692e-03  3.3555264179687050e-03  1.3140887077890877e-03  8.3597909569593017e-04  1.0056075410269237e-03  2.1454347733181633e-03  2.4805203442107536e-03  2.2283399966790038e-03  3.2619879281434961e-03  2.7734966472203163e-03  1.9295126916968150e-03  2.7273726146193515e-03  1.4449049623928344e-03  1.1370161540574394e-03  -1.8587891576254767e-19  -8.6040108502887672e-35  1.1615707269880775e-02  8.1989452009867941e-03  8.2879459665340560e-04  4.7796086874427593e-03  5.9883065998846546e-03  7.4223387458325657e-02  2.8110318190553478e-02  3.0899621020736720e-02  4.6579491560807484e-02  1.0923283984025989e-01  1.1690385110288416e-01  6.8096809438282752e-02  5.2071979067177580e-02  1.7524187791852613e-01  1.0067129720127707e-01  4.6696785791705817e-02  3.5716355757369966e-01  2.4638761345007532e-01  9.4043775494587104e-02  1.7668487469361516e-01  4.0035454706841317e-01  1.0133838854577747e-03  3.9585398819474304e-01  1.1381100622519572e-01  4.7358729385588723e-02  1.3918209250582927e-01  4.3320152218826613e-01  3.6261733901507075e-02  2.3282465932600846e-01  1.1379975761181198e-02  1.7022017005273521e-01  5.7900810704857635e-02  1.0085632820890266e-02  1.7898547800410187e-02  2.4373831032223816e-02  1.3156331985044564e-02  7.8284934114388107e-03  2.2666471499472257e-03  7.1000137647280490e-04  1.7280003371367705e-03  2.2695447904478986e-03  4.1495277052711905e-03  3.0821098121181791e-03  3.7027887774683491e-03  4.5935832873694599e-03  9.1649150167998495e-04  2.4429657103019367e-03  1.7897385505537559e-03  1.2503523103777219e-03  -6.9408496193729999e-20  -1.8367842084932075e-19  1.8170439475032187e-02  1.5803681339161629e-02  4.3753912156468963e-03  2.5367289002425592e-02  4.7153012223898087e-03  9.3817653460252538e-03  2.4913105663839079e-02  1.2206064247740439e-01  5.1897222937332496e-02  1.6608632636532653e-01  7.4160626763483534e-02  2.2323633535722170e-01  3.7616926524096456e-01  1.2268280918915142e-01  1.1421408738363834e-01  4.6004051529093752e-02  1.9575461438125562e-03  9.5176027723229584e-02  3.0271532438023602e-01  2.1433897055046944e-01  1.6859591808131916e-01  5.6208804158544762e-02  8.1070525055348541e-01  6.1923088920144261e-02  5.2688002111458868e-02  5.1080310689768010e-02  6.5251684932035614e-01  1.0748772658796786e-01  1.8966062871400269e-01  3.7697836947976732e-01  2.1596447703966382e-01  1.1168830990239886e-01  1.7710178598775203e-02  2.7467188367993868e-02  2.7372741446610050e-02  2.5344009446212991e-02  1.2614503808440664e-02  6.6355061905428257e-03  1.8173867099639191e-03  1.0813498153120905e-03  2.9524914683229141e-03  4.7454365620156523e-03  4.4009003401447215e-03  5.0145239487251305e-03  5.2279283696341459e-03  4.6115556848062168e-03  2.2112359523177125e-04  1.4940173819882740e-03  1.1891852401851929e-03  -6.6013041709899795e-20  1.9884825076222928e-33  3.3088562707720127e-03  1.0487182147755613e-02  2.2100729297011300e-02  2.7626412273128061e-02  8.3985926056892573e-03  5.1623325251413910e-04  6.1214596464418666e-02  4.0057967606250151e-03  6.1980281255897648e-02  5.1223260445813448e-02  8.0744955489803191e-02  1.8338126391424863e-03  3.7143187288758962e-02  4.2366588233348629e-02  4.5119479678067032e-01  2.3440360954486640e-03  1.5840919222267605e-01  3.7536097891400949e-01  3.1358763772208892e-01  8.7599082958076513e-01  8.5054478178521054e-01  2.4154160144201292e-01  1.7268567267136908e-01  4.9447405711717884e-01  2.6938774663954154e-02  1.2458930783146133e-01  1.0678057510959370e-01  4.2615725249477754e-01  1.2033734140923068e-01  2.7961636979019955e-01  1.4706829642004113e-01  2.3961618309810218e-01  1.3599875717906360e-01  6.9488893263568483e-02  4.7596026745371008e-02  3.8274441197745757e-02  2.5492372847536318e-02  1.2177337285653522e-02  4.7499374122868497e-03  1.6076723124589395e-03  3.0582198392965112e-03  3.9364442501710131e-03  6.2632876548014112e-03  4.7208241677630389e-03  6.5587923604775947e-03  6.5272398846682195e-03  3.1640683122666578e-03  7.1232184354321087e-05  1.5678460024470678e-04  2.0270168660664443e-18  6.1184077157609008e-34  1.4850056213786480e-02  1.8220767268858965e-03  5.9336298327271686e-03  4.6247474276624213e-03  2.2148872058902107e-03  5.1353067887155622e-02  3.0560666100429304e-02  2.4877228452778205e-02  1.3804407672758504e-01  2.1535074113011956e-03  2.4568392911011080e-01  1.1689654279242287e-01  2.3504458773089981e-01  2.3312884056718344e-01  4.2992315451351454e-01  8.9458713681958013e-03  2.3529304687325812e-02  5.4212347745820533e-01  5.2634713609443912e-02  1.8696997135513049e-01  1.4101657768833600e-01  2.1019899479752552e-01  1.9761847340337751e-01  1.2520578798749457e-01  1.7168976923151594e-01  4.8196139027313865e-02  5.8193969648217943e-02  4.9962716140581377e-02  8.4810791748366060e-02  1.7725030290205748e-02  3.0158805625657487e-01  3.1622179959919228e-01  3.3770970456346572e-01  1.1777361025345731e-01  9.1649581646836897e-02  5.0196840984571292e-02  3.9388917554845297e-02  2.3204900920258672e-02  9.7196023673731969e-03  4.0166539789143274e-03  2.4149284036905994e-03  3.7315267578995823e-03  6.1051873623605875e-03  5.4335423393731706e-03  6.4357102661287188e-03  6.9347316538166150e-03  5.9195259481402245e-03  1.7141255594865341e-03  7.6831695401480748e-04  1.3384016878226970e-34  -1.0060743643058410e-18  8.9397690076648585e-03  9.4315565329654901e-03  9.6938320114994137e-03  7.3850647297711665e-03  1.2600329456174449e-03  1.8985108674587990e-02  6.8510223359085501e-03  1.3464800761617813e-02  6.4269647074732997e-02  9.729409