<?xml version="1.0"?>
<VTKFile type="UnstructuredGrid"  version="0.1"  >
<UnstructuredGrid>
<Piece  NumberOfPoints="2601" NumberOfCells="5000">
<Points>
<DataArray  type="Float64"  NumberOfComponents="3"  format="ascii">0 0 0  0.02 0 0  0.04 0 0  0.06 0 0  0.08 0 0  0.1 0 0  0.12 0 0  0.14 0 0  0.16 0 0  0.18 0 0  0.2 0 0  0.22 0 0  0.24 0 0  0.26 0 0  0.28 0 0  0.3 0 0  0.32 0 0  0.34 0 0  0.36 0 0  0.38 0 0  0.4 0 0  0.42 0 0  0.44 0 0  0.46 0 0  0.48 0 0  0.5 0 0  0.52 0 0  0.54 0 0  0.5600000000000001 0 0  0.58 0 0  0.6 0 0  0.62 0 0  0.64 0 0  0.66 0 0  0.68 0 0  0.7 0 0  0.72 0 0  0.74 0 0  0.76 0 0  0.78 0 0  0.8 0 0  0.82 0 0  0.84 0 0  0.86 0 0  0.88 0 0  0.9 0 0  0.92 0 0  0.9399999999999999 0 0  0.96 0 0  0.98 0 0  1 0 0  0 0.02 0  0.02 0.02 0  0.04 0.02 0  0.06 0.02 0  0.08 0.02 0  0.1 0.02 0  0.12 0.02 0  0.14 0.02 0  0.16 0.02 0  0.18 0.02 0  0.2 0.02 0  0.22 0.02 0  0.24 0.02 0  0.26 0.02 0  0.28 0.02 0  0.3 0.02 0  0.32 0.02 0  0.34 0.02 0  0.36 0.02 0  0.38 0.02 0  0.4 0.02 0  0.42 0.02 0  0.44 0.02 0  0.46 0.02 0  0.48 0.02 0  0.5 0.02 0  0.52 0.02 0  0.54 0.02 0  0.5600000000000001 0.02 0  0.58 0.02 0  0.6 0.02 0  0.62 0.02 0  0.64 0.02 0  0.66 0.02 0  0.68 0.02 0  0.7 0.02 0  0.72 0.02 0  0.74 0.02 0  0.76 0.02 0  0.78 0.02 0  0.8 0.02 0  0.82 0.02 0  0.84 0.02 0  0.86 0.02 0  0.88 0.02 0  0.9 0.02 0  0.92 0.02 0  0.9399999999999999 0.02 0  0.96 0.02 0  0.98 0.02 0  1 0.02 0  0 0.04 0  0.02 0.04 0  0.04 0.04 0  0.06 0.04 0  0.08 0.04 0  0.1 0.04 0  0.12 0.04 0  0.14 0.04 0  0.16 0.04 0  0.18 0.04 0  0.2 0.04 0  0.22 0.04 0  0.24 0.04 0  0.26 0.04 0  0.28 0.04 0  0.3 0.04 0  0.32 0.04 0  0.34 0.04 0  0.36 0.04 0  0.38 0.04 0  0.4 0.04 0  0.42 0.04 0  0.44 0.04 0  0.46 0.04 0  0.48 0.04 0  0.5 0.04 0  0.52 0.04 0  0.54 0.04 0  0.5600000000000001 0.04 0  0.58 0.04 0  0.6 0.04 0  0.62 0.04 0  0.64 0.04 0  0.66 0.04 0  0.68 0.04 0  0.7 0.04 0  0.72 0.04 0  0.74 0.04 0  0.76 0.04 0  0.78 0.04 0  0.8 0.04 0  0.82 0.04 0  0.84 0.04 0  0.86 0.04 0  0.88 0.04 0  0.9 0.04 0  0.92 0.04 0  0.9399999999999999 0.04 0  0.96 0.04 0  0.98 0.04 0  1 0.04 0  0 0.06 0  0.02 0.06 0  0.04 0.06 0  0.06 0.06 0  0.08 0.06 0  0.1 0.06 0  0.12 0.06 0  0.14 0.06 0  0.16 0.06 0  0.18 0.06 0  0.2 0.06 0  0.22 0.06 0  0.24 0.06 0  0.26 0.06 0  0.28 0.06 0  0.3 0.06 0  0.32 0.06 0  0.34 0.06 0  0.36 0.06 0  0.38 0.06 0  0.4 0.06 0  0.42 0.06 0  0.44 0.06 0  0.46 0.06 0  0.48 0.06 0  0.5 0.06 0  0.52 0.06 0  0.54 0.06 0  0.5600000000000001 0.06 0  0.58 0.06 0  0.6 0.06 0  0.62 0.06 0  0.64 0.06 0  0.66 0.06 0  0.68 0.06 0  0.7 0.06 0  0.72 0.06 0  0.74 0.06 0  0.76 0.06 0  0.78 0.06 0  0.8 0.06 0  0.82 0.06 0  0.84 0.06 0  0.86 0.06 0  0.88 0.06 0  0.9 0.06 0  0.92 0.06 0  0.9399999999999999 0.06 0  0.96 0.06 0  0.98 0.06 0  1 0.06 0  0 0.08 0  0.02 0.08 0  0.04 0.08 0  0.06 0.08 0  0.08 0.08 0  0.1 0.08 0  0.12 0.08 0  0.14 0.08 0  0.16 0.08 0  0.18 0.08 0  0.2 0.08 0  0.22 0.08 0  0.24 0.08 0  0.26 0.08 0  0.28 0.08 0  0.3 0.08 0  0.32 0.08 0  0.34 0.08 0  0.36 0.08 0  0.38 0.08 0  0.4 0.08 0  0.42 0.08 0  0.44 0.08 0  0.46 0.08 0  0.48 0.08 0  0.5 0.08 0  0.52 0.08 0  0.54 0.08 0  0.5600000000000001 0.08 0  0.58 0.08 0  0.6 0.08 0  0.62 0.08 0  0.64 0.08 0  0.66 0.08 0  0.68 0.08 0  0.7 0.08 0  0.72 0.08 0  0.74 0.08 0  0.76 0.08 0  0.78 0.08 0  0.8 0.08 0  0.82 0.08 0  0.84 0.08 0  0.86 0.08 0  0.88 0.08 0  0.9 0.08 0  0.92 0.08 0  0.9399999999999999 0.08 0  0.96 0.08 0  0.98 0.08 0  1 0.08 0  0 0.1 0  0.02 0.1 0  0.04 0.1 0  0.06 0.1 0  0.08 0.1 0  0.1 0.1 0  0.12 0.1 0  0.14 0.1 0  0.16 0.1 0  0.18 0.1 0  0.2 0.1 0  0.22 0.1 0  0.24 0.1 0  0.26 0.1 0  0.28 0.1 0  0.3 0.1 0  0.32 0.1 0  0.34 0.1 0  0.36 0.1 0  0.38 0.1 0  0.4 0.1 0  0.42 0.1 0  0.44 0.1 0  0.46 0.1 0  0.48 0.1 0  0.5 0.1 0  0.52 0.1 0  0.54 0.1 0  0.5600000000000001 0.1 0  0.58 0.1 0  0.6 0.1 0  0.62 0.1 0  0.64 0.1 0  0.66 0.1 0  0.68 0.1 0  0.7 0.1 0  0.72 0.1 0  0.74 0.1 0  0.76 0.1 0  0.78 0.1 0  0.8 0.1 0  0.82 0.1 0  0.84 0.1 0  0.86 0.1 0  0.88 0.1 0  0.9 0.1 0  0.92 0.1 0  0.9399999999999999 0.1 0  0.96 0.1 0  0.98 0.1 0  1 0.1 0  0 0.12 0  0.02 0.12 0  0.04 0.12 0  0.06 0.12 0  0.08 0.12 0  0.1 0.12 0  0.12 0.12 0  0.14 0.12 0  0.16 0.12 0  0.18 0.12 0  0.2 0.12 0  0.22 0.12 0  0.24 0.12 0  0.26 0.12 0  0.28 0.12 0  0.3 0.12 0  0.32 0.12 0  0.34 0.12 0  0.36 0.12 0  0.38 0.12 0  0.4 0.12 0  0.42 0.12 0  0.44 0.12 0  0.46 0.12 0  0.48 0.12 0  0.5 0.12 0  0.52 0.12 0  0.54 0.12 0  0.5600000000000001 0.12 0  0.58 0.12 0  0.6 0.12 0  0.62 0.12 0  0.64 0.12 0  0.66 0.12 0  0.68 0.12 0  0.7 0.12 0  0.72 0.12 0  0.74 0.12 0  0.76 0.12 0  0.78 0.12 0  0.8 0.12 0  0.82 0.12 0  0.84 0.12 0  0.86 0.12 0  0.88 0.12 0  0.9 0.12 0  0.92 0.12 0  0.9399999999999999 0.12 0  0.96 0.12 0  0.98 0.12 0  1 0.12 0  0 0.14 0  0.02 0.14 0  0.04 0.14 0  0.06 0.14 0  0.08 0.14 0  0.1 0.14 0  0.12 0.14 0  0.14 0.14 0  0.16 0.14 0  0.18 0.14 0  0.2 0.14 0  0.22 0.14 0  0.24 0.14 0  0.26 0.14 0  0.28 0.14 0  0.3 0.14 0  0.32 0.14 0  0.34 0.14 0  0.36 0.14 0  0.38 0.14 0  0.4 0.14 0  0.42 0.14 0  0.44 0.14 0  0.46 0.14 0  0.48 0.14 0  0.5 0.14 0  0.52 0.14 0  0.54 0.14 0  0.5600000000000001 0.14 0  0.58 0.14 0  0.6 0.14 0  0.62 0.14 0  0.64 0.14 0  0.66 0.14 0  0.68 0.14 0  0.7 0.14 0  0.72 0.14 0  0.74 0.14 0  0.76 0.14 0  0.78 0.14 0  0.8 0.14 0  0.82 0.14 0  0.84 0.14 0  0.86 0.14 0  0.88 0.14 0  0.9 0.14 0  0.92 0.14 0  0.9399999999999999 0.14 0  0.96 0.14 0  0.98 0.14 0  1 0.14 0  0 0.16 0  0.02 0.16 0  0.04 0.16 0  0.06 0.16 0  0.08 0.16 0  0.1 0.16 0  0.12 0.16 0  0.14 0.16 0  0.16 0.16 0  0.18 0.16 0  0.2 0.16 0  0.22 0.16 0  0.24 0.16 0  0.26 0.16 0  0.28 0.16 0  0.3 0.16 0  0.32 0.16 0  0.34 0.16 0  0.36 0.16 0  0.38 0.16 0  0.4 0.16 0  0.42 0.16 0  0.44 0.16 0  0.46 0.16 0  0.48 0.16 0  0.5 0.16 0  0.52 0.16 0  0.54 0.16 0  0.5600000000000001 0.16 0  0.58 0.16 0  0.6 0.16 0  0.62 0.16 0  0.64 0.16 0  0.66 0.16 0  0.68 0.16 0  0.7 0.16 0  0.72 0.16 0  0.74 0.16 0  0.76 0.16 0  0.78 0.16 0  0.8 0.16 0  0.82 0.16 0  0.84 0.16 0  0.86 0.16 0  0.88 0.16 0  0.9 0.16 0  0.92 0.16 0  0.9399999999999999 0.16 0  0.96 0.16 0  0.98 0.16 0  1 0.16 0  0 0.18 0  0.02 0.18 0  0.04 0.18 0  0.06 0.18 0  0.08 0.18 0  0.1 0.18 0  0.12 0.18 0  0.14 0.18 0  0.16 0.18 0  0.18 0.18 0  0.2 0.18 0  0.22 0.18 0  0.24 0.18 0  0.26 0.18 0  0.28 0.18 0  0.3 0.18 0  0.32 0.18 0  0.34 0.18 0  0.36 0.18 0  0.38 0.18 0  0.4 0.18 0  0.42 0.18 0  0.44 0.18 0  0.46 0.18 0  0.48 0.18 0  0.5 0.18 0  0.52 0.18 0  0.54 0.18 0  0.5600000000000001 0.18 0  0.58 0.18 0  0.6 0.18 0  0.62 0.18 0  0.64 0.18 0  0.66 0.18 0  0.68 0.18 0  0.7 0.18 0  0.72 0.18 0  0.74 0.18 0  0.76 0.18 0  0.78 0.18 0  0.8 0.18 0  0.82 0.18 0  0.84 0.18 0  0.86 0.18 0  0.88 0.18 0  0.9 0.18 0  0.92 0.18 0  0.9399999999999999 0.18 0  0.96 0.18 0  0.98 0.18 0  1 0.18 0  0 0.2 0  0.02 0.2 0  0.04 0.2 0  0.06 0.2 0  0.08 0.2 0  0.1 0.2 0  0.12 0.2 0  0.14 0.2 0  0.16 0.2 0  0.18 0.2 0  0.2 0.2 0  0.22 0.2 0  0.24 0.2 0  0.26 0.2 0  0.28 0.2 0  0.3 0.2 0  0.32 0.2 0  0.34 0.2 0  0.36 0.2 0  0.38 0.2 0  0.4 0.2 0  0.42 0.2 0  0.44 0.2 0  0.46 0.2 0  0.48 0.2 0  0.5 0.2 0  0.52 0.2 0  0.54 0.2 0  0.5600000000000001 0.2 0  0.58 0.2 0  0.6 0.2 0  0.62 0.2 0  0.64 0.2 0  0.66 0.2 0  0.68 0.2 0  0.7 0.2 0  0.72 0.2 0  0.74 0.2 0  0.76 0.2 0  0.78 0.2 0  0.8 0.2 0  0.82 0.2 0  0.84 0.2 0  0.86 0.2 0  0.88 0.2 0  0.9 0.2 0  0.92 0.2 0  0.9399999999999999 0.2 0  0.96 0.2 0  0.98 0.2 0  1 0.2 0  0 0.22 0  0.02 0.22 0  0.04 0.22 0  0.06 0.22 0  0.08 0.22 0  0.1 0.22 0  0.12 0.22 0  0.14 0.22 0  0.16 0.22 0  0.18 0.22 0  0.2 0.22 0  0.22 0.22 0  0.24 0.22 0  0.26 0.22 0  0.28 0.22 0  0.3 0.22 0  0.32 0.22 0  0.34 0.22 0  0.36 0.22 0  0.38 0.22 0  0.4 0.22 0  0.42 0.22 0  0.44 0.22 0  0.46 0.22 0  0.48 0.22 0  0.5 0.22 0  0.52 0.22 0  0.54 0.22 0  0.5600000000000001 0.22 0  0.58 0.22 0  0.6 0.22 0  0.62 0.22 0  0.64 0.22 0  0.66 0.22 0  0.68 0.22 0  0.7 0.22 0  0.72 0.22 0  0.74 0.22 0  0.76 0.22 0  0.78 0.22 0  0.8 0.22 0  0.82 0.22 0  0.84 0.22 0  0.86 0.22 0  0.88 0.22 0  0.9 0.22 0  0.92 0.22 0  0.9399999999999999 0.22 0  0.96 0.22 0  0.98 0.22 0  1 0.22 0  0 0.24 0  0.02 0.24 0  0.04 0.24 0  0.06 0.24 0  0.08 0.24 0  0.1 0.24 0  0.12 0.24 0  0.14 0.24 0  0.16 0.24 0  0.18 0.24 0  0.2 0.24 0  0.22 0.24 0  0.24 0.24 0  0.26 0.24 0  0.28 0.24 0  0.3 0.24 0  0.32 0.24 0  0.34 0.24 0  0.36 0.24 0  0.38 0.24 0  0.4 0.24 0  0.42 0.24 0  0.44 0.24 0  0.46 0.24 0  0.48 0.24 0  0.5 0.24 0  0.52 0.24 0  0.54 0.24 0  0.5600000000000001 0.24 0  0.58 0.24 0  0.6 0.24 0  0.62 0.24 0  0.64 0.24 0  0.66 0.24 0  0.68 0.24 0  0.7 0.24 0  0.72 0.24 0  0.74 0.24 0  0.76 0.24 0  0.78 0.24 0  0.8 0.24 0  0.82 0.24 0  0.84 0.24 0  0.86 0.24 0  0.88 0.24 0  0.9 0.24 0  0.92 0.24 0  0.9399999999999999 0.24 0  0.96 0.24 0  0.98 0.24 0  1 0.24 0  0 0.26 0  0.02 0.26 0  0.04 0.26 0  0.06 0.26 0  0.08 0.26 0  0.1 0.26 0  0.12 0.26 0  0.14 0.26 0  0.16 0.26 0  0.18 0.26 0  0.2 0.26 0  0.22 0.26 0  0.24 0.26 0  0.26 0.26 0  0.28 0.26 0  0.3 0.26 0  0.32 0.26 0  0.34 0.26 0  0.36 0.26 0  0.38 0.26 0  0.4 0.26 0  0.42 0.26 0  0.44 0.26 0  0.46 0.26 0  0.48 0.26 0  0.5 0.26 0  0.52 0.26 0  0.54 0.26 0  0.5600000000000001 0.26 0  0.58 0.26 0  0.6 0.26 0  0.62 0.26 0  0.64 0.26 0  0.66 0.26 0  0.68 0.26 0  0.7 0.26 0  0.72 0.26 0  0.74 0.26 0  0.76 0.26 0  0.78 0.26 0  0.8 0.26 0  0.82 0.26 0  0.84 0.26 0  0.86 0.26 0  0.88 0.26 0  0.9 0.26 0  0.92 0.26 0  0.9399999999999999 0.26 0  0.96 0.26 0  0.98 0.26 0  1 0.26 0  0 0.28 0  0.02 0.28 0  0.04 0.28 0  0.06 0.28 0  0.08 0.28 0  0.1 0.28 0  0.12 0.28 0  0.14 0.28 0  0.16 0.28 0  0.18 0.28 0  0.2 0.28 0  0.22 0.28 0  0.24 0.28 0  0.26 0.28 0  0.28 0.28 0  0.3 0.28 0  0.32 0.28 0  0.34 0.28 0  0.36 0.28 0  0.38 0.28 0  0.4 0.28 0  0.42 0.28 0  0.44 0.28 0  0.46 0.28 0  0.48 0.28 0  0.5 0.28 0  0.52 0.28 0  0.54 0.28 0  0.5600000000000001 0.28 0  0.58 0.28 0  0.6 0.28 0  0.62 0.28 0  0.64 0.28 0  0.66 0.28 0  0.68 0.28 0  0.7 0.28 0  0.72 0.28 0  0.74 0.28 0  0.76 0.28 0  0.78 0.28 0  0.8 0.28 0  0.82 0.28 0  0.84 0.28 0  0.86 0.28
[...]
<PointData  Scalars="Indicator Function"> 
<DataArray  type="Float64"  Name="Indicator Function"  format="ascii">-2.5413582062079167e-22  3.4144757481107477e-20  1.2932863477812983e-20  2.2722657239360195e-19  3.7658791230417211e-19  5.6423728839469800e-37  -2.5785699914370199e-20  2.7936902919392663e-18  2.0329208866068154e-18  -2.4537550732931603e-20  2.0388165936628642e-18  5.3879912659413329e-18  -1.9528819268332346e-20  -9.7644096341663041e-21  -4.5391193574652841e-19  -6.5343184755133763e-20  -3.8563971120232844e-20  6.3413696918861037e-18  -1.3863108680519003e-20  -2.3513143002855038e-20  1.4563815498846711e-18  -3.2278922055524437e-20  -3.6205739830610832e-20  9.2438772904104026e-18  -7.8048955779030907e-21  -1.2097493108369486e-20  -5.2136488116043669e-21  -1.2202334507274165e-21  4.3314647664584046e-19  1.1754943508222875e-38  -6.0617435834639682e-23  -3.2817153500859063e-23  -2.2288562151660718e-23  -1.6119634378065561e-23  9.4113315668545760e-22  -4.6815069304216346e-24  -3.0326387832071933e-24  -4.0370533747864524e-24  -6.1169372149067746e-24  -1.0793209116256183e-23  -4.5888606755745318e-23  -8.8730941894887297e-24  -1.6044839102332658e-24  -8.0224195511662556e-25  -8.8492458844881334e-25  -1.1116012188179647e-24  1.9519811656898180e-22  -2.0374384524933475e-25  -6.2087420413529516e-25  -2.5950114075531424e-25  -7.3468396926392969e-40  -7.9956317088583611e-22  1.2675148046738988e-05  8.1423981417793682e-05  5.8223188312463667e-05  1.8490120420455098e-04  1.0615280630681496e-04  1.3063506621131430e-04  5.0535523580132571e-04  2.9720744877344816e-04  6.2388084034092428e-04  4.4202921734966201e-04  2.5979752461895329e-04  4.0421003848984565e-04  3.5179993271938927e-04  3.6706745328277742e-04  2.3178939850265298e-04  1.3894134877360696e-03  7.6355037155961293e-04  1.0509943441592753e-03  3.1409984451000644e-04  3.5674659869894612e-04  9.2258432556576971e-04  1.2019320258183949e-04  6.5222462563924838e-04  4.4384949235459358e-04  1.4060049926523997e-04  2.1792906181987984e-04  3.8030277718724722e-06  2.1981771656003874e-05  5.9357745596287540e-06  2.1169923881305292e-06  1.6060255831467238e-06  1.1775970396130512e-06  8.7631515146390966e-07  6.7380678217862215e-07  4.9932349920548992e-07  3.5691997600055387e-07  3.0794879042485664e-07  2.7947725898347838e-07  2.9671230157941421e-07  3.6880387582140945e-07  3.6829530303243701e-07  9.3253888313408993e-08  2.8903812560993837e-08  3.0646359595250485e-08  5.5204197949204056e-08  3.9292770344981504e-08  1.5194412647318701e-08  3.6703228221757389e-09  9.3495139264627915e-09  2.5950114075531405e-25  1.8807909613156600e-36  1.4403649593842495e-05  5.0527175415394998e-05  1.3434667714749997e-04  1.2588241744982862e-04  5.4741229435872587e-05  7.4045871470951650e-05  5.3430673856479235e-04  2.4001689662636754e-04  1.1415947241758582e-04  2.6089806448520360e-06  5.0626028908683229e-04  1.1156360516353667e-03  6.7150923643525433e-04  1.1958921065169491e-04  1.1554119585267186e-03  1.2179161706784823e-03  1.1395685934753972e-03  2.1613041442662233e-03  6.4202980468615464e-04  6.2505746739630432e-04  4.5173515297484268e-04  1.7096419798725193e-03  1.4407661805639245e-03  4.6881540719882016e-04  8.8422703343255980e-05  1.9948182267424047e-04  1.5412503779337918e-04  5.3350499883788913e-05  3.1294699028486869e-06  3.4383030748996770e-06  3.4436778280528343e-06  2.2884806795865344e-06  1.7267744249611337e-06  1.3565544046523253e-06  1.0732005414302132e-06  8.0609623807685618e-07  6.4842449485494723e-07  5.8190196186997866e-07  5.5301061021843422e-07  5.9396002772249983e-07  7.0915519612231571e-07  4.7461207758343894e-07  8.5648357621302503e-08  8.5135963775849715e-08  1.6062248682906019e-07  1.4887257258017701e-07  1.0401782660468903e-07  5.6776482868869403e-08  1.9364647397553271e-08  -2.6257297022099678e-25  -2.0055827622689287e-21  5.3030561312083218e-05  3.2249267332599297e-05  1.4217242989751411e-04  1.0618859973420728e-04  3.7876771479871790e-04  2.3867034541652786e-04  1.6817394953298867e-04  9.4884505509024446e-04  5.9987395965500217e-04  1.2087902125520991e-03  9.5327746080863690e-04  6.6451287092943493e-04  8.5438347875616894e-04  6.2504250755068044e-04  5.7277410612702206e-04  4.7871786202706326e-04  2.6220538603455683e-03  1.4233138533487266e-03  1.9154531523586007e-03  4.5786756849852797e-04  6.3125955019294395e-04  1.6818676488692095e-03  2.6585779070048294e-04  1.3498228892787926e-03  9.4930314937251899e-04  3.1649435964198623e-04  4.1451036547215952e-04  2.6438588342277843e-06  4.6485089977848861e-05  1.1991344800372799e-05  4.2790563011848429e-06  3.4289049451440019e-06  2.6042053595915810e-06  2.0080666024620760e-06  1.5917215662965765e-06  1.2295071374669782e-06  9.2698539451096483e-07  8.0611837485597216e-07  7.2183068997083206e-07  7.2426092345256485e-07  8.3097574604458101e-07  8.3603998562437987e-07  3.2079031668854624e-07  8.5618168847911208e-08  1.9844307489977751e-07  2.3323298995482302e-07  1.8740009517885217e-07  1.2349255029964808e-07  5.9235366624908997e-08  -8.2205584873858244e-24  1.8807909613156600e-37  5.6922020507784430e-05  6.1441751621813683e-06  9.1500075380469094e-05  1.9710484603304682e-04  2.0318218523578330e-04  1.4062008283841491e-04  1.4939731081272105e-04  8.7909699055386701e-04  2.5211656640419870e-04  2.4143308384409794e-04  7.2386326226381881e-05  8.6174666971603506e-04  1.9548541695676202e-03  1.3526984974264490e-03  2.5178042879268311e-05  1.8770996932161480e-03  2.1404999360693832e-03  1.5729556166955744e-03  3.4795415514551997e-03  8.9989865648202054e-04  9.0696724186057698e-04  6.6889989543313360e-04  2.7796148786491982e-03  2.4352002455580958e-03  9.0904033403351402e-04  2.3801912042266971e-04  4.0388801386748586e-04  1.9159664902434622e-04  8.9658229569897951e-05  8.1148904956792865e-06  5.0025511519930357e-06  5.5345744437921936e-06  3.8449646234661296e-06  2.8853399964143105e-06  2.2229620226715309e-06  1.7206088407443291e-06  1.2702356589854859e-06  1.0031474619225558e-06  8.8181478297698402e-07  8.2129003813903363e-07  8.7322603366682346e-07  1.0386700227500786e-06  6.9434152483098721e-07  1.4095528119929401e-07  1.6439498474646182e-07  2.8417399253540869e-07  2.6686114960649579e-07  1.9602694101910576e-07  1.0796513517038025e-07  8.4460873652351141e-24  -4.0747866341526256e-23  1.4367711874280335e-05  7.5514896666137535e-05  9.1400428834472516e-05  1.9801792739588129e-04  1.3888462868073419e-04  5.2568462642860116e-04  3.7111145189729869e-04  1.9142766046386124e-04  1.4780511789326074e-03  9.6663692542182282e-04  1.8195284359119224e-03  1.4479978776238099e-03  9.2345401817682830e-04  1.0703679369444105e-03  6.1077158570451340e-04  7.7009851949036174e-04  3.3580739677103045e-04  3.7277586274386885e-03  2.6446905630054065e-03  2.5794305642877829e-03  6.3976251377014610e-04  9.7504848508756664e-04  2.7024669976369871e-03  2.1965718829846013e-04  1.9735056842050520e-03  1.4732131738830786e-03  4.2888125521237054e-04  6.1645638189421952e-04  2.7605786457880161e-05  6.0888048968654941e-05  1.7743895211649591e-05  8.1930594062006069e-06  6.0503429766297363e-06  4.4324513397591983e-06  3.2864113217424488e-06  2.4796339954619041e-06  1.8213738313009384e-06  1.3129870835937341e-06  1.0954190672758576e-06  9.4951652181597201e-07  9.4453894540151738e-07  1.0963271072977625e-06  1.0883862034285591e-06  3.8793993270103124e-07  1.1088953497826078e-07  2.8714433443289600e-07  3.4113823319335564e-07  2.7741949921341285e-07  1.6725229572251413e-07  -3.4061055044475547e-24  -2.0559623484886828e-22  1.1201938449697562e-05  9.2301173129835835e-05  3.5816983317773002e-05  1.9573420570241076e-04  2.3295602659915418e-04  3.7536836827771323e-04  2.2414206440827777e-04  3.5356988950749178e-04  1.3876204907499144e-03  1.0681254835332402e-04  6.2891746815033013e-04  4.2415099575607995e-04  1.5587300566620621e-03  3.4128975964967580e-03  2.7204996410465994e-03  4.0999894306187492e-04  2.9654383720537853e-03  3.8645905851774722e-03  1.7632765508180867e-03  5.4293429581463055e-03  1.2268536428205702e-03  1.2957856793634119e-03  1.0261695080258837e-03  4.3106909270500069e-03  3.8675853514120060e-03  1.7056182860358384e-03  5.8935318573540951e-04  8.3781462139985278e-04  1.9507316609807508e-04  1.4275088464427447e-04  2.8138575698590491e-05  1.1599313050469435e-05  1.0843162421491884e-05  7.5985824827746084e-06  5.3927223421255853e-06  3.8657069535725056e-06  2.7749640647489713e-06  1.9201142029637987e-06  1.4304120121822481e-06  1.1893378096542423e-06  1.0746360877126247e-06  1.1396650946186566e-06  1.3510831174426331e-06  8.5299689644662585e-07  1.5801568577176901e-07  2.3383759320407145e-07  3.9699032038103285e-07  3.6660530289329887e-07  2.3648786822219738e-07  -1.3127713817240178e-23  3.5735028264997540e-36  3.7036925066165679e-06  1.2277096458462978e-05  1.0770702248245503e-04  2.0119148123956516e-04  3.2996092245341933e-04  2.5175576428155942e-04  7.1363093699536913e-04  4.8402704535046540e-04  2.2034997658584125e-04  2.3467001678713997e-03  1.5147107809100194e-03  2.7088407622627114e-03  2.1467318969215434e-03  1.1855399677985910e-03  1.2349308555284736e-03  2.7705769994261162e-04  8.3231353644140930e-04  1.6817009075423246e-04  4.9334417067560497e-03  4.8185860422306735e-03  3.1966964795412988e-03  9.7779857291457905e-04  1.6388072035173453e-03  4.3990933888059377e-03  7.6779422351189156e-05  2.6903583656197909e-03  2.2351304035500815e-03  4.6874194440601948e-04  8.8617188428636434e-04  6.4247447614126615e-05  5.5615946436238132e-05  3.4049396843839527e-05  2.1283155461013125e-05  1.4415513434884245e-05  9.7498420098596457e-06  6.6134515869122246e-06  4.5473527794177674e-06  3.0750965102677237e-06  2.0709201919335307e-06  1.6045788100653072e-06  1.3125846353656336e-06  1.2696983972976801e-06  1.4633772662824765e-06  1.3956845303291395e-06  4.5607397556325896e-07  1.6058111251022738e-07  4.0590585646055533e-07  4.5541670568387047e-07  3.1461350329176392e-07  -1.8431011005285296e-23  -1.7488272337101896e-21  1.4432160812968973e-05  1.0804152157979000e-05  1.5611850719650402e-04  9.2432270537075651e-05  3.2710720390107282e-04  1.5056949129605771e-04  6.5390192904275172e-04  1.5591207826911858e-04  8.3122938743428318e-04  2.1150011002629347e-03  3.4480454730120662e-04  1.4481551726884298e-03  1.1042082269034021e-03  2.7686832743657186e-03  5.7745776782584567e-03  5.1652609550677754e-03  1.4839285756179563e-03  4.8388595829716016e-03  6.9895430851105132e-03  1.7369748056589287e-03  8.6933539022589455e-03  1.9154016596557341e-03  1.8231479348086105e-03  1.6094059813253118e-03  6.7911560850405358e-03  5.9301407709113664e-03  3.1866697808428783e-03  1.2424558113685023e-03  1.7008779458719872e-03  2.1764210766105462e-04  1.9575648928517694e-04  8.8487184127962750e-05  4.1010044278053394e-05  2.9439583773341676e-05  1.9164694414427746e-05  1.2445085048196735e-05  8.1104960602771858e-06  5.2867342985409265e-06  3.3732470537776153e-06  2.3184267105418269e-06  1.7737096947930194e-06  1.5182921531123064e-06  1.5665891886299591e-06  1.8041357520978222e-06  1.0627585909595468e-06  1.9845372085177490e-07  3.4280169590862768e-07  5.2273615794460115e-07  3.9785569363174733e-07  1.1042713788704255e-23  -1.7283807243525721e-21  5.0670703659499030e-05  9.9474061086944846e-05  5.6694808432586800e-05  1.5245958996297056e-04  4.0400719414339337e-04  5.6479918371194805e-04  3.7375352846007697e-04  1.2444305215763857e-03  4.3260402668177052e-04  4.1127289056046003e-04  4.0441316671332396e-03  2.2199081964747085e-03  3.9237763382189523e-03  3.0621201803469689e-03  1.4174009503665748e-03  1.2051020444348111e-03  6.1724934668912343e-04  3.7367715873822688e-04  9.2967030595976323e-04  5.5981022240086083e-03  8.3975991552439708e-03  3.5665204882910878e-03  1.9484827761891523e-03  3.3846626132817961e-03  7.4682274302215364e-03  7.5575917635014201e-04  3.2841888411482860e-03  3.6180160857242241e-03  1.3820700354594297e-04  1.2844225706393521e-03  1.1532306129648377e-05  4.7088416881984215e-05  9.8320601821099717e-05  6.4856314997743035e-05  4.1009470785432739e-05  2.5488857858968609e-05  1.5651866510137677e-05  9.6580281333547628e-06  5.9212034664798897e-06  3.6731678149082236e-06  2.5919013501344387e-06  1.9672627822607236e-06  1.8110063892405143e-06  2.0234971789387000e-06  1.8245939991197849e-06  5.5259279162013983e-07  2.3928883746087781e-07  5.3272383067843204e-07  4.7735082719217780e-07  -2.6498293958630986e-23  -8.8296233462155704e-23  6.3635707056934482e-05  6.3662895480135100e-05  7.0657236386334550e-05  4.8302137159536420e-06  4.6722133352878513e-04  6.7226980364446290e-04  5.6884384501027229e-05  1.0182503161197741e-03  3.8164905770887584e-05  1.1857807515916316e-03  2.4445017244354274e-03  1.5634064131436879e-03  3.4398414794131484e-03  1.8860655489366749e-03  5.0878222482491110e-03  9.2990421243742787e-03  9.3777120444307645e-03  3.7835681080418877e-03  7.9752615416526628e-03  1.2600649407769017e-02  7.1110520002767689e-04  1.5291333053287823e-02  4.1517588832321291e-03  2.7897653834354592e-03  3.0669357561662210e-03  1.1711963156026921e-02  8.0252867902671689e-03  6.3223207949309277e-03  2.1000132895857165e-03  3.6027718799144285e-03  5.4094056631345398e-04  1.1649872282863027e-04  2.7709902308599974e-04  1.5032305555420189e-04  9.2370469385436252e-05  5.3941701132150918e-05  3.1229567012532930e-05  1.8200613231871057e-05  1.0707949733762482e-05  6.2978186867602302e-06  4.0038657239747479e-06  2.8267774415413430e-06  2.2798151616344103e-06  2.2518565304213782e-06  2.4698917899363230e-06  1.3517930621729289e-06  2.5992454526730262e-07  4.5334671763135154e-07  5.3378637927268745e-07  -4.8161357783188063e-23  -5.7152625672061340e-22  1.5906035364734687e-06  2.0100501781742636e-05  1.2600222258991650e-04  5.6142379699079963e-05  2.5505340687855508e-04  3.2053224745490303e-04  1.7198374643237755e-03  1.2311841024988833e-03  1.8222911963968751e-03  5.6885887785968956e-04  1.0680519222212633e-03  6.2424172911699737e-03  5.0410716239636796e-03  3.7621063219308629e-03  4.7167428920937742e-03  1.8792678916225588e-03  2.2487853108947467e-04  1.6922721027173330e-03  1.7293270263910848e-03  1.5132571458549105e-03  4.0485882195941342e-03  1.4305858634814398e-02  4.4525390207511423e-03  7.0415136022350840e-03  1.0209640381475569e-02  1.4728654440765678e-02  9.5565014730291905e-04  1.9881467018757299e-03  7.4697494361053570e-03  1.9907034277758060e-03  2.2824547719150095e-03  5.2071892443307120e-04  5.3815169588802034e-04  3.4564881746384872e-04  1.9658941884727143e-04  1.0974917594038914e-04  6.1614393717366879e-05  3.4672461296720009e-05  1.9743643592194079e-05  1.1327759817149521e-05  6.6859522772346743e-06  4.4402328962321702e-06  3.1938485911217466e-06  2.7859908933113638e-06  2.9461337765471398e-06  2.4761984595851326e-06  7.1408445319219835e-07  3.2929489667976981e-07  5.3687838734624616e-07  1.4901368676385389e-23  -8.6288366477559492e-22  1.0295701747197639e-05  4.4104615287648186e-05  2.0512288731653488e-05  3.4123837209387074e-05  6.6845984124951603e-05  6.0431026590046781e-04  7.5360605084395435e-04  2.8999870496454483e-04  1.0551548981511370e-04  2.5115957658677331e-03  3.2817298725911128e-03  3.9558530592032756e-03  2.3971673812564296e-03  7.3477412118396774e-03  6.3621990567006778e-03  3.5461115799174043e-03  1.9726807536403445e-02  1.3261628747464968e-02  8.9968418800204977e-03  1.2132660750742744e-02  2.3738666137560933e-02  2.8813132644903523e-03  2.9842380555547433e-02  1.0774760587003574e-02  5.6654515362162608e-03  1.0408144388569305e-02  2.8097430181596723e-02  2.8330916691574350e-03  1.6425531549891948e-02  9.0203385497018471e-04  8.9103541854111696e-03  2.4316257410628805e-03  5.3187236677308106e-04  7.1970928214970488e-04  3.8877420929045090e-04  2.2465211531658209e-04  1.2571598808538956e-04  6.9175846654299486e-05  3.8205512086275908e-05  2.1456030342096473e-05  1.2293033742761071e-05  7.6387887882583044e-06  5.2031032277658907e-06  3.9996373630053328e-06  3.6723433664234792e-06  3.6795061233633508e-06  1.9004924197186644e-06  4.0835653747888228e-07  4.7395520819022594e-07  -2.6309799238689941e-23  -2.9676529514253460e-21  6.9263927138505581e-05  9.0776054609038143e-05  3.5362695301423937e-05  1.2094777331791125e-04  1.3164057215294924e-04  6.7606182510635256e-05  6.8600101437136173e-04  2.5755752943203846e-03  7.8289401728478050e-04  4.2293543374567382e-03  1.9483780860494843e-03  6.3699081345376966e-03  1.4511144302763328e-02  5.1923621801059942e-03  7.7319717575560281e-03  3.1474159429630633e-03  9.8827582926420011e-04  8.7632502833561946e-03  2.2249770546453291e-02  1.3261939468678714e-02  1.3937881475250003e-02  1.1120210061837728e-03  5.6852956067523053e-02  1.2479691732023980e-03  8.7442275242563181e-04  6.8868526541217478e-03  4.6012558638024607e-02  7.2248531441743034e-03  1.3198339797066836e-02  2.1762905296450797e-02  9.8199987816955867e-03  3.7960269052471564e-03  1.2200248646313788e-03  1.5020433772513068e-03  9.2240422057924274e-04  5.2060796348728493e-04  2.7666704438732826e-04  1.4553135676830155e-04  7.7575164220624080e-05  4.2772947549688110e-05  2.4479041167762101e-05  1.4741369934409665e-05  9.7453452609053630e-06  6.8289560060051458e-06  5.4768266148003115e-06  5.1038778820029921e-06  3.8804512630068384e-06  1.2018530900701419e-06  4.4309247263096734e-07  0.0000000000000000e+00  8.8397175181836021e-36  6.3027379314068455e-05  9.7437584281163039e-05  1.4878913018591099e-04  3.0518799657387231e-04  2.4776756815597992e-04  1.1722868050727217e-04  6.5184858735294884e-04  4.1856231417294551e-04  1.3108378339836261e-03  2.2801986170897985e-04  2.7397926684065294e-03  3.3423814097508891e-04  2.5959897354568048e-03  2.5432833449544432e-04  2.3622587638069646e-02  3.0251533291512007e-03  1.3836992050000886e-02  2.3967355881072450e-02  2.1178532289485276e-02  5.6645772938729987e-02  3.9472314740288859e-02  6.6834696423624792e-03  1.0181949679955785e-02  1.7410356530875529e-02  2.8221694275862974e-04  1.2993090685159863e-03  2.8688813099516162e-03  1.4724724015449884e-02  4.7600051107523243e-03  1.1193615547682998e-02  9.1948953613971377e-03  1.6199789492245213e-02  8.1164233271926733e-03  3.6574450534436029e-03  2.3773264105616484e-03  1.1581830494289231e-03  5.8107268166093817e-04  2.9829781163908146e-04  1.5861088900758275e-04  8.8342420592704411e-05  5.1485936710716526e-05  3.1089222713998319e-05  1.9851866141094577e-05  1.3274245370455840e-05  9.4886235768892754e-06  7.5971085834826724e-06  6.4920111012146460e-06  3.2425289784725819e-06  7.7874590009566116e-07  1.5366260046177386e-21  3.5735028264997540e-36  5.4356708909455036e-05  1.0209608088191270e-05  6.3725600663856833e-05  1.0677482769848881e-04  1.6238020323522582e-04  9.2580344353180015e-04  5.7260405073750718e-04  1.1765942669409038e-03  3.8978256565691985e-03  6.4916506073192919e-04  8.4724428407708958e-03  4.1058150984721381e-03  1.0022289662324395e-02  1.2388416807259287e-02  2.5314459285286403e-02  1.8408376445847008e-03  2.5288920316292765e-03  4.1984890967699813e-02  1.1417615813440537e-03  7.7344321367017761e-03  3.1054842685016878e-03  6.5156308616955904e-03  5.8358980558947679e-03  1.0715040437349677e-03  3.3292625739831864e-03  1.4397618498738841e-03  1.3920800135387085e-03  2.0615426973318138e-03  1.7758397419444653e-03  2.1159405822838216e-03  1.1741901876319171e-02  2.0697336312257435e-02  1.9946940135962730e-02  6.8576408724919501e-03  4.2681043774445357e-03  2.1440146500893171e-03  1.1328094878142439e-03  6.0394323633119671e-04  3.3067481329937065e-04  1.8682877940749180e-04  1.0890716934363038e-04  6.4966608520602127e-05  3.9750512636227044e-05  2.5384995951396427e-05  1.6677747981710904e-05  1.1921256166051372e-05  9.5384212389301093e-06  6.4505804862718657e-06  1.9835655738138910e-06  1.8807909613156600e-37  -2.3800531186351853e-21  9.2656257958548960e-05  1.9135683028773747e-05  8.4406821919941847e-05  1.3315764892342345e-04  2.3217474795464643e-06  4.5771249495592696e-05  2.0348706160622370e-04  3.6793120881277284e-04  1.5630585222957028e-03  3.6007400