<?xml version="1.0"?>
<VTKFile type="UnstructuredGrid"  version="0.1"  >
<UnstructuredGrid>
<Piece  NumberOfPoints="676" NumberOfCells="1250">
<Points>
<DataArray  type="Float64"  NumberOfComponents="3"  format="ascii">0 0 0  0.04 0 0  0.08 0 0  0.12 0 0  0.16 0 0  0.2 0 0  0.24 0 0  0.28 0 0  0.32 0 0  0.36 0 0  0.4 0 0  0.44 0 0  0.48 0 0  0.52 0 0  0.5600000000000001 0 0  0.6 0 0  0.64 0 0  0.68 0 0  0.72 0 0  0.76 0 0  0.8 0 0  0.84 0 0  0.88 0 0  0.92 0 0  0.96 0 0  1 0 0  0 0.04 0  0.04 0.04 0  0.08 0.04 0  0.12 0.04 0  0.16 0.04 0  0.2 0.04 0  0.24 0.04 0  0.28 0.04 0  0.32 0.04 0  0.36 0.04 0  0.4 0.04 0  0.44 0.04 0  0.48 0.04 0  0.52 0.04 0  0.5600000000000001 0.04 0  0.6 0.04 0  0.64 0.04 0  0.68 0.04 0  0.72 0.04 0  0.76 0.04 0  0.8 0.04 0  0.84 0.04 0  0.88 0.04 0  0.92 0.04 0  0.96 0.04 0  1 0.04 0  0 0.08 0  0.04 0.08 0  0.08 0.08 0  0.12 0.08 0  0.16 0.08 0  0.2 0.08 0  0.24 0.08 0  0.28 0.08 0  0.32 0.08 0  0.36 0.08 0  0.4 0.08 0  0.44 0.08 0  0.48 0.08 0  0.52 0.08 0  0.5600000000000001 0.08 0  0.6 0.08 0  0.64 0.08 0  0.68 0.08 0  0.72 0.08 0  0.76 0.08 0  0.8 0.08 0  0.84 0.08 0  0.88 0.08 0  0.92 0.08 0  0.96 0.08 0  1 0.08 0  0 0.12 0  0.04 0.12 0  0.08 0.12 0  0.12 0.12 0  0.16 0.12 0  0.2 0.12 0  0.24 0.12 0  0.28 0.12 0  0.32 0.12 0  0.36 0.12 0  0.4 0.12 0  0.44 0.12 0  0.48 0.12 0  0.52 0.12 0  0.5600000000000001 0.12 0  0.6 0.12 0  0.64 0.12 0  0.68 0.12 0  0.72 0.12 0  0.76 0.12 0  0.8 0.12 0  0.84 0.12 0  0.88 0.12 0  0.92 0.12 0  0.96 0.12 0  1 0.12 0  0 0.16 0  0.04 0.16 0  0.08 0.16 0  0.12 0.16 0  0.16 0.16 0  0.2 0.16 0  0.24 0.16 0  0.28 0.16 0  0.32 0.16 0  0.36 0.16 0  0.4 0.16 0  0.44 0.16 0  0.48 0.16 0  0.52 0.16 0  0.5600000000000001 0.16 0  0.6 0.16 0  0.64 0.16 0  0.68 0.16 0  0.72 0.16 0  0.76 0.16 0  0.8 0.16 0  0.84 0.16 0  0.88 0.16 0  0.92 0.16 0  0.96 0.16 0  1 0.16 0  0 0.2 0  0.04 0.2 0  0.08 0.2 0  0.12 0.2 0  0.16 0.2 0  0.2 0.2 0  0.24 0.2 0  0.28 0.2 0  0.32 0.2 0  0.36 0.2 0  0.4 0.2 0  0.44 0.2 0  0.48 0.2 0  0.52 0.2 0  0.5600000000000001 0.2 0  0.6 0.2 0  0.64 0.2 0  0.68 0.2 0  0.72 0.2 0  0.76 0.2 0  0.8 0.2 0  0.84 0.2 0  0.88 0.2 0  0.92 0.2 0  0.96 0.2 0  1 0.2 0  0 0.24 0  0.04 0.24 0  0.08 0.24 0  0.12 0.24 0  0.16 0.24 0  0.2 0.24 0  0.24 0.24 0  0.28 0.24 0  0.32 0.24 0  0.36 0.24 0  0.4 0.24 0  0.44 0.24 0  0.48 0.24 0  0.52 0.24 0  0.5600000000000001 0.24 0  0.6 0.24 0  0.64 0.24 0  0.68 0.24 0  0.72 0.24 0  0.76 0.24 0  0.8 0.24 0  0.84 0.24 0  0.88 0.24 0  0.92 0.24 0  0.96 0.24 0  1 0.24 0  0 0.28 0  0.04 0.28 0  0.08 0.28 0  0.12 0.28 0  0.16 0.28 0  0.2 0.28 0  0.24 0.28 0  0.28 0.28 0  0.32 0.28 0  0.36 0.28 0  0.4 0.28 0  0.44 0.28 0  0.48 0.28 0  0.52 0.28 0  0.5600000000000001 0.28 0  0.6 0.28 0  0.64 0.28 0  0.68 0.28 0  0.72 0.28 0  0.76 0.28 0  0.8 0.28 0  0.84 0.28 0  0.88 0.28 0  0.92 0.28 0  0.96 0.28 0  1 0.28 0  0 0.32 0  0.04 0.32 0  0.08 0.32 0  0.12 0.32 0  0.16 0.32 0  0.2 0.32 0  0.24 0.32 0  0.28 0.32 0  0.32 0.32 0  0.36 0.32 0  0.4 0.32 0  0.44 0.32 0  0.48 0.32 0  0.52 0.32 0  0.5600000000000001 0.32 0  0.6 0.32 0  0.64 0.32 0  0.68 0.32 0  0.72 0.32 0  0.76 0.32 0  0.8 0.32 0  0.84 0.32 0  0.88 0.32 0  0.92 0.32 0  0.96 0.32 0  1 0.32 0  0 0.36 0  0.04 0.36 0  0.08 0.36 0  0.12 0.36 0  0.16 0.36 0  0.2 0.36 0  0.24 0.36 0  0.28 0.36 0  0.32 0.36 0  0.36 0.36 0  0.4 0.36 0  0.44 0.36 0  0.48 0.36 0  0.52 0.36 0  0.5600000000000001 0.36 0  0.6 0.36 0  0.64 0.36 0  0.68 0.36 0  0.72 0.36 0  0.76 0.36 0  0.8 0.36 0  0.84 0.36 0  0.88 0.36 0  0.92 0.36 0  0.96 0.36 0  1 0.36 0  0 0.4 0  0.04 0.4 0  0.08 0.4 0  0.12 0.4 0  0.16 0.4 0  0.2 0.4 0  0.24 0.4 0  0.28 0.4 0  0.32 0.4 0  0.36 0.4 0  0.4 0.4 0  0.44 0.4 0  0.48 0.4 0  0.52 0.4 0  0.5600000000000001 0.4 0  0.6 0.4 0  0.64 0.4 0  0.68 0.4 0  0.72 0.4 0  0.76 0.4 0  0.8 0.4 0  0.84 0.4 0  0.88 0.4 0  0.92 0.4 0  0.96 0.4 0  1 0.4 0  0 0.44 0  0.04 0.44 0  0.08 0.44 0  0.12 0.44 0  0.16 0.44 0  0.2 0.44 0  0.24 0.44 0  0.28 0.44 0  0.32 0.44 0  0.36 0.44 0  0.4 0.44 0  0.44 0.44 0  0.48 0.44 0  0.52 0.44 0  0.5600000000000001 0.44 0  0.6 0.44 0  0.64 0.44 0  0.68 0.44 0  0.72 0.44 0  0.76 0.44 0  0.8 0.44 0  0.84 0.44 0  0.88 0.44 0  0.92 0.44 0  0.96 0.44 0  1 0.44 0  0 0.48 0  0.04 0.48 0  0.08 0.48 0  0.12 0.48 0  0.16 0.48 0  0.2 0.48 0  0.24 0.48 0  0.28 0.48 0  0.32 0.48 0  0.36 0.48 0  0.4 0.48 0  0.44 0.48 0  0.48 0.48 0  0.52 0.48 0  0.5600000000000001 0.48 0  0.6 0.48 0  0.64 0.48 0  0.68 0.48 0  0.72 0.48 0  0.76 0.48 0  0.8 0.48 0  0.84 0.48 0  0.88 0.48 0  0.92 0.48 0  0.96 0.48 0  1 0.48 0  0 0.52 0  0.04 0.52 0  0.08 0.52 0  0.12 0.52 0  0.16 0.52 0  0.2 0.52 0  0.24 0.52 0  0.28 0.52 0  0.32 0.52 0  0.36 0.52 0  0.4 0.52 0  0.44 0.52 0  0.48 0.52 0  0.52 0.52 0  0.5600000000000001 0.52 0  0.6 0.52 0  0.64 0.52 0  0.68 0.52 0  0.72 0.52 0  0.76 0.52 0  0.8 0.52 0  0.84 0.52 0  0.88 0.52 0  0.92 0.52 0  0.96 0.52 0  1 0.52 0  0 0.5600000000000001 0  0.04 0.5600000000000001 0  0.08 0.5600000000000001 0  0.12 0.5600000000000001 0  0.16 0.5600000000000001 0  0.2 0.5600000000000001 0  0.24 0.5600000000000001 0  0.28 0.5600000000000001 0  0.32 0.5600000000000001 0  0.36 0.5600000000000001 0  0.4 0.5600000000000001 0  0.44 0.5600000000000001 0  0.48 0.5600000000000001 0  0.52 0.5600000000000001 0  0.5600000000000001 0.5600000000000001 0  0.6 0.5600000000000001 0  0.64 0.5600000000000001 0  0.68 0.5600000000000001 0  0.72 0.5600000000000001 0  0.76 0.5600000000000001 0  0.8 0.5600000000000001 0  0.84 0.5600000000000001 0  0.88 0.5600000000000001 0  0.92 0.5600000000000001 0  0.96 0.5600000000000001 0  1 0.5600000000000001 0  0 0.6 0  0.04 0.6 0  0.08 0.6 0  0.12 0.6 0  0.16 0.6 0  0.2 0.6 0  0.24 0.6 0  0.28 0.6 0  0.32 0.6 0  0.36 0.6 0  0.4 0.6 0  0.44 0.6 0  0.48 0.6 0  0.52 0.6 0  0.5600000000000001 0.6 0  0.6 0.6 0  0.64 0.6 0  0.68 0.6 0  0.72 0.6 0  0.76 0.6 0  0.8 0.6 0  0.84 0.6 0  0.88 0.6 0  0.92 0.6 0  0.96 0.6 0  1 0.6 0  0 0.64 0  0.04 0.64 0  0.08 0.64 0  0.12 0.64 0  0.16 0.64 0  0.2 0.64 0  0.24 0.64 0  0.28 0.64 0  0.32 0.64 0  0.36 0.64 0  0.4 0.64 0  0.44 0.64 0  0.48 0.64 0  0.52 0.64 0  0.5600000000000001 0.64 0  0.6 0.64 0  0.64 0.64 0  0.68 0.64 0  0.72 0.64 0  0.76 0.64 0  0.8 0.64 0  0.84 0.64 0  0.88 0.64 0  0.92 0.64 0  0.96 0.64 0  1 0.64 0  0 0.68 0  0.04 0.68 0  0.08 0.68 0  0.12 0.68 0  0.16 0.68 0  0.2 0.68 0  0.24 0.68 0  0.28 0.68 0  0.32 0.68 0  0.36 0.68 0  0.4 0.68 0  0.44 0.68 0  0.48 0.68 0  0.52 0.68 0  0.5600000000000001 0.68 0  0.6 0.68 0  0.64 0.68 0  0.68 0.68 0  0.72 0.68 0  0.76 0.68 0  0.8 0.68 0  0.84 0.68 0  0.88 0.68 0  0.92 0.68 0  0.96 0.68 0  1 0.68 0  0 0.72 0  0.04 0.72 0  0.08 0.72 0  0.12 0.72 0  0.16 0.72 0  0.2 0.72 0  0.24 0.72 0  0.28 0.72 0  0.32 0.72 0  0.36 0.72 0  0.4 0.72 0  0.44 0.72 0  0.48 0.72 0  0.52 0.72 0  0.5600000000000001 0.72 0  0.6 0.72 0  0.64 0.72 0  0.68 0.72 0  0.72 0.72 0  0.76 0.72 0  0.8 0.72 0  0.84 0.72 0  0.88 0.72 0  0.92 0.72 0  0.96 0.72 0  1 0.72 0  0 0.76 0  0.04 0.76 0  0.08 0.76 0  0.12 0.76 0  0.16 0.76 0  0.2 0.76 0  0.24 0.76 0  0.28 0.76 0  0.32 0.76 0  0.36 0.76 0  0.4 0.76 0  0.44 0.76 0  0.48 0.76 0  0.52 0.76 0  0.5600000000000001 0.76 0  0.6 0.76 0  0.64 0.76 0  0.68 0.76 0  0.72 0.76 0  0.76 0.76 0  0.8 0.76 0  0.84 0.76 0  0.88 0.76 0  0.92 0.76 0  0.96 0.76 0  1 0.76 0  0 0.8 0  0.04 0.8 0  0.08 0.8 0  0.12 0.8 0  0.16 0.8 0  0.2 0.8 0  0.24 0.8 0  0.28 0.8 0  0.32 0.8 0  0.36 0.8 0  0.4 0.8 0  0.44 0.8 0  0.48 0.8 0  0.52 0.8 0  0.5600000000000001 0.8 0  0.6 0.8 0  0.64 0.8 0  0.68 0.8 0  0.72 0.8 0  0.76 0.8 0  0.8 0.8 0  0.84 0.8 0  0.88 0.8 0  0.92 0.8 0  0.96 0.8 0  1 0.8 0  0 0.84 0  0.04 0.84 0  0.08 0.84 0  0.12 0.84 0  0.16 0.84 0  0.2 0.84 0  0.24 0.84 0  0.28 0.84 0  0.32 0.84 0  0.36 0.84 0  0.4 0.84 0  0.44 0.84 0  0.48 0.84 0  0.52 0.84 0  0.5600000000000001 0.84 0  0.6 0.84 0  0.64 0.84 0  0.68 0.84 0  0.72 0.84 0  0.76 0.84 0  0.8 0.84 0  0.84 0.84 0  0.88 0.84 0  0.92 0.84 0  0.96 0.84 0  1 0.84 0  0 0.88 0  0.04 0.88 0  0.08 0.88 0  0.12 0.88 0  0.16 0.88 0  0.2 0.88 0  0.24 0.88 0  0.28 0.88 0  0.32 0.88 0  0.36 0.88 0  0.4 0.88 0  0.44 0.88 0  0.48 0.88 0  0.52 0.88 0  0.5600000000000001 0.88 0  0.6 0.88 0  0.64 0.88 0  0.68 0.88 0  0.72 0.88 0  0.76 0.88 0  0.8 0.88 0  0.84 0.88 0  0.88 0.88 0  0.92 0.88 0  0.96 0.88 0  1 0.88 0  0 0.92 0  0.04 0.92 0  0.08 0.92 0  0.12 0.92 0  0.16 0.92 0  0.2 0.92 0  0.24 0.92 0  0.28 0.92 0  0.32 0.92 0  0.36 0.92 0  0.4 0.92 0  0.44 0.92 0  0.48 0.92 0  0.52 0.92 0  0.5600000000000001 0.92 0  0.6 0.92 0  0.64 0.92 0  0.68 0.92 0  0.72 0.92 0  0.76 0.92 0  0.8 0.92 0  0.84 0.92 0  0.88 0.92 0  0.92 0.92 0  0.96 0.92 0  1 0.92 0  0 0.96 0  0.04 0.96 0  0.08 0.96 0  0.12 0.96 0  0.16 0.96 0  0.2 0.96 0  0.24 0.96 0  0.28 0.96 0  0.32 0.96 0  0.36 0.96 0  0.4 0.96 0  0.44 0.96 0  0.48 0.96 0  0.52 0.96 0  0.5600000000000001 0.96 0  0.6 0.96 0  0.64 0.96 0  0.68 0.96 0  0.72 0.96 0  0.76 0.96 0  0.8 0.96 0  0.84 0.96 0  0.88 0.96 0  0.92 0.96 0  0.96 0.96 0  1 0.96 0  0 1 0  0.04 1 0  0.08 1 0  0.12 1 0  0.16 1 0  0.2 1 0  0.24 1 0  0.28 1 0  0.32 1 0  0.36 1 0  0.4 1 0  0.44 1 0  0.48 1 0  0.52 1 0  0.5600000000000001 1 0  0.6 1 0  0.64 1 0  0.68 1 0  0.72 1 0  0.76 1 0  0.8 1 0  0.84 1 0  0.88 1 0  0.92 1 0  0.96 1 0  1 1 0  </DataArray>
</Points>
<Cells>
[...]
<PointData  Scalars="Indicator Function"> 
<DataArray  type="Float64"  Name="Indicator Function"  format="ascii">-3.2163696076547467e-20  -8.6605886005274331e-19  1.6761630379110021e-17  1.6000243822605390e-17  -3.4703001391157078e-19  -1.2584844249507982e-19  -6.8283792776148943e-20  -4.9232869417566976e-19  -8.9339404365989911e-18  -5.4810802945684691e-19  5.0982172690245845e-17  8.1948849257483785e-18  4.4086742842313529e-35  -3.9678068558082180e-34  2.6032889152077835e-17  2.7554214276445956e-36  1.9287949993512169e-35  8.9484498657864434e-19  -2.7554214276445956e-36  -9.6439749967560845e-36  1.3604316232954425e-18  -2.6395830539411216e-21  -7.9272832121967079e-21  9.9123473124691637e-19  -1.8181465030861789e-21  0.0000000000000000e+00  -2.9521801929973995e-21  5.7940963866078812e-04  3.5126165423799154e-03  1.5236569795886340e-02  4.9073985126922928e-04  4.5341679898079912e-03  2.4601829096167044e-03  1.2882124863783867e-02  8.3775032205857664e-03  1.5822643475928475e-02  1.9625147309182520e-03  1.5274861057822463e-02  8.2172722222328947e-03  1.9799778991139508e-03  1.5790935464615804e-03  1.4853518390319995e-03  9.3841152115054492e-04  7.2273536408272107e-04  3.5114312192125352e-04  1.9877014474600701e-04  7.2691841675868825e-05  1.2135998931384339e-04  1.7008422928829604e-04  5.7763124237889442e-05  6.5505631310431005e-05  1.8181465030861880e-21  -2.5846239239020445e-19  5.3181750468452164e-05  7.6613524012239490e-05  4.2190105403208328e-03  2.4428944632378602e-02  5.0100560883493926e-03  2.6811682607767971e-02  2.5303272500605534e-02  4.8113152032749289e-02  1.7296135364424368e-03  2.3180940336592522e-02  1.0818677875209626e-02  3.1711680774588975e-02  5.5049362431612277e-04  4.6079061191168121e-03  4.3781296923390842e-03  3.0409801345477167e-03  1.9886867673075282e-03  1.2503553406301273e-03  5.7432420870206840e-04  5.4160429863914109e-04  3.7142468226686814e-04  3.0152007905534040e-04  3.5508801725326803e-04  2.3929903977738379e-05  -5.0710080547499818e-20  -9.5233080803685044e-20  4.6560445362312458e-03  6.4671816364258172e-03  7.3476146880154369e-03  4.0337324261184797e-02  3.4985350136947542e-03  8.9112883681747475e-03  1.5970045152212010e-04  2.7590876230767943e-02  2.6906478623137681e-02  4.3630560133766046e-02  1.0448273929384166e-02  4.7206234800188131e-02  2.9014966888748977e-02  9.8283949826391808e-03  1.0289144787783942e-02  8.3528352789953662e-03  4.6914231613201631e-03  2.9675763800467488e-03  1.5393686333441241e-03  7.8343887925693984e-04  6.2320521422877778e-04  5.9403194641171621e-04  5.5541098684203072e-04  3.2464145410355112e-04  -4.5053052136694139e-20  -4.6047258834261572e-19  3.8923587727130032e-03  3.7535438331083842e-03  2.2018214990983773e-03  3.4628022777721172e-04  5.7905804057862685e-02  5.8419555656299303e-03  6.6173857823084645e-02  4.7504267615471239e-02  1.2277780219131469e-01  2.0949984393838147e-02  7.2713157357149935e-02  4.9721777552411930e-02  1.0081763449553754e-01  2.8709212939001468e-02  2.3507825661630847e-02  1.9955136300304318e-02  1.3154880056581860e-02  7.0610652845128751e-03  3.6589409175976284e-03  1.5545278182594912e-03  9.0854519853655576e-04  5.8154354573686912e-04  4.7041532417511152e-04  5.4587523302598796e-04  1.3635973176256666e-19  -1.3226022852694059e-34  9.6525366280118107e-03  8.2654930177685181e-03  5.2611391556215865e-03  6.5205426124862907e-03  7.9498924095885506e-02  2.6040560138356268e-02  2.0757114472506610e-02  1.9709625592329860e-02  9.4903504988507983e-02  1.0827916855009032e-01  1.8510022461063100e-01  1.0203613723730927e-01  1.6338642267441086e-01  1.1601955502677790e-01  6.3922717615953598e-02  4.5297238142721012e-02  3.0096909019613375e-02  1.5574199137937872e-02  7.8375210750132405e-03  3.4755551485107358e-03  1.4280847852805550e-03  6.6892073568425661e-04  4.1819988175371297e-04  3.0633375163769636e-04  -1.7004939214398708e-20  -3.3065057131735147e-35  1.4149644818571840e-02  9.2513756212815133e-03  7.9233620094212621e-03  6.0714153776117987e-03  3.0662385741529942e-02  1.7426897110361586e-01  2.2129549000448393e-02  1.9731130293990476e-01  1.5943525979057262e-02  3.6578494416844048e-01  1.2121761475970055e-01  2.1171708976611223e-01  2.2221151572077413e-01  2.7608837964560057e-01  1.2142953823809935e-01  6.5960032888757722e-02  4.7438165198149432e-02  3.1753646560421865e-02  1.6742729807122665e-02  7.6853689856470498e-03  2.9586619474418732e-03  1.2510395029989919e-03  3.9801354875847395e-04  9.3628089329332185e-05  -5.1974030262542521e-21  -1.1256106963823297e-21  9.7255408901834907e-03  3.5536403094840224e-03  2.1200364128624947e-02  3.7397171386169249e-02  3.0141064373274164e-02  1.3785835986894529e-01  1.1943882389520329e-03  1.7177982163730943e-01  1.2862165687686419e-01  6.8931714864275739e-02  3.6284933422813199e-02  4.0232734037387896e-01  4.1884429292328796e-03  3.8644504241994215e-01  4.9917319844785024e-01  6.9533532088211546e-03  4.9129337922299843e-02  5.6152189089917412e-02  3.3581809226606578e-02  1.6205278097055010e-02  6.6763789029066255e-03  2.6054886903746515e-03  9.0073639623116774e-04  2.3338956865324466e-04  -1.0057288210902773e-34  -2.2043371421156765e-34  1.8410448417666609e-02  1.7200627780020284e-02  5.5507082516807558e-03  1.4732982399031831e-02  5.6433329086156357e-02  9.2730958878151970e-02  1.4306257701304625e-01  2.0169327903165096e-01  3.0469885695529808e-01  1.1267557459405830e-01  1.9221350024466036e-01  3.4592290745794702e-02  1.2302148926732923e-01  1.1478915682346852e-02  8.4139984280499430e-02  7.3005523677427117e-02  1.7739506348741722e-02  7.4695328287224222e-02  5.2718147027210706e-02  2.9460198942428781e-02  1.3066278582851990e-02  4.9950899983247487e-03  2.1889724008050566e-03  6.8413503719917570e-04  1.1021685710578382e-34  -1.1125947436570965e-19  2.8549009930986251e-03  1.3513426755581322e-02  3.9206292276346706e-02  8.5860037981645293e-02  7.5531869506677715e-02  4.4433968552958315e-02  2.2361024597351936e-01  4.4188236684844689e-01  8.4596227162389417e-02  4.0977830618493249e-02  8.9211719935311778e-03  1.1124554230282674e-01  1.0041951754882032e-01  5.8163133699468399e-02  5.3607713218284038e-02  1.1370222768854611e-01  7.3083821399965526e-02  2.5356365167835918e-02  6.2334717373059019e-02  4.1624181995207718e-02  2.1768259413647083e-02  8.6137069433084076e-03  3.1829405378025373e-03  1.2116784435234065e-03  4.4086742842313529e-35  3.0860719989619470e-34  3.0309537312388727e-03  4.7124662137863838e-03  3.7794916158022133e-03  2.9579615614889431e-02  1.2305888465774519e-01  3.8038345888750102e-01  1.1687473927142863e-01  1.5237543326525610e-01  4.4408922274503347e-02  5.5306388931512074e-02  1.8371373817798478e-02  8.4546096319908559e-02  7.6587203329142359e-02  9.5359146573962994e-02  5.3997241833622131e-02  1.3671184362630745e-01  1.1613918405330634e-01  6.8202420640564781e-02  5.1006205150656077e-02  4.1898037738185158e-02  2.7566048382691773e-02  1.3573186132073707e-02  4.8916250923986410e-03  1.6409223088976416e-03  4.1606863557433398e-34  -2.7554214276445956e-35  3.5257566489454084e-03  3.4386938206204900e-04  2.4359491133116789e-02  5.0386461515399251e-02  1.0389176636882054e-01  7.1087641121324208e-02  4.8863651619159126e-01  6.1453304081612418e-02  1.8455349276769773e-02  2.5401334219737493e-02  2.4385854931168665e-02  2.0122464410933689e-02  1.0567600285946983e-01  9.7343981171175042e-02  3.1580829897236040e-02  8.3728690410543566e-02  2.5851783781115967e-01  2.7415104126401374e-01  4.3142023434331177e-02  1.4947362981271591e-02  2.3218340527415272e-02  1.6848734581760633e-02  7.5309656370372265e-03  2.5342330913821253e-03  -7.0538788547701647e-34  -2.7138006243261004e-19  1.1494686694201011e-02  9.1745405176799459e-03  8.1577810878265128e-03  3.6141326491238905e-02  1.2829667999610000e-01  1.7573744001203695e-01  3.2125011881015277e-02  1.5675503501815211e-01  6.1242874472132017e-02  1.3291794634592324e-02  4.0883596486660699e-02  1.7667531621328694e-02  8.6661017777257127e-02  7.8815998206518342e-02  1.2154495017788187e-01  5.7902523969511864e-02  1.7279743481519347e-01  1.9746173181079404e-01  4.8114665835574189e-01  3.6174049622468646e-02  4.0900647626698084e-03  1.4501417646340158e-02  9.7681441958413547e-03  3.6940764013565501e-03  1.7634697136925412e-34  -8.8173485684627058e-35  4.8887485921891389e-03  1.5492065779503149e-02  3.1845368870062361e-02  6.6063946405664917e-02  9.5601276056571330e-02  1.3693302930425641e-01  2.5711182059501908e-01  8.0198689407892279e-02  9.6700257747072429e-02  3.4683906824560705e-02  8.8342276468653010e-03  1.6688498699800543e-02  2.1480055003241565e-02  1.1797579640338970e-01  1.0702619433389746e-01  3.5415116392677418e-03  2.2958334325540944e-01  4.9381538615548237e-01  3.5444244450136213e-02  6.5102189978493735e-02  3.9017455620842918e-02  2.9653868381395200e-03  9.6508758051016778e-03  4.8469877453514651e-03  2.6452045705388117e-34  -1.9113691561781366e-20  1.1842005701159931e-03  5.3636465026128659e-03  1.3089055266241652e-02  4.7401271654094926e-02  1.3564364863673481e-01  2.0694294219558651e-01  1.3149034935389167e-01  1.1136073988861374e-01  1.3440636056847358e-01  6.5980551481149785e-02  6.3722027444825372e-02  1.6233664277463970e-02  3.4603601799423787e-03  1.2000246316857284e-01  2.9008028963919893e-02  1.1034573512685475e-01  5.8445719194542792e-02  2.4927798770143372e-01  7.7879459621891045e-01  7.8832660681821043e-02  2.1885782147629533e-02  3.0697029311953623e-02  5.0648234354222733e-03  5.3967133392356665e-03  5.3785826267622506e-33  -4.5832199981240325e-20  7.9550761582749957e-03  7.3873855267396395e-03  1.7868197417588171e-02  3.0651297851935572e-02  5.8867778531327443e-02  8.3729875057266492e-02  2.8331914938692199e-01  1.3244115100707055e-01  9.6577600395445384e-02  1.2517252046964111e-01  7.4930890922375121e-02  8.6861232413457196e-02  2.4339227057075453e-02  4.7782495676381015e-03  3.1576601599670001e-01  2.3648582289348627e-01  1.4511186930939640e-01  1.2450289200047399e-01  8.5909896785768998e-03  1.1949935908871660e-01  3.0026922308086131e-02  3.7540734602280246e-02  2.0155699186668596e-02  5.0750037810515132e-03  1.5430359994809735e-34  -1.6532528565867573e-35  8.2563951502833484e-04  7.4080518354705527e-03  1.5149277967528593e-02  3.6464474477773227e-02  7.2570597266125345e-02  1.0023140929544230e-01  6.8549071375627107e-03  1.9086000120098115e-01  5.7089116772471846e-02  1.9554460356123771e-01  6.1295193625368595e-02  1.3912956141239269e-01  9.0749681021565602e-03  7.3071069835390093e-02  2.2964918022673925e-01  1.0483638653284756e-01  5.6030492617327532e-01  3.8459669706706007e-01  1.8958978926264169e-01  6.5152950063628479e-02  4.2955115980040474e-02  1.0992041612599012e-02  2.6822345190930925e-02  9.3297757612529619e-03  -3.5269394273850823e-34  2.4798792848801363e-35  2.6112786394028536e-04  3.1481920765967053e-03  5.5008215657457622e-03  1.9136749731552022e-02  4.6122641503853756e-02  9.0687319482879086e-02  1.3765040025665434e-01  5.6683181111099826e-03  2.2621357720166443e-01  2.3753702752569097e-01  2.7859054347033718e-01  1.6693758246656018e-01  1.5066714337003534e-01  5.3276007027089532e-02  1.8552963224293884e-01  5.1738103235370692e-01  1.4040497025145940e-01  1.0872940546697948e-01  5.7787658628601531e-02  6.6069731841739504e-02  5.9715017401923462e-02  3.4497872032156617e-02  1.9247526675184784e-02  1.1933001535783125e-02  -2.0279901707464223e-32  -1.7080569969427956e-20  1.2931698647018883e-03  1.4724045773709799e-04  6.7293949380723460e-03  9.5004420085661994e-03  2.4797676843307897e-02  4.4480503362918582e-02  6.1263886727719763e-02  7.0648503180152047e-02  2.8126195946674754e-01  8.7681187516832099e-02  3.4960963698282727e-01  1.7535763334300264e-01  5.4818208751489117e-01  2.0713327635585138e-01  8.6589022010122765e-02  7.2518072435619008e-01  2.4338110769914773e-01  1.2487160657748907e-01  4.0593382783087398e-02  3.2808377908123527e-02  4.7456012772379284e-02  4.6571691306603283e-02  2.2154447208761793e-02  7.9427133362279193e-03  1.4107757709540329e-33  -3.3109816172854833e-20  1.2703175812833472e-03  1.6313139692333272e-03  2.7131556411045888e-03  8.0378578022193628e-03  1.6052042634693522e-02  3.1730911515318865e-02  4.4024389576488805e-02  3.8646187975036154e-02  6.7054260307067098e-02  1.6595073040986553e-02  4.5028180420502432e-02  5.3477403347764263e-01  3.0452701058932042e-02  6.2790585470885540e-01  4.6990570485921312e-01  7.5832873773964318e-02  9.0838162743481887e-02  7.9872939993641687e-02  7.6909125698566047e-02  2.4974348598102627e-02  4.5664131600427399e-02  3.9091130614459076e-02  3.5276574511774135e-02  3.3693275404050047e-03  -1.8703525064306346e-19  -4.8258689458696907e-20  1.1618926374579364e-03  2.1547003211268658e-03  1.3199455802630350e-03  6.3300575235507150e-03  9.0302204050223649e-03  2.0593524561496636e-02  3.3132175065857979e-02  3.8725058216790814e-02  1.9226819771397414e-02  1.9276732597993961e-02  2.4837453733028900e-02  1.4631839253235873e-01  3.0042843365669449e-02  1.3115431677429512e-01  2.0699964100676850e-02  1.1217631856182984e-01  2.8441024172388436e-02  6.4601685587808488e-02  6.6494549419056054e-02  4.3628373967920984e-02  2.9829635874994036e-02  2.7933777477742144e-02  2.3645173840425776e-02  1.7019004003144971e-02  -5.9957970265546403e-33  -2.6442135361098834e-20  8.6935126345430414e-04  1.6300029111335501e-03  2.6752382198429584e-03  2.4378219185604809e-03  7.8588675283871607e-03  1.1705333446897115e-02  2.2359471090603683e-02  3.0443994588825397e-02  3.2630761545520692e-02  2.1613982436509426e-02  3.3835221849200126e-02  2.9192088528823112e-02  7.8225266024179355e-02  2.4207708102931175e-02  7.2502845468964017e-02  2.7591325120215567e-02  2.6819893316426407e-02  8.6724189741596829e-04  5.7804683587296513e-02  4.7895555106703826e-02  2.0724788858802492e-02  2.2976922841656776e-02  1.1109989926869353e-02  6.2208421681398986e-03  2.8215515419080659e-33  -3.5792841508341807e-22  4.7633916383649997e-04  1.0405002952023129e-03  1.6205552305971265e-03  2.0113320924170903e-03  4.8223464955092846e-03  7.7671769750831130e-03  1.4871465269338205e-02  2.2994255942920348e-02  2.8317002641024543e-02  1.9770129287712681e-02  2.0285740963533451e-02  3.2097973556955629e-02  1.9189502141583752e-02  3.0488714939990954e-03  1.1445938248234375e-02  2.0476823777348864e-02  1.8720086465854213e-02  2.2511632312730533e-03  4.1605630010234790e-02  3.4590461491711577e-02  2.8931112711704270e-02  8.9195306589637312e-04  5.4019277277610319e-03  4.1085433097314385e-03  -1.4107757709540329e-33  -3.5786978773304637e-21  6.4478651071800219e-06  3.7793594747945495e-04  8.1697260384682000e-04  1.5013740701893283e-03  1.4935677947796864e-03  5.3292647142622563e-03  7.8280888193576394e-03  1.5657953126440072e-02  2.3943122258791562e-02  3.3195278716033734e-02  6.5973870508392813e-03  1.1400167028960186e-02  2.2014165530724033e-02  2.5046550293003480e-02  2.6066490120421830e-02  1.6735735651409881e-03  5.6850347470828683e-04  9.1361081279949068e-03  3.8941832368242189e-03  1.8719874779880862e-02  1.4599088432379387e-02  1.5694749721827325e-02  4.1643927710802659e-03  1.3146516364799074e-03  3.6488912904484069e-20  -4.0900786816599463e-37  1.1604666736682859e-04  1.6445887652440368e-04  3.0591596191462784e-04  5.2792401987227682e-04  9.9358251753440706e-04  1.8718111378331643e-03  3.5942214276801581e-03  6.8238833057932919e-03  1.1974009900888960e-02  2.0838015623572983e-02  2.6606092277372685e-02  7.2707375440309698e-03  4.9721396982562805e-03  1.1251377295565208e-02  6.5868595511364147e-03  2.2055888168447304e-02  8.9598766373638720e-03  2.3569616742496616e-03  6.3998399927593140e-03  1.6840785116457675e-03  4.1185882205996231e-03  1.3805916209269438e-03  6.2127041864873953e-03  1.0663587737059164e-02  -5.9194803153967537e-19  1.7221383922778722e-37  3.2209420510417251e-21  4.1081857047310429e-20  -4.2454368064746548e-20  2.8814856599861138e-20  6.7507824977292598e-35  -1.0390639114860942e-19  -7.7151799974048676e-35  1.2564721710059357e-33  3.9678068558082180e-34  -1.5798695565489388e-18  7.3846740604098656e-19  -4.0360701136948579e-19  5.6431030838161317e-33  1.2936516823591532e-17  -3.6564415668218943e-19  -1.2243477436583895e-18  2.4868653351495096e-19  -1.3083765594555462e-19  1.4107757709540329e-33  2.0743922512246096e-17  -2.2862757357298116e-19  5.6431030838161317e-33  -2.1867024449787510e-32  -5.9194803153967470e-19  5.3102339220300952e-18  </DataArray> 
</PointData> 
</Piece>
</UnstructuredGrid>
</VTKFile>