<?xml version="1.0"?>
<VTKFile type="UnstructuredGrid"  version="0.1"  >
<UnstructuredGrid>
<Piece  NumberOfPoints="2601" NumberOfCells="5000">
<Points>
<DataArray  type="Float64"  NumberOfComponents="3"  format="ascii">0 0 0  0.02 0 0  0.04 0 0  0.06 0 0  0.08 0 0  0.1 0 0  0.12 0 0  0.14 0 0  0.16 0 0  0.18 0 0  0.2 0 0  0.22 0 0  0.24 0 0  0.26 0 0  0.28 0 0  0.3 0 0  0.32 0 0  0.34 0 0  0.36 0 0  0.38 0 0  0.4 0 0  0.42 0 0  0.44 0 0  0.46 0 0  0.48 0 0  0.5 0 0  0.52 0 0  0.54 0 0  0.5600000000000001 0 0  0.58 0 0  0.6 0 0  0.62 0 0  0.64 0 0  0.66 0 0  0.68 0 0  0.7 0 0  0.72 0 0  0.74 0 0  0.76 0 0  0.78 0 0  0.8 0 0  0.82 0 0  0.84 0 0  0.86 0 0  0.88 0 0  0.9 0 0  0.92 0 0  0.9399999999999999 0 0  0.96 0 0  0.98 0 0  1 0 0  0 0.02 0  0.02 0.02 0  0.04 0.02 0  0.06 0.02 0  0.08 0.02 0  0.1 0.02 0  0.12 0.02 0  0.14 0.02 0  0.16 0.02 0  0.18 0.02 0  0.2 0.02 0  0.22 0.02 0  0.24 0.02 0  0.26 0.02 0  0.28 0.02 0  0.3 0.02 0  0.32 0.02 0  0.34 0.02 0  0.36 0.02 0  0.38 0.02 0  0.4 0.02 0  0.42 0.02 0  0.44 0.02 0  0.46 0.02 0  0.48 0.02 0  0.5 0.02 0  0.52 0.02 0  0.54 0.02 0  0.5600000000000001 0.02 0  0.58 0.02 0  0.6 0.02 0  0.62 0.02 0  0.64 0.02 0  0.66 0.02 0  0.68 0.02 0  0.7 0.02 0  0.72 0.02 0  0.74 0.02 0  0.76 0.02 0  0.78 0.02 0  0.8 0.02 0  0.82 0.02 0  0.84 0.02 0  0.86 0.02 0  0.88 0.02 0  0.9 0.02 0  0.92 0.02 0  0.9399999999999999 0.02 0  0.96 0.02 0  0.98 0.02 0  1 0.02 0  0 0.04 0  0.02 0.04 0  0.04 0.04 0  0.06 0.04 0  0.08 0.04 0  0.1 0.04 0  0.12 0.04 0  0.14 0.04 0  0.16 0.04 0  0.18 0.04 0  0.2 0.04 0  0.22 0.04 0  0.24 0.04 0  0.26 0.04 0  0.28 0.04 0  0.3 0.04 0  0.32 0.04 0  0.34 0.04 0  0.36 0.04 0  0.38 0.04 0  0.4 0.04 0  0.42 0.04 0  0.44 0.04 0  0.46 0.04 0  0.48 0.04 0  0.5 0.04 0  0.52 0.04 0  0.54 0.04 0  0.5600000000000001 0.04 0  0.58 0.04 0  0.6 0.04 0  0.62 0.04 0  0.64 0.04 0  0.66 0.04 0  0.68 0.04 0  0.7 0.04 0  0.72 0.04 0  0.74 0.04 0  0.76 0.04 0  0.78 0.04 0  0.8 0.04 0  0.82 0.04 0  0.84 0.04 0  0.86 0.04 0  0.88 0.04 0  0.9 0.04 0  0.92 0.04 0  0.9399999999999999 0.04 0  0.96 0.04 0  0.98 0.04 0  1 0.04 0  0 0.06 0  0.02 0.06 0  0.04 0.06 0  0.06 0.06 0  0.08 0.06 0  0.1 0.06 0  0.12 0.06 0  0.14 0.06 0  0.16 0.06 0  0.18 0.06 0  0.2 0.06 0  0.22 0.06 0  0.24 0.06 0  0.26 0.06 0  0.28 0.06 0  0.3 0.06 0  0.32 0.06 0  0.34 0.06 0  0.36 0.06 0  0.38 0.06 0  0.4 0.06 0  0.42 0.06 0  0.44 0.06 0  0.46 0.06 0  0.48 0.06 0  0.5 0.06 0  0.52 0.06 0  0.54 0.06 0  0.5600000000000001 0.06 0  0.58 0.06 0  0.6 0.06 0  0.62 0.06 0  0.64 0.06 0  0.66 0.06 0  0.68 0.06 0  0.7 0.06 0  0.72 0.06 0  0.74 0.06 0  0.76 0.06 0  0.78 0.06 0  0.8 0.06 0  0.82 0.06 0  0.84 0.06 0  0.86 0.06 0  0.88 0.06 0  0.9 0.06 0  0.92 0.06 0  0.9399999999999999 0.06 0  0.96 0.06 0  0.98 0.06 0  1 0.06 0  0 0.08 0  0.02 0.08 0  0.04 0.08 0  0.06 0.08 0  0.08 0.08 0  0.1 0.08 0  0.12 0.08 0  0.14 0.08 0  0.16 0.08 0  0.18 0.08 0  0.2 0.08 0  0.22 0.08 0  0.24 0.08 0  0.26 0.08 0  0.28 0.08 0  0.3 0.08 0  0.32 0.08 0  0.34 0.08 0  0.36 0.08 0  0.38 0.08 0  0.4 0.08 0  0.42 0.08 0  0.44 0.08 0  0.46 0.08 0  0.48 0.08 0  0.5 0.08 0  0.52 0.08 0  0.54 0.08 0  0.5600000000000001 0.08 0  0.58 0.08 0  0.6 0.08 0  0.62 0.08 0  0.64 0.08 0  0.66 0.08 0  0.68 0.08 0  0.7 0.08 0  0.72 0.08 0  0.74 0.08 0  0.76 0.08 0  0.78 0.08 0  0.8 0.08 0  0.82 0.08 0  0.84 0.08 0  0.86 0.08 0  0.88 0.08 0  0.9 0.08 0  0.92 0.08 0  0.9399999999999999 0.08 0  0.96 0.08 0  0.98 0.08 0  1 0.08 0  0 0.1 0  0.02 0.1 0  0.04 0.1 0  0.06 0.1 0  0.08 0.1 0  0.1 0.1 0  0.12 0.1 0  0.14 0.1 0  0.16 0.1 0  0.18 0.1 0  0.2 0.1 0  0.22 0.1 0  0.24 0.1 0  0.26 0.1 0  0.28 0.1 0  0.3 0.1 0  0.32 0.1 0  0.34 0.1 0  0.36 0.1 0  0.38 0.1 0  0.4 0.1 0  0.42 0.1 0  0.44 0.1 0  0.46 0.1 0  0.48 0.1 0  0.5 0.1 0  0.52 0.1 0  0.54 0.1 0  0.5600000000000001 0.1 0  0.58 0.1 0  0.6 0.1 0  0.62 0.1 0  0.64 0.1 0  0.66 0.1 0  0.68 0.1 0  0.7 0.1 0  0.72 0.1 0  0.74 0.1 0  0.76 0.1 0  0.78 0.1 0  0.8 0.1 0  0.82 0.1 0  0.84 0.1 0  0.86 0.1 0  0.88 0.1 0  0.9 0.1 0  0.92 0.1 0  0.9399999999999999 0.1 0  0.96 0.1 0  0.98 0.1 0  1 0.1 0  0 0.12 0  0.02 0.12 0  0.04 0.12 0  0.06 0.12 0  0.08 0.12 0  0.1 0.12 0  0.12 0.12 0  0.14 0.12 0  0.16 0.12 0  0.18 0.12 0  0.2 0.12 0  0.22 0.12 0  0.24 0.12 0  0.26 0.12 0  0.28 0.12 0  0.3 0.12 0  0.32 0.12 0  0.34 0.12 0  0.36 0.12 0  0.38 0.12 0  0.4 0.12 0  0.42 0.12 0  0.44 0.12 0  0.46 0.12 0  0.48 0.12 0  0.5 0.12 0  0.52 0.12 0  0.54 0.12 0  0.5600000000000001 0.12 0  0.58 0.12 0  0.6 0.12 0  0.62 0.12 0  0.64 0.12 0  0.66 0.12 0  0.68 0.12 0  0.7 0.12 0  0.72 0.12 0  0.74 0.12 0  0.76 0.12 0  0.78 0.12 0  0.8 0.12 0  0.82 0.12 0  0.84 0.12 0  0.86 0.12 0  0.88 0.12 0  0.9 0.12 0  0.92 0.12 0  0.9399999999999999 0.12 0  0.96 0.12 0  0.98 0.12 0  1 0.12 0  0 0.14 0  0.02 0.14 0  0.04 0.14 0  0.06 0.14 0  0.08 0.14 0  0.1 0.14 0  0.12 0.14 0  0.14 0.14 0  0.16 0.14 0  0.18 0.14 0  0.2 0.14 0  0.22 0.14 0  0.24 0.14 0  0.26 0.14 0  0.28 0.14 0  0.3 0.14 0  0.32 0.14 0  0.34 0.14 0  0.36 0.14 0  0.38 0.14 0  0.4 0.14 0  0.42 0.14 0  0.44 0.14 0  0.46 0.14 0  0.48 0.14 0  0.5 0.14 0  0.52 0.14 0  0.54 0.14 0  0.5600000000000001 0.14 0  0.58 0.14 0  0.6 0.14 0  0.62 0.14 0  0.64 0.14 0  0.66 0.14 0  0.68 0.14 0  0.7 0.14 0  0.72 0.14 0  0.74 0.14 0  0.76 0.14 0  0.78 0.14 0  0.8 0.14 0  0.82 0.14 0  0.84 0.14 0  0.86 0.14 0  0.88 0.14 0  0.9 0.14 0  0.92 0.14 0  0.9399999999999999 0.14 0  0.96 0.14 0  0.98 0.14 0  1 0.14 0  0 0.16 0  0.02 0.16 0  0.04 0.16 0  0.06 0.16 0  0.08 0.16 0  0.1 0.16 0  0.12 0.16 0  0.14 0.16 0  0.16 0.16 0  0.18 0.16 0  0.2 0.16 0  0.22 0.16 0  0.24 0.16 0  0.26 0.16 0  0.28 0.16 0  0.3 0.16 0  0.32 0.16 0  0.34 0.16 0  0.36 0.16 0  0.38 0.16 0  0.4 0.16 0  0.42 0.16 0  0.44 0.16 0  0.46 0.16 0  0.48 0.16 0  0.5 0.16 0  0.52 0.16 0  0.54 0.16 0  0.5600000000000001 0.16 0  0.58 0.16 0  0.6 0.16 0  0.62 0.16 0  0.64 0.16 0  0.66 0.16 0  0.68 0.16 0  0.7 0.16 0  0.72 0.16 0  0.74 0.16 0  0.76 0.16 0  0.78 0.16 0  0.8 0.16 0  0.82 0.16 0  0.84 0.16 0  0.86 0.16 0  0.88 0.16 0  0.9 0.16 0  0.92 0.16 0  0.9399999999999999 0.16 0  0.96 0.16 0  0.98 0.16 0  1 0.16 0  0 0.18 0  0.02 0.18 0  0.04 0.18 0  0.06 0.18 0  0.08 0.18 0  0.1 0.18 0  0.12 0.18 0  0.14 0.18 0  0.16 0.18 0  0.18 0.18 0  0.2 0.18 0  0.22 0.18 0  0.24 0.18 0  0.26 0.18 0  0.28 0.18 0  0.3 0.18 0  0.32 0.18 0  0.34 0.18 0  0.36 0.18 0  0.38 0.18 0  0.4 0.18 0  0.42 0.18 0  0.44 0.18 0  0.46 0.18 0  0.48 0.18 0  0.5 0.18 0  0.52 0.18 0  0.54 0.18 0  0.5600000000000001 0.18 0  0.58 0.18 0  0.6 0.18 0  0.62 0.18 0  0.64 0.18 0  0.66 0.18 0  0.68 0.18 0  0.7 0.18 0  0.72 0.18 0  0.74 0.18 0  0.76 0.18 0  0.78 0.18 0  0.8 0.18 0  0.82 0.18 0  0.84 0.18 0  0.86 0.18 0  0.88 0.18 0  0.9 0.18 0  0.92 0.18 0  0.9399999999999999 0.18 0  0.96 0.18 0  0.98 0.18 0  1 0.18 0  0 0.2 0  0.02 0.2 0  0.04 0.2 0  0.06 0.2 0  0.08 0.2 0  0.1 0.2 0  0.12 0.2 0  0.14 0.2 0  0.16 0.2 0  0.18 0.2 0  0.2 0.2 0  0.22 0.2 0  0.24 0.2 0  0.26 0.2 0  0.28 0.2 0  0.3 0.2 0  0.32 0.2 0  0.34 0.2 0  0.36 0.2 0  0.38 0.2 0  0.4 0.2 0  0.42 0.2 0  0.44 0.2 0  0.46 0.2 0  0.48 0.2 0  0.5 0.2 0  0.52 0.2 0  0.54 0.2 0  0.5600000000000001 0.2 0  0.58 0.2 0  0.6 0.2 0  0.62 0.2 0  0.64 0.2 0  0.66 0.2 0  0.68 0.2 0  0.7 0.2 0  0.72 0.2 0  0.74 0.2 0  0.76 0.2 0  0.78 0.2 0  0.8 0.2 0  0.82 0.2 0  0.84 0.2 0  0.86 0.2 0  0.88 0.2 0  0.9 0.2 0  0.92 0.2 0  0.9399999999999999 0.2 0  0.96 0.2 0  0.98 0.2 0  1 0.2 0  0 0.22 0  0.02 0.22 0  0.04 0.22 0  0.06 0.22 0  0.08 0.22 0  0.1 0.22 0  0.12 0.22 0  0.14 0.22 0  0.16 0.22 0  0.18 0.22 0  0.2 0.22 0  0.22 0.22 0  0.24 0.22 0  0.26 0.22 0  0.28 0.22 0  0.3 0.22 0  0.32 0.22 0  0.34 0.22 0  0.36 0.22 0  0.38 0.22 0  0.4 0.22 0  0.42 0.22 0  0.44 0.22 0  0.46 0.22 0  0.48 0.22 0  0.5 0.22 0  0.52 0.22 0  0.54 0.22 0  0.5600000000000001 0.22 0  0.58 0.22 0  0.6 0.22 0  0.62 0.22 0  0.64 0.22 0  0.66 0.22 0  0.68 0.22 0  0.7 0.22 0  0.72 0.22 0  0.74 0.22 0  0.76 0.22 0  0.78 0.22 0  0.8 0.22 0  0.82 0.22 0  0.84 0.22 0  0.86 0.22 0  0.88 0.22 0  0.9 0.22 0  0.92 0.22 0  0.9399999999999999 0.22 0  0.96 0.22 0  0.98 0.22 0  1 0.22 0  0 0.24 0  0.02 0.24 0  0.04 0.24 0  0.06 0.24 0  0.08 0.24 0  0.1 0.24 0  0.12 0.24 0  0.14 0.24 0  0.16 0.24 0  0.18 0.24 0  0.2 0.24 0  0.22 0.24 0  0.24 0.24 0  0.26 0.24 0  0.28 0.24 0  0.3 0.24 0  0.32 0.24 0  0.34 0.24 0  0.36 0.24 0  0.38 0.24 0  0.4 0.24 0  0.42 0.24 0  0.44 0.24 0  0.46 0.24 0  0.48 0.24 0  0.5 0.24 0  0.52 0.24 0  0.54 0.24 0  0.5600000000000001 0.24 0  0.58 0.24 0  0.6 0.24 0  0.62 0.24 0  0.64 0.24 0  0.66 0.24 0  0.68 0.24 0  0.7 0.24 0  0.72 0.24 0  0.74 0.24 0  0.76 0.24 0  0.78 0.24 0  0.8 0.24 0  0.82 0.24 0  0.84 0.24 0  0.86 0.24 0  0.88 0.24 0  0.9 0.24 0  0.92 0.24 0  0.9399999999999999 0.24 0  0.96 0.24 0  0.98 0.24 0  1 0.24 0  0 0.26 0  0.02 0.26 0  0.04 0.26 0  0.06 0.26 0  0.08 0.26 0  0.1 0.26 0  0.12 0.26 0  0.14 0.26 0  0.16 0.26 0  0.18 0.26 0  0.2 0.26 0  0.22 0.26 0  0.24 0.26 0  0.26 0.26 0  0.28 0.26 0  0.3 0.26 0  0.32 0.26 0  0.34 0.26 0  0.36 0.26 0  0.38 0.26 0  0.4 0.26 0  0.42 0.26 0  0.44 0.26 0  0.46 0.26 0  0.48 0.26 0  0.5 0.26 0  0.52 0.26 0  0.54 0.26 0  0.5600000000000001 0.26 0  0.58 0.26 0  0.6 0.26 0  0.62 0.26 0  0.64 0.26 0  0.66 0.26 0  0.68 0.26 0  0.7 0.26 0  0.72 0.26 0  0.74 0.26 0  0.76 0.26 0  0.78 0.26 0  0.8 0.26 0  0.82 0.26 0  0.84 0.26 0  0.86 0.26 0  0.88 0.26 0  0.9 0.26 0  0.92 0.26 0  0.9399999999999999 0.26 0  0.96 0.26 0  0.98 0.26 0  1 0.26 0  0 0.28 0  0.02 0.28 0  0.04 0.28 0  0.06 0.28 0  0.08 0.28 0  0.1 0.28 0  0.12 0.28 0  0.14 0.28 0  0.16 0.28 0  0.18 0.28 0  0.2 0.28 0  0.22 0.28 0  0.24 0.28 0  0.26 0.28 0  0.28 0.28 0  0.3 0.28 0  0.32 0.28 0  0.34 0.28 0  0.36 0.28 0  0.38 0.28 0  0.4 0.28 0  0.42 0.28 0  0.44 0.28 0  0.46 0.28 0  0.48 0.28 0  0.5 0.28 0  0.52 0.28 0  0.54 0.28 0  0.5600000000000001 0.28 0  0.58 0.28 0  0.6 0.28 0  0.62 0.28 0  0.64 0.28 0  0.66 0.28 0  0.68 0.28 0  0.7 0.28 0  0.72 0.28 0  0.74 0.28 0  0.76 0.28 0  0.78 0.28 0  0.8 0.28 0  0.82 0.28 0  0.84 0.28 0  0.86 0.28
[...]
<PointData  Scalars="Indicator Function"> 
<DataArray  type="Float64"  Name="Indicator Function"  format="ascii">-1.3754776330596060e-22  1.5035727598358332e-17  -1.6342980172258957e-18  2.9940720798393019e-17  9.3933108088633352e-18  -4.2167711894233435e-19  -1.9024326224276444e-18  4.1249560211658323e-16  2.1121073747305631e-16  -9.9057959364434353e-19  1.7749921990427044e-16  4.6713301582662783e-16  -2.9343784230892781e-19  -9.9666874622039455e-33  -5.2505933679718885e-17  -2.0624557209285143e-18  -7.6931331931586653e-19  2.3940387183511933e-16  -9.1617380492405986e-19  -1.3795818714085930e-18  1.2923808554859459e-16  -1.0868606232151948e-18  -9.7458154295311766e-19  4.7693139521710634e-16  9.6296497219361793e-35  -6.7137261534547615e-19  -3.0915717929718873e-19  -1.4782467214961369e-19  1.6771206572745535e-16  0.0000000000000000e+00  -1.5530148030695375e-20  -7.7650740153476877e-21  -7.4371666784732227e-20  -7.4518567737449623e-20  3.2811418113195628e-18  -4.4639007120252329e-20  -1.7388191562835488e-23  -2.2415043593221111e-20  -6.9120333263790293e-20  -6.8169919944994788e-20  4.7468562646748335e-17  -3.7084945164480811e-20  -6.7308320913074304e-20  -7.7849071373147253e-20  -5.6771151626364497e-20  -2.6768371428312736e-20  4.4985229274149598e-18  -3.1456924493685089e-21  -1.8822259965771786e-21  3.7615819226313200e-37  6.0185310762101120e-36  -8.1723506865820028e-19  7.8401372033094687e-03  2.3702638863964520e-03  1.8328721975554086e-03  1.0908117716893165e-02  1.5192519325914889e-02  7.9639495750866683e-04  3.4271179397850425e-02  1.5818450447991062e-02  3.1664417893592436e-02  1.7844695555269904e-02  3.2147516963643595e-03  1.0572212458231109e-02  1.0183271186694766e-02  1.8526419509261718e-02  1.8872931678699734e-02  2.7717433425617347e-02  3.6208559596365403e-02  2.2620911277423914e-02  9.1477950313313162e-03  2.0278440092345626e-02  3.4531100300928867e-02  2.3135902403980287e-03  1.7556500294743337e-02  1.5498988609531498e-02  1.9116251626654216e-03  1.1138561259853855e-02  5.3259451072731915e-03  4.9536862253348282e-04  1.0585636686254685e-05  2.8912510638184614e-04  2.7976627553619323e-04  8.5405707606157238e-04  9.1273230524378487e-04  8.8604102295635108e-04  1.2036665297984687e-03  2.0231159843259481e-04  3.1323781217198191e-07  4.0363690898960990e-04  1.0433427740273167e-03  7.0636871723496020e-04  4.0654321245212017e-04  4.6479137466918396e-04  9.8012322859762874e-04  9.1234258101016577e-04  5.6652685873447310e-04  2.7761921661082422e-04  1.2645556920736792e-05  5.6667757371192818e-05  5.5732905016517612e-06  1.5468988594645981e-22  1.3481509610710651e-33  2.0042493267213649e-02  2.3048560317433870e-02  8.8333744371462738e-03  1.1158120313883906e-02  1.3798891884759443e-02  2.8737760482013524e-02  3.3420982742075687e-02  1.0069244433981906e-02  3.3609319925209401e-02  2.3117167557542354e-02  5.0862490320195193e-02  8.4288036688195248e-02  6.1432407791538170e-02  7.2442982381731320e-03  4.5501848278896320e-02  5.7577256637936981e-02  2.4176481589337946e-03  6.1242839776583832e-02  6.8748396394952846e-03  3.6716389774104768e-02  1.8089328408331551e-02  6.6268826510809217e-02  6.0961492596229017e-02  4.5931772449430412e-02  1.9400992547079519e-02  2.5934847858359984e-02  1.3455470533685900e-03  6.1409879212236318e-03  4.2876554093060903e-03  6.1210562563509749e-04  1.6805009344862088e-04  2.4541689245390465e-04  1.7293078099764794e-03  1.3998587574950811e-03  1.3362827329115423e-03  1.5916888654556938e-03  5.8452882305256475e-04  2.8771142458599658e-04  1.1274031305203451e-03  1.3567616031403965e-03  2.2512430102103887e-04  9.5824014431241495e-04  8.2675951771387279e-04  1.5878155104531160e-03  8.9244345679384497e-04  5.6965472948520223e-04  1.4941200509951022e-04  7.5696269700697364e-05  1.2129485880876277e-04  3.0299477629082974e-20  -1.7331891434612041e-19  1.0928090157395591e-02  3.8219452161914660e-03  8.5797505659333754e-03  1.6572513467930230e-02  1.9369208582937412e-02  2.9783558431429772e-02  4.7646103411556869e-03  7.6045955485197533e-02  5.4516656523055894e-02  7.7503685507395240e-02  5.9208367678528641e-02  2.5331654134826308e-02  3.6801018992382896e-03  1.2282707817306348e-02  2.5262932241892772e-02  3.5510717184258384e-02  5.5371590928815211e-02  8.5469898520408039e-02  4.0375191381039351e-02  3.3343400547779577e-03  4.1996601163773448e-02  5.6978023081543226e-02  7.7249714351282309e-03  5.5290969325144414e-02  5.7048786291770529e-02  1.1224092776135518e-02  2.6194358438002070e-02  1.7684611378388473e-02  2.1745839617566868e-03  2.8685463926473019e-03  8.2748634390498196e-04  4.7205833643441003e-04  1.7168421168141171e-03  1.6899094211851511e-03  1.5422858862850920e-03  2.1405996838983004e-03  2.6186897449369983e-04  2.0673137216392008e-04  1.3879964462958891e-04  1.5890635014211448e-03  6.8066264917178453e-04  1.5676001565316478e-03  8.8976744122292329e-04  1.5451102612611468e-03  1.5425753631735496e-03  7.0724169809805132e-04  4.1740835630832787e-04  4.8657150104243974e-05  3.5031312383332205e-05  -4.8615711988514277e-21  -5.0985527835427939e-19  3.3481804917731110e-02  2.9197629766261322e-03  2.5710023695683967e-02  1.6303009253255422e-03  1.9851066063623687e-02  2.2387898730584374e-02  5.7238042574069919e-02  3.5738510973762537e-02  7.8020928343178978e-03  3.1624992579999060e-02  1.7824670696679420e-02  5.8125491449233020e-02  1.2495836733354211e-01  1.1386354321650560e-01  2.5032082953765595e-02  8.4177139124859510e-02  1.0550009755443378e-01  9.3101741770616423e-03  1.1168008603882913e-01  8.0792811503225901e-03  3.9550149911382011e-02  2.1060852246736948e-02  9.9934174358158892e-02  1.0149077631901400e-01  5.9329841358375678e-02  1.8762311339656113e-02  3.6143350148685992e-02  3.3647384814254974e-04  1.6185217629051812e-02  8.8842393901947397e-03  1.3601384882125483e-04  6.0440861474929375e-04  1.1837892425966073e-04  2.5566786164335207e-03  1.6111260496237841e-03  1.5643711660380270e-03  2.3643202451224159e-03  1.2900204541267635e-03  6.7688974043581993e-04  1.1442693495187261e-03  1.6182332247603188e-03  9.2678595088927971e-04  2.0104560111833497e-03  9.7097687078386930e-04  2.1470273968786000e-03  1.1124172699290872e-03  6.2800905578765012e-04  2.3860532085717790e-04  1.9197564633113718e-05  -6.5162848733048619e-21  -2.7937611660572710e-19  2.1538536863597860e-02  1.9349901492609869e-02  2.2966447255659651e-02  1.0655283342615040e-02  2.2126815225513290e-02  3.4304895776621401e-02  2.4874964797895600e-02  3.4443391311150952e-03  1.0301826774965550e-01  7.8936141804452298e-02  1.0107881774283094e-01  8.0874333674657656e-02  4.5189262973760941e-02  3.1978369272197854e-02  4.2781738088580358e-03  2.7297821623968026e-02  3.3725552943181865e-02  7.8938044069151017e-02  1.1467655015597439e-01  5.7644396657539454e-02  1.6931390309150585e-02  5.7531677978049471e-02  7.3183473769110108e-02  1.4689428802280299e-02  9.1545812148317016e-02  8.6732214941535477e-02  2.2402533669281247e-02  3.9152547309666566e-02  2.4758134969020115e-02  4.5779580503201879e-04  7.2905744224775627e-03  1.1631667582656980e-03  2.7138701534771219e-04  1.6069286559778006e-03  2.1401212820317699e-03  1.6496800421083584e-03  2.3086890265216734e-03  5.4120109604754963e-04  8.9853613243552350e-04  3.4108505675606678e-04  1.8464002595412678e-03  7.4373509402588542e-04  2.5354452729249421e-03  1.4923566166935836e-03  1.6925752586745427e-03  2.0572164615517787e-03  8.0689712506193335e-04  5.1590497341614952e-04  1.4002084552019496e-04  1.2037062152420224e-35  -4.8035415523567900e-19  9.6479626064999973e-03  2.5605413047735063e-02  2.8170539233349168e-02  4.0022162411462142e-02  3.2982526285018098e-03  2.6073692717081699e-02  2.5261172088186623e-02  7.5724044667548646e-02  4.0916466416529275e-02  7.3713738515761044e-03  2.8882729464987628e-02  1.0633265766859301e-02  5.6136487611777086e-02  1.4516118552186461e-01  1.4101770496651103e-01  3.3056800800764528e-02  1.1690337490214719e-01  1.4837905388315309e-01  2.6022990984666872e-02  1.5985319414293925e-01  2.1385342669813030e-02  3.0540532144962225e-02  2.6797831391016925e-02  1.2635119931223901e-01  1.2673219514543380e-01  5.9952532959265149e-02  6.3191144207621766e-03  3.6283820295427573e-02  6.6262305984572294e-03  2.5334849454876560e-02  1.0916834385336511e-02  2.8828347887054615e-03  6.4700824386330631e-04  3.7329216212800178e-04  2.6418662199070519e-03  1.6044743292194029e-03  1.6395398771005259e-03  2.6444656460746173e-03  1.6046758509731184e-03  4.2098827319341127e-04  9.3913069551547425e-04  1.9288080950741662e-03  1.2304202960256477e-03  2.9718204403943772e-03  1.2669362630750966e-03  2.3776973198691344e-03  1.5115917058838549e-03  7.1878450925374929e-04  3.4096476199221636e-04  6.0185310762101120e-36  -4.2280292953837956e-19  1.3067886019891213e-02  1.3103650695877893e-02  1.3400436461141349e-02  3.3658720291746012e-02  3.2585051664005854e-02  4.2633587651024381e-02  4.3246165324135770e-02  1.8013978810226542e-02  1.8710078118723814e-02  1.2933369011713522e-01  8.7253424986689254e-02  1.0549645084639053e-01  8.2788372797962390e-02  4.2337942277838367e-02  3.7083331127114698e-02  5.8470035533728692e-03  2.2319787240405821e-02  3.3539084395923971e-02  8.6731227364703914e-02  1.3448205036200989e-01  6.7972975253737730e-02  1.6397812415455574e-02  6.9968138011053241e-02  9.8991430680318196e-02  1.0045736584233080e-02  1.1354215897967691e-01  9.6427939705029372e-02  1.0835884493107524e-02  4.3188156325037440e-02  2.4740892982357248e-02  5.8349257881424067e-03  1.1009973059247467e-02  1.7192590347870951e-05  3.6638653508943772e-04  1.0290791223756886e-03  2.1238790075970375e-03  1.3689283348625974e-03  2.1853819173763443e-03  7.0896873547441664e-04  1.6724901294145882e-03  4.1577747927159180e-04  2.0012898374206774e-03  9.7666749492178982e-04  3.1506348429126640e-03  2.2657143279231433e-03  1.8857005249432015e-03  2.3814934976564999e-03  1.0852020901440595e-03  5.4485698524407895e-04  -6.8496945825140419e-20  -4.2212065934104267e-19  8.9348058345779507e-03  5.1272752175508182e-03  2.4425076830248138e-02  4.3126545486953743e-02  3.6340308578787284e-02  1.6260023835018848e-02  2.5520659294317970e-02  6.0412729730994347e-03  9.5805106079418917e-02  5.9828093402022574e-02  1.7473964230788005e-02  4.9388829737932995e-02  1.6395737014534634e-02  6.8404476797526773e-02  1.7456726005956988e-01  1.6899406212035209e-01  4.0398348611329751e-02  1.5000199083286997e-01  1.9869846210410874e-01  3.7214322640194454e-02  2.1333145224374733e-01  4.5694041112004383e-02  2.2344859047257672e-02  2.8735810105661026e-02  1.5783384487168611e-01  1.4535497194311237e-01  6.9146798092760989e-02  7.0068426985252195e-03  4.4537112670365135e-02  1.2909906426154147e-02  2.8525337379416663e-02  9.9547858646680983e-03  7.6894620601956690e-03  5.7654141418687505e-05  5.9692818385294008e-04  1.9542089651891754e-03  1.2633094967655955e-03  1.3132942543502084e-03  2.2741054331151139e-03  1.7515060846014893e-03  5.9540599885266174e-04  9.0662477724108353e-04  2.4001119158330252e-03  1.0818879501993761e-03  3.6255774903943012e-03  1.7400657623396656e-03  2.4433678346664090e-03  1.8441938777118427e-03  7.9346932532663324e-04  2.2023197857784615e-20  -3.5033371889474103e-19  1.3437937874665705e-02  1.2907161415573394e-02  1.0134833243057971e-02  4.5187322951081681e-03  4.3359735124162406e-02  4.9682722270392138e-02  5.2067173687074690e-02  7.1387735512459666e-02  6.3420101269481676e-03  4.2673560552193825e-02  1.8286355470858923e-01  8.2123353508465918e-02  1.1129308884826745e-01  7.3635590107707899e-02  3.5764849962551713e-02  2.1684390835653326e-02  1.3082982257796666e-02  3.7991042418513902e-03  3.4665818540538608e-02  7.0073703472105564e-02  1.4819229694971561e-01  6.1903138249450235e-02  7.7470701478997879e-03  9.7153434997589702e-02  1.3913374907784526e-01  8.8112146913567370e-03  1.1716321098865760e-01  1.0269283191063101e-01  1.7926232764310816e-02  4.1162088593244224e-02  1.8247873176108789e-02  8.2975798782557227e-03  1.3836498563132403e-02  4.4548601092668652e-03  1.5219123590977564e-03  1.8849990915225775e-04  1.2757497457162256e-03  5.8095967077657299e-04  1.6926647703361759e-03  2.2478767825416854e-04  2.3308652661561706e-03  5.1250384498862647e-04  2.3012663557058126e-03  1.6195777950611741e-03  2.9770296084406962e-03  2.7058610179939895e-03  1.9416121771214843e-03  2.1905783736814047e-03  1.1270926119358079e-03  -6.2566208432801939e-20  4.8148248609680896e-35  1.5983061565931836e-02  1.6483902690793507e-02  1.2151000494430943e-02  5.7709148537616571e-03  6.8212008628349530e-02  3.1623924824880599e-02  4.0538893938315036e-02  2.9745631734827416e-02  9.8072747138443044e-03  8.5626395815159920e-02  5.3381966449038740e-02  3.9679006394663305e-02  1.1321018574743275e-01  9.9837867812779448e-03  1.1836432204984455e-01  2.0154940420103543e-01  2.2889784153164758e-01  5.6318965416408975e-02  1.7892080616319686e-01  2.6313586113944765e-01  1.6029020433192792e-02  2.9894449351401753e-01  8.3318700384893418e-02  1.9714700408510307e-02  3.5801888026000712e-02  2.1910002268775991e-01  1.4923029942468582e-01  1.0354418088361193e-01  2.0786171667445504e-02  7.8179372171457165e-02  1.9775793923134295e-02  2.0703876566277774e-02  8.7472961624678620e-03  1.3384100739958408e-02  3.2487976586141804e-03  2.2385625132454951e-03  2.7275544884818937e-04  5.0102376009375073e-05  1.6055624522330421e-04  1.2421681942172123e-03  2.2594329663688730e-03  1.9548198091085618e-03  1.5796997213445346e-03  3.0673627152939748e-03  3.8471761872508952e-04  3.4462037447695972e-03  1.8737153778335680e-03  1.9841344621042514e-03  1.2700582786101886e-03  -1.7625599294110300e-19  -2.8843318451894637e-19  9.4207926606760285e-03  6.0089122078692504e-03  2.2654877504277294e-02  1.9041512339394929e-02  1.4909110937670628e-02  1.3493051915734440e-02  1.0942952297797404e-01  8.1376977254545971e-02  1.0724515451889959e-01  4.4960951705321503e-03  6.0213082022882933e-02  2.1103574201772060e-01  1.4607774190527453e-01  7.0436876947503460e-02  7.9966139093185215e-02  5.3659610760241158e-02  4.3899434292563266e-02  3.2291275974431293e-03  5.8472267359279760e-02  5.8926759213103266e-02  3.9918191528899978e-02  1.6954489486705140e-01  7.8198907646798696e-02  1.1872687209823032e-01  1.9635346107421955e-01  2.1501041246720073e-01  2.0328341729346500e-02  7.6451779654721788e-02  1.4746714225794477e-01  6.8392311063715058e-02  5.4753062514563619e-02  4.0185420769786291e-03  1.7773209803392347e-03  1.8731156857155134e-02  1.2932810857579715e-02  4.8819712994332435e-03  1.9470860565347942e-03  1.0033198252427720e-03  1.2040814250402138e-03  2.3935123731577132e-04  1.3065169939402771e-03  3.1689675240473354e-03  2.4136020749388289e-03  3.0064525600946921e-03  2.5472501337433025e-03  2.1973608944482730e-03  2.5940775815856462e-03  1.7424042345751333e-03  1.2884810345656155e-03  8.0785095210432531e-21  -1.4444474582904269e-34  1.1638834752884545e-02  8.3585320267961002e-03  9.3460664151653026e-04  4.9172031980565531e-03  6.3461620386966872e-03  7.1896335317905277e-02  2.7707739879672344e-02  2.9856789880467603e-02  4.4657973685210815e-02  1.0574308714465684e-01  1.1277916667878017e-01  6.5573686015089006e-02  5.2586061431439401e-02  1.7272168380844291e-01  1.0013534177517476e-01  4.6061869876711937e-02  3.5436545125188856e-01  2.4256845307688282e-01  9.5183377823067114e-02  1.7624422670697068e-01  3.9645944546700468e-01  1.8080314364345386e-03  3.9416640284474042e-01  1.1496036123255456e-01  4.9811543292100052e-02  1.4120628191528634e-01  4.3135678885900014e-01  3.4014672201472765e-02  2.3295597354522174e-01  1.0512755225185711e-02  1.6873408361791586e-01  5.8338646723450578e-02  9.9484660924202429e-03  1.7249281004280345e-02  2.2231853958355297e-02  1.1624894338925955e-02  6.0199688280851071e-03  2.4808828320948433e-03  2.3798407728045355e-03  2.0895397216639743e-03  7.1743826048232390e-04  3.8657856378063052e-03  3.6700792390675602e-03  3.5419451792168175e-03  4.1800016471169408e-03  8.4769422409629455e-04  2.5033386416890395e-03  1.7142569867377685e-03  1.3246287142837643e-03  -7.3531664883872426e-20  -1.6051011709359066e-19  1.7078093164142043e-02  1.4478614824334707e-02  4.6705365167055849e-03  2.4552989989586084e-02  4.8910916588600613e-03  9.3346688914501368e-03  2.4512222712849960e-02  1.1969850837430940e-01  5.0418613106600951e-02  1.6372555055631427e-01  7.1198145941244836e-02  2.1668938262630869e-01  3.6829659047389601e-01  1.2157673560593958e-01  1.1441451616163456e-01  4.5530807375159132e-02  2.1730195635061957e-03  9.6811017063692523e-02  3.0336570538523538e-01  2.1420414380823549e-01  1.6996556533457738e-01  5.6213827859217060e-02  8.0506731214308147e-01  5.9552262262583297e-02  5.1400008874296736e-02  5.0045512697508780e-02  6.4643516422674441e-01  1.0981302303418405e-01  1.9199245531875825e-01  3.7443425224255977e-01  2.1361279839647943e-01  1.1078313111302122e-01  1.7996481159453154e-02  2.6658518566689403e-02  2.5892162765583971e-02  2.2970057160587129e-02  1.1022943831790115e-02  5.2853676390827303e-03  3.9247459137200470e-03  3.4508414180683231e-03  2.0020706382101456e-03  3.6293444416188561e-03  4.6419241603796926e-03  5.0684456557329545e-03  4.8501543442616259e-03  4.1609651008993982e-03  4.7147893640490652e-04  1.4504420460785949e-03  1.1229090200428737e-03  -6.2333972430543487e-20  1.9740781929969167e-33  2.8914932141275614e-03  9.4277288140570733e-03  2.0453308939151846e-02  2.6675365751092812e-02  8.2321759129504093e-03  7.1588160545516086e-04  5.9597199448235702e-02  3.3803365060408523e-03  6.0357760721268618e-02  4.9187555320971271e-02  7.7860758328404264e-02  3.4194679951144624e-03  3.4346539695363783e-02  3.9583686662452711e-02  4.4590074227685772e-01  2.0270809360560180e-03  1.5845020057867820e-01  3.7328124738439250e-01  3.0929082367533689e-01  8.6775276477336516e-01  8.3979056108457717e-01  2.3735408282991186e-01  1.7181096318390168e-01  4.8740636113179930e-01  2.6570617706082978e-02  1.2141201979876613e-01  1.0617843391341057e-01  4.1899036699970577e-01  1.1665000748891617e-01  2.7407777390849564e-01  1.4378583652421537e-01  2.3972017690713376e-01  1.3578940651103300e-01  6.8213488343383519e-02  4.6796414910472157e-02  3.5764383748282703e-02  2.3052807898459756e-02  1.0405711204367193e-02  4.9931637154358556e-03  4.6574019060974265e-03  3.9409182308125339e-03  2.6586624800389912e-03  5.7904030364394031e-03  5.2245343303891599e-03  6.3300349322247566e-03  5.9869056461964833e-03  2.8705012317647226e-03  2.8807913492188346e-04  3.7358834489620649e-04  1.8110363065231313e-18  4.8148248609680896e-34  1.4865235417379392e-02  7.9455528120932716e-04  4.5239433444243995e-03  3.6673278907656129e-03  2.1007306129577981e-03  5.0281676725895640e-02  2.9930467986084435e-02  2.4377311389312387e-02  1.3606176124153077e-01  1.6387152119328771e-03  2.4287492615901413e-01  1.1352561472161959e-01  2.2914681873498075e-01  2.2774951635868276e-01  4.2689790417113510e-01  8.1820020033703065e-03  2.2514667353142590e-02  5.3927296606408248e-01  5.2449308023748510e-02  1.8588089064172594e-01  1.3803669270808008e-01  2.0650468128889218e-01  1.9370283591124876e-01  1.2173182246500512e-01  1.6788720985441771e-01  4.6781661748246592e-02  5.6506040344485524e-02  4.7381042127473759e-02  8.1355200317942841e-02  1.6352806649963744e-02  2.9707659056018804e-01  3.1208371319410300e-01  3.3773675950028270e-01  1.1733254500770271e-01  8.9394984274905304e-02  4.8859655991874175e-02  3.6432748058478508e-02  2.0480854988033991e-02  8.6568783994775862e-03  5.9868766803335546e-03  4.8674955756697041e-03  3.3579136044889889e-03  5.1572735303383856e-03  5.5763726181960677e-03  6.7440526920084952e-03  6.7084302796718261e-03  5.5929727836986813e-03  1.5694683484198983e-03  5.7418823257789151e-04  1.2037062152420224e-34  -9.6422475486763299e-19  8.4876663981989630e-03  9.5846130360882371e-03  1.0348372667748717e-02  8.6478844740120169e-03  1.8275834867603734e-03  1.8578482339514448e-02  6.7834717536165616e-03  1.2891621823641525e-02  6.2536534846505953e-02  9.534115649