<?xml version="1.0"?>
<VTKFile type="UnstructuredGrid"  version="0.1"  >
<UnstructuredGrid>
<Piece  NumberOfPoints="2601" NumberOfCells="5000">
<Points>
<DataArray  type="Float64"  NumberOfComponents="3"  format="ascii">0 0 0  0.02 0 0  0.04 0 0  0.06 0 0  0.08 0 0  0.1 0 0  0.12 0 0  0.14 0 0  0.16 0 0  0.18 0 0  0.2 0 0  0.22 0 0  0.24 0 0  0.26 0 0  0.28 0 0  0.3 0 0  0.32 0 0  0.34 0 0  0.36 0 0  0.38 0 0  0.4 0 0  0.42 0 0  0.44 0 0  0.46 0 0  0.48 0 0  0.5 0 0  0.52 0 0  0.54 0 0  0.5600000000000001 0 0  0.58 0 0  0.6 0 0  0.62 0 0  0.64 0 0  0.66 0 0  0.68 0 0  0.7 0 0  0.72 0 0  0.74 0 0  0.76 0 0  0.78 0 0  0.8 0 0  0.82 0 0  0.84 0 0  0.86 0 0  0.88 0 0  0.9 0 0  0.92 0 0  0.9399999999999999 0 0  0.96 0 0  0.98 0 0  1 0 0  0 0.02 0  0.02 0.02 0  0.04 0.02 0  0.06 0.02 0  0.08 0.02 0  0.1 0.02 0  0.12 0.02 0  0.14 0.02 0  0.16 0.02 0  0.18 0.02 0  0.2 0.02 0  0.22 0.02 0  0.24 0.02 0  0.26 0.02 0  0.28 0.02 0  0.3 0.02 0  0.32 0.02 0  0.34 0.02 0  0.36 0.02 0  0.38 0.02 0  0.4 0.02 0  0.42 0.02 0  0.44 0.02 0  0.46 0.02 0  0.48 0.02 0  0.5 0.02 0  0.52 0.02 0  0.54 0.02 0  0.5600000000000001 0.02 0  0.58 0.02 0  0.6 0.02 0  0.62 0.02 0  0.64 0.02 0  0.66 0.02 0  0.68 0.02 0  0.7 0.02 0  0.72 0.02 0  0.74 0.02 0  0.76 0.02 0  0.78 0.02 0  0.8 0.02 0  0.82 0.02 0  0.84 0.02 0  0.86 0.02 0  0.88 0.02 0  0.9 0.02 0  0.92 0.02 0  0.9399999999999999 0.02 0  0.96 0.02 0  0.98 0.02 0  1 0.02 0  0 0.04 0  0.02 0.04 0  0.04 0.04 0  0.06 0.04 0  0.08 0.04 0  0.1 0.04 0  0.12 0.04 0  0.14 0.04 0  0.16 0.04 0  0.18 0.04 0  0.2 0.04 0  0.22 0.04 0  0.24 0.04 0  0.26 0.04 0  0.28 0.04 0  0.3 0.04 0  0.32 0.04 0  0.34 0.04 0  0.36 0.04 0  0.38 0.04 0  0.4 0.04 0  0.42 0.04 0  0.44 0.04 0  0.46 0.04 0  0.48 0.04 0  0.5 0.04 0  0.52 0.04 0  0.54 0.04 0  0.5600000000000001 0.04 0  0.58 0.04 0  0.6 0.04 0  0.62 0.04 0  0.64 0.04 0  0.66 0.04 0  0.68 0.04 0  0.7 0.04 0  0.72 0.04 0  0.74 0.04 0  0.76 0.04 0  0.78 0.04 0  0.8 0.04 0  0.82 0.04 0  0.84 0.04 0  0.86 0.04 0  0.88 0.04 0  0.9 0.04 0  0.92 0.04 0  0.9399999999999999 0.04 0  0.96 0.04 0  0.98 0.04 0  1 0.04 0  0 0.06 0  0.02 0.06 0  0.04 0.06 0  0.06 0.06 0  0.08 0.06 0  0.1 0.06 0  0.12 0.06 0  0.14 0.06 0  0.16 0.06 0  0.18 0.06 0  0.2 0.06 0  0.22 0.06 0  0.24 0.06 0  0.26 0.06 0  0.28 0.06 0  0.3 0.06 0  0.32 0.06 0  0.34 0.06 0  0.36 0.06 0  0.38 0.06 0  0.4 0.06 0  0.42 0.06 0  0.44 0.06 0  0.46 0.06 0  0.48 0.06 0  0.5 0.06 0  0.52 0.06 0  0.54 0.06 0  0.5600000000000001 0.06 0  0.58 0.06 0  0.6 0.06 0  0.62 0.06 0  0.64 0.06 0  0.66 0.06 0  0.68 0.06 0  0.7 0.06 0  0.72 0.06 0  0.74 0.06 0  0.76 0.06 0  0.78 0.06 0  0.8 0.06 0  0.82 0.06 0  0.84 0.06 0  0.86 0.06 0  0.88 0.06 0  0.9 0.06 0  0.92 0.06 0  0.9399999999999999 0.06 0  0.96 0.06 0  0.98 0.06 0  1 0.06 0  0 0.08 0  0.02 0.08 0  0.04 0.08 0  0.06 0.08 0  0.08 0.08 0  0.1 0.08 0  0.12 0.08 0  0.14 0.08 0  0.16 0.08 0  0.18 0.08 0  0.2 0.08 0  0.22 0.08 0  0.24 0.08 0  0.26 0.08 0  0.28 0.08 0  0.3 0.08 0  0.32 0.08 0  0.34 0.08 0  0.36 0.08 0  0.38 0.08 0  0.4 0.08 0  0.42 0.08 0  0.44 0.08 0  0.46 0.08 0  0.48 0.08 0  0.5 0.08 0  0.52 0.08 0  0.54 0.08 0  0.5600000000000001 0.08 0  0.58 0.08 0  0.6 0.08 0  0.62 0.08 0  0.64 0.08 0  0.66 0.08 0  0.68 0.08 0  0.7 0.08 0  0.72 0.08 0  0.74 0.08 0  0.76 0.08 0  0.78 0.08 0  0.8 0.08 0  0.82 0.08 0  0.84 0.08 0  0.86 0.08 0  0.88 0.08 0  0.9 0.08 0  0.92 0.08 0  0.9399999999999999 0.08 0  0.96 0.08 0  0.98 0.08 0  1 0.08 0  0 0.1 0  0.02 0.1 0  0.04 0.1 0  0.06 0.1 0  0.08 0.1 0  0.1 0.1 0  0.12 0.1 0  0.14 0.1 0  0.16 0.1 0  0.18 0.1 0  0.2 0.1 0  0.22 0.1 0  0.24 0.1 0  0.26 0.1 0  0.28 0.1 0  0.3 0.1 0  0.32 0.1 0  0.34 0.1 0  0.36 0.1 0  0.38 0.1 0  0.4 0.1 0  0.42 0.1 0  0.44 0.1 0  0.46 0.1 0  0.48 0.1 0  0.5 0.1 0  0.52 0.1 0  0.54 0.1 0  0.5600000000000001 0.1 0  0.58 0.1 0  0.6 0.1 0  0.62 0.1 0  0.64 0.1 0  0.66 0.1 0  0.68 0.1 0  0.7 0.1 0  0.72 0.1 0  0.74 0.1 0  0.76 0.1 0  0.78 0.1 0  0.8 0.1 0  0.82 0.1 0  0.84 0.1 0  0.86 0.1 0  0.88 0.1 0  0.9 0.1 0  0.92 0.1 0  0.9399999999999999 0.1 0  0.96 0.1 0  0.98 0.1 0  1 0.1 0  0 0.12 0  0.02 0.12 0  0.04 0.12 0  0.06 0.12 0  0.08 0.12 0  0.1 0.12 0  0.12 0.12 0  0.14 0.12 0  0.16 0.12 0  0.18 0.12 0  0.2 0.12 0  0.22 0.12 0  0.24 0.12 0  0.26 0.12 0  0.28 0.12 0  0.3 0.12 0  0.32 0.12 0  0.34 0.12 0  0.36 0.12 0  0.38 0.12 0  0.4 0.12 0  0.42 0.12 0  0.44 0.12 0  0.46 0.12 0  0.48 0.12 0  0.5 0.12 0  0.52 0.12 0  0.54 0.12 0  0.5600000000000001 0.12 0  0.58 0.12 0  0.6 0.12 0  0.62 0.12 0  0.64 0.12 0  0.66 0.12 0  0.68 0.12 0  0.7 0.12 0  0.72 0.12 0  0.74 0.12 0  0.76 0.12 0  0.78 0.12 0  0.8 0.12 0  0.82 0.12 0  0.84 0.12 0  0.86 0.12 0  0.88 0.12 0  0.9 0.12 0  0.92 0.12 0  0.9399999999999999 0.12 0  0.96 0.12 0  0.98 0.12 0  1 0.12 0  0 0.14 0  0.02 0.14 0  0.04 0.14 0  0.06 0.14 0  0.08 0.14 0  0.1 0.14 0  0.12 0.14 0  0.14 0.14 0  0.16 0.14 0  0.18 0.14 0  0.2 0.14 0  0.22 0.14 0  0.24 0.14 0  0.26 0.14 0  0.28 0.14 0  0.3 0.14 0  0.32 0.14 0  0.34 0.14 0  0.36 0.14 0  0.38 0.14 0  0.4 0.14 0  0.42 0.14 0  0.44 0.14 0  0.46 0.14 0  0.48 0.14 0  0.5 0.14 0  0.52 0.14 0  0.54 0.14 0  0.5600000000000001 0.14 0  0.58 0.14 0  0.6 0.14 0  0.62 0.14 0  0.64 0.14 0  0.66 0.14 0  0.68 0.14 0  0.7 0.14 0  0.72 0.14 0  0.74 0.14 0  0.76 0.14 0  0.78 0.14 0  0.8 0.14 0  0.82 0.14 0  0.84 0.14 0  0.86 0.14 0  0.88 0.14 0  0.9 0.14 0  0.92 0.14 0  0.9399999999999999 0.14 0  0.96 0.14 0  0.98 0.14 0  1 0.14 0  0 0.16 0  0.02 0.16 0  0.04 0.16 0  0.06 0.16 0  0.08 0.16 0  0.1 0.16 0  0.12 0.16 0  0.14 0.16 0  0.16 0.16 0  0.18 0.16 0  0.2 0.16 0  0.22 0.16 0  0.24 0.16 0  0.26 0.16 0  0.28 0.16 0  0.3 0.16 0  0.32 0.16 0  0.34 0.16 0  0.36 0.16 0  0.38 0.16 0  0.4 0.16 0  0.42 0.16 0  0.44 0.16 0  0.46 0.16 0  0.48 0.16 0  0.5 0.16 0  0.52 0.16 0  0.54 0.16 0  0.5600000000000001 0.16 0  0.58 0.16 0  0.6 0.16 0  0.62 0.16 0  0.64 0.16 0  0.66 0.16 0  0.68 0.16 0  0.7 0.16 0  0.72 0.16 0  0.74 0.16 0  0.76 0.16 0  0.78 0.16 0  0.8 0.16 0  0.82 0.16 0  0.84 0.16 0  0.86 0.16 0  0.88 0.16 0  0.9 0.16 0  0.92 0.16 0  0.9399999999999999 0.16 0  0.96 0.16 0  0.98 0.16 0  1 0.16 0  0 0.18 0  0.02 0.18 0  0.04 0.18 0  0.06 0.18 0  0.08 0.18 0  0.1 0.18 0  0.12 0.18 0  0.14 0.18 0  0.16 0.18 0  0.18 0.18 0  0.2 0.18 0  0.22 0.18 0  0.24 0.18 0  0.26 0.18 0  0.28 0.18 0  0.3 0.18 0  0.32 0.18 0  0.34 0.18 0  0.36 0.18 0  0.38 0.18 0  0.4 0.18 0  0.42 0.18 0  0.44 0.18 0  0.46 0.18 0  0.48 0.18 0  0.5 0.18 0  0.52 0.18 0  0.54 0.18 0  0.5600000000000001 0.18 0  0.58 0.18 0  0.6 0.18 0  0.62 0.18 0  0.64 0.18 0  0.66 0.18 0  0.68 0.18 0  0.7 0.18 0  0.72 0.18 0  0.74 0.18 0  0.76 0.18 0  0.78 0.18 0  0.8 0.18 0  0.82 0.18 0  0.84 0.18 0  0.86 0.18 0  0.88 0.18 0  0.9 0.18 0  0.92 0.18 0  0.9399999999999999 0.18 0  0.96 0.18 0  0.98 0.18 0  1 0.18 0  0 0.2 0  0.02 0.2 0  0.04 0.2 0  0.06 0.2 0  0.08 0.2 0  0.1 0.2 0  0.12 0.2 0  0.14 0.2 0  0.16 0.2 0  0.18 0.2 0  0.2 0.2 0  0.22 0.2 0  0.24 0.2 0  0.26 0.2 0  0.28 0.2 0  0.3 0.2 0  0.32 0.2 0  0.34 0.2 0  0.36 0.2 0  0.38 0.2 0  0.4 0.2 0  0.42 0.2 0  0.44 0.2 0  0.46 0.2 0  0.48 0.2 0  0.5 0.2 0  0.52 0.2 0  0.54 0.2 0  0.5600000000000001 0.2 0  0.58 0.2 0  0.6 0.2 0  0.62 0.2 0  0.64 0.2 0  0.66 0.2 0  0.68 0.2 0  0.7 0.2 0  0.72 0.2 0  0.74 0.2 0  0.76 0.2 0  0.78 0.2 0  0.8 0.2 0  0.82 0.2 0  0.84 0.2 0  0.86 0.2 0  0.88 0.2 0  0.9 0.2 0  0.92 0.2 0  0.9399999999999999 0.2 0  0.96 0.2 0  0.98 0.2 0  1 0.2 0  0 0.22 0  0.02 0.22 0  0.04 0.22 0  0.06 0.22 0  0.08 0.22 0  0.1 0.22 0  0.12 0.22 0  0.14 0.22 0  0.16 0.22 0  0.18 0.22 0  0.2 0.22 0  0.22 0.22 0  0.24 0.22 0  0.26 0.22 0  0.28 0.22 0  0.3 0.22 0  0.32 0.22 0  0.34 0.22 0  0.36 0.22 0  0.38 0.22 0  0.4 0.22 0  0.42 0.22 0  0.44 0.22 0  0.46 0.22 0  0.48 0.22 0  0.5 0.22 0  0.52 0.22 0  0.54 0.22 0  0.5600000000000001 0.22 0  0.58 0.22 0  0.6 0.22 0  0.62 0.22 0  0.64 0.22 0  0.66 0.22 0  0.68 0.22 0  0.7 0.22 0  0.72 0.22 0  0.74 0.22 0  0.76 0.22 0  0.78 0.22 0  0.8 0.22 0  0.82 0.22 0  0.84 0.22 0  0.86 0.22 0  0.88 0.22 0  0.9 0.22 0  0.92 0.22 0  0.9399999999999999 0.22 0  0.96 0.22 0  0.98 0.22 0  1 0.22 0  0 0.24 0  0.02 0.24 0  0.04 0.24 0  0.06 0.24 0  0.08 0.24 0  0.1 0.24 0  0.12 0.24 0  0.14 0.24 0  0.16 0.24 0  0.18 0.24 0  0.2 0.24 0  0.22 0.24 0  0.24 0.24 0  0.26 0.24 0  0.28 0.24 0  0.3 0.24 0  0.32 0.24 0  0.34 0.24 0  0.36 0.24 0  0.38 0.24 0  0.4 0.24 0  0.42 0.24 0  0.44 0.24 0  0.46 0.24 0  0.48 0.24 0  0.5 0.24 0  0.52 0.24 0  0.54 0.24 0  0.5600000000000001 0.24 0  0.58 0.24 0  0.6 0.24 0  0.62 0.24 0  0.64 0.24 0  0.66 0.24 0  0.68 0.24 0  0.7 0.24 0  0.72 0.24 0  0.74 0.24 0  0.76 0.24 0  0.78 0.24 0  0.8 0.24 0  0.82 0.24 0  0.84 0.24 0  0.86 0.24 0  0.88 0.24 0  0.9 0.24 0  0.92 0.24 0  0.9399999999999999 0.24 0  0.96 0.24 0  0.98 0.24 0  1 0.24 0  0 0.26 0  0.02 0.26 0  0.04 0.26 0  0.06 0.26 0  0.08 0.26 0  0.1 0.26 0  0.12 0.26 0  0.14 0.26 0  0.16 0.26 0  0.18 0.26 0  0.2 0.26 0  0.22 0.26 0  0.24 0.26 0  0.26 0.26 0  0.28 0.26 0  0.3 0.26 0  0.32 0.26 0  0.34 0.26 0  0.36 0.26 0  0.38 0.26 0  0.4 0.26 0  0.42 0.26 0  0.44 0.26 0  0.46 0.26 0  0.48 0.26 0  0.5 0.26 0  0.52 0.26 0  0.54 0.26 0  0.5600000000000001 0.26 0  0.58 0.26 0  0.6 0.26 0  0.62 0.26 0  0.64 0.26 0  0.66 0.26 0  0.68 0.26 0  0.7 0.26 0  0.72 0.26 0  0.74 0.26 0  0.76 0.26 0  0.78 0.26 0  0.8 0.26 0  0.82 0.26 0  0.84 0.26 0  0.86 0.26 0  0.88 0.26 0  0.9 0.26 0  0.92 0.26 0  0.9399999999999999 0.26 0  0.96 0.26 0  0.98 0.26 0  1 0.26 0  0 0.28 0  0.02 0.28 0  0.04 0.28 0  0.06 0.28 0  0.08 0.28 0  0.1 0.28 0  0.12 0.28 0  0.14 0.28 0  0.16 0.28 0  0.18 0.28 0  0.2 0.28 0  0.22 0.28 0  0.24 0.28 0  0.26 0.28 0  0.28 0.28 0  0.3 0.28 0  0.32 0.28 0  0.34 0.28 0  0.36 0.28 0  0.38 0.28 0  0.4 0.28 0  0.42 0.28 0  0.44 0.28 0  0.46 0.28 0  0.48 0.28 0  0.5 0.28 0  0.52 0.28 0  0.54 0.28 0  0.5600000000000001 0.28 0  0.58 0.28 0  0.6 0.28 0  0.62 0.28 0  0.64 0.28 0  0.66 0.28 0  0.68 0.28 0  0.7 0.28 0  0.72 0.28 0  0.74 0.28 0  0.76 0.28 0  0.78 0.28 0  0.8 0.28 0  0.82 0.28 0  0.84 0.28 0  0.86 0.28
[...]
<PointData  Scalars="Indicator Function"> 
<DataArray  type="Float64"  Name="Indicator Function"  format="ascii">-1.9108836166967106e-34  6.8877447268372689e-18  -1.0818236146342890e-18  1.5102548996971791e-17  5.0568200827619877e-18  -1.9747315953310268e-19  -8.2443976326013039e-19  1.9214189889218698e-16  9.8156368041033031e-17  -3.5401407263734631e-19  7.5347802200465923e-17  2.1491128337304222e-16  -1.5802243041175762e-19  -4.7185283637487278e-33  -1.8686015319514074e-17  -8.8635075553063845e-19  -3.1910783777793889e-19  1.1921791772283311e-16  -3.2778391072247286e-19  -6.1419979214913380e-19  5.1157114000511394e-17  -4.6269247566111999e-19  -3.9154244510438858e-19  2.0915345234001731e-16  7.2222372914521344e-35  -3.1144469465845249e-19  -1.4068046308598901e-19  -7.0576610296840101e-20  8.5262407981770287e-17  -3.0092655381050560e-36  -8.4635593259204701e-37  3.7615819226313200e-37  -4.5844576033490601e-21  -5.0915268756838685e-21  3.2367285619911542e-18  -2.1598363212228486e-20  -1.4648036576174169e-20  -1.8983723233787764e-20  -3.1347400652028289e-20  -4.0308361783894688e-20  1.4838124331949999e-17  -2.8461372582887396e-20  -2.9337782773638658e-20  -1.9643591717084479e-20  -8.4619866679984966e-21  -2.8799651870619529e-21  1.5568218112424358e-19  -1.2165580531213984e-22  0.0000000000000000e+00  -8.8162076311671563e-39  -1.1754943508222875e-38  -4.0838396645735894e-19  3.6140580146979437e-03  1.5732579182617793e-03  4.7347527966540293e-04  5.8042020982783235e-03  6.9047598786238602e-03  1.0498025144389124e-04  1.4799296316709006e-02  6.4121848733753699e-03  1.3753823361414803e-02  6.3773505824538468e-03  2.4563178157357229e-03  5.6933580697485714e-03  4.4533325706323842e-03  9.6634443039073561e-03  8.9400084296945292e-03  1.1497071514462094e-02  1.5441340554361808e-02  9.8851090173611832e-03  4.1373011318021364e-03  8.9957892543144104e-03  1.5702855292598444e-02  4.8369899759899009e-04  7.0534016394874508e-03  5.8288231271239185e-03  1.0838819883646959e-03  5.0685478490589487e-03  2.5427903666713071e-03  1.2996366300427507e-04  2.1678635679246778e-04  1.7710791192863349e-04  6.7243504166469471e-05  4.9393750969095082e-05  9.7266139760789503e-05  1.5549715896138124e-04  3.9941620291370774e-04  1.8937342060076546e-04  2.6387556826466954e-04  2.1004257139482996e-04  5.4971870253231253e-04  4.5127154117329552e-04  1.6533535708718045e-04  4.3004682929138785e-04  3.1347909562324839e-04  1.9712794153749501e-04  1.0620674759890095e-04  4.6378007527751862e-05  1.8364123456184609e-05  6.9318050241690566e-06  1.6384169216928551e-06  1.8807909613156600e-37  7.7037197775489434e-34  1.1033019522662954e-02  1.2429724259372846e-02  5.3978026442668761e-03  5.8479970429620720e-03  6.9433575514842557e-03  1.2695985592535588e-02  1.6738251530365754e-02  5.2225058540546609e-03  1.6794782767827941e-02  1.0908067736048533e-02  2.3733086662452354e-02  3.7583751612369043e-02  2.6993578896212508e-02  2.1743101452363659e-03  1.9690844125590894e-02  2.4436308258508083e-02  9.8414864247956067e-04  2.5155204288612204e-02  2.2722590630912484e-03  1.7674097235111215e-02  8.1935556975052080e-03  2.8113491755396094e-02  2.7071382612756222e-02  2.0943712354308610e-02  9.9479644209713048e-03  1.1859396203457903e-02  6.6909358060837523e-04  2.9892138095861083e-03  1.5306053642422199e-03  4.4418139758056811e-04  1.1919910669457324e-04  2.8186658716275581e-05  1.0219755168069925e-04  1.2754841208978832e-04  3.5388825825522521e-04  6.2486414010808132e-04  2.2749388080544624e-04  3.2685934192452324e-04  5.4480551048474344e-04  8.8659193546424095e-04  2.6691192615620071e-04  5.8289416222055603e-04  5.6715763859229481e-04  3.4265266310984371e-04  1.9946623725400047e-04  9.5054114968948385e-05  3.7985842398986508e-05  1.4537660353970024e-05  4.4520657572149552e-06  1.4105932209867450e-37  -6.5348462813884237e-20  4.1300493289548297e-03  1.4862879201394685e-03  4.3376626992150001e-03  8.6695621862894114e-03  9.0946098116698893e-03  1.4206978913372569e-02  1.9887139258513956e-03  3.4085212331166806e-02  2.4340882039094743e-02  3.5765111250468870e-02  2.4934508412485158e-02  1.0022437417922732e-02  3.2658536026144216e-04  6.4386987934087446e-03  1.3035374821281125e-02  1.8130424645579683e-02  2.3026924697954993e-02  3.7156046713245891e-02  1.6821438318322706e-02  2.4689862711715221e-03  1.9408035366518341e-02  2.5985536172785730e-02  1.7077863678302554e-03  2.4104696488460756e-02  2.4168258371946548e-02  4.4701858100027868e-03  1.1792279949078067e-02  8.1964047421305610e-03  8.4419129296706022e-04  7.1054064782506276e-04  2.7339593679120343e-04  3.7166166570565774e-05  7.1031435404844992e-06  1.1305367278519885e-04  1.8929736742695659e-04  6.4103053988530227e-04  3.5034321664201664e-04  5.7608804717682982e-04  3.5110280752026929e-04  9.6407090918189430e-04  8.4342059556072454e-04  2.9201730320645267e-04  7.9711703811619474e-04  5.0977107107207152e-04  2.8388098346791705e-04  1.4795488070928745e-04  6.0823123438903701e-05  2.2307232124741668e-05  7.7884469343563155e-06  9.4039548065783001e-38  -2.4114108336348016e-19  1.7056785086476314e-02  5.5010165649314424e-04  1.2351901866211299e-02  1.0564731033667002e-03  1.0109918786252765e-02  1.1352118522064336e-02  2.5943500778379067e-02  1.8102703902032110e-02  4.1709057163438366e-03  1.5407868024950607e-02  8.2683537486483785e-03  2.7759156036502624e-02  5.6710457234668138e-02  5.1733306639029572e-02  1.0465270280574293e-02  3.8360789192908938e-02  4.6206127629179160e-02  4.1535444606838777e-03  4.6708416657838966e-02  2.4167264635583225e-03  1.8630324599587068e-02  9.1610641407266335e-03  4.3103418503507407e-02  4.5307281823428025e-02  2.7120989189723835e-02  1.1342873971926300e-02  1.7007933456629803e-02  6.1376941033466676e-05  7.4679393378593454e-03  3.2818317728663632e-03  2.5695479404436622e-04  6.4606998056966104e-05  5.9645157343080495e-05  5.1504953621925567e-05  8.6526795313176229e-05  3.8909493283906840e-04  7.9656274913688329e-04  3.3994504655444647e-04  4.9248986239069231e-04  6.9825867134630396e-04  1.2014919712249232e-03  3.8094281048416047e-04  7.9321099748619502e-04  7.6609829078761360e-04  4.0948628512688350e-04  2.1377793007018624e-04  9.3219692538758914e-05  3.1808335610972015e-05  9.3908731230704310e-06  1.6427669244150851e-21  -1.1591173059819088e-19  1.2064389481026424e-02  9.9893406419618563e-03  1.1012735970965972e-02  4.5814727018937667e-03  1.0226144375259771e-02  1.6305246923399592e-02  1.0061796691692484e-02  1.3679446091621190e-03  4.6439805290799885e-02  3.5266782157613544e-02  4.7050966832727061e-02  3.5734108859081057e-02  2.0908429510546982e-02  1.6473468339969977e-02  2.3290236326628877e-03  1.2048542726489208e-02  1.5558042156881811e-02  3.3262867211982822e-02  4.8708546232525268e-02  2.3115433596972820e-02  8.5933149269286097e-03  2.6573179901690083e-02  3.2070048964740278e-02  5.2685233897016119e-03  4.1310366944581019e-02  3.7835151603260564e-02  1.0533138685267510e-02  1.8028441954263043e-02  1.0727860296157557e-02  6.5994904001641234e-04  2.0043157509333719e-03  2.3719684346106641e-04  6.5994247230186334e-05  9.1685761535190838e-05  4.6124876433067458e-05  1.4914379398893934e-04  7.2037676900419247e-04  3.7052977778992191e-04  7.3150037786902454e-04  4.5633695164969747e-04  1.1760658014397965e-03  1.0453660272192722e-03  3.3875595015235203e-04  9.6303700867427498e-04  6.1474232303119992e-04  3.1226355579966125e-04  1.4645732744981410e-04  5.1183516843288038e-05  1.2976340971349234e-05  -7.2033162608893407e-22  -2.5858925080826072e-19  6.4231813454289754e-03  1.3400202069921452e-02  1.4831469303033713e-02  2.0015008853135036e-02  5.7652339217268427e-05  1.2527075502161452e-02  1.3087739252378683e-02  3.2190711951867873e-02  1.9906483033537186e-02  1.7308915439688676e-03  1.1655930581597029e-02  2.2035623837491345e-03  2.4291037441636416e-02  6.1990217464126217e-02  6.0549174153526931e-02  1.5079301612839860e-02  5.0620236596195946e-02  6.3313898492762047e-02  1.2142117100593116e-02  6.6771305258058675e-02  7.4646368979964161e-03  1.4600649148429741e-02  1.2125209146797879e-02  5.4317622654470182e-02  5.4266104869761633e-02  2.4934370063545899e-02  5.9060908619675070e-03  1.6348777749552554e-02  3.2649337334293249e-03  1.0495238969574041e-02  3.3364174853631658e-03  5.0261160363506156e-04  6.5151889490484591e-05  2.1354082287519931e-04  4.8136387204658671e-05  3.8150705012661934e-06  3.9027937568771005e-04  8.3940305835000426e-04  4.8185045098142319e-04  5.8917793583070576e-04  8.6732318375828488e-04  1.4047143307287680e-03  4.2547206774142514e-04  8.8663068672042869e-04  8.5919800272553121e-04  4.5712142026706985e-04  2.2108918112267846e-04  8.5422880919510009e-05  2.1656715158005038e-05  -1.2021891903082903e-21  -1.9031956714466326e-19  8.0529671803167696e-03  7.2089804786474925e-03  4.7945904324089910e-03  1.5883406041439792e-02  1.5075103733339900e-02  2.1067367983510495e-02  1.8265517184198179e-02  5.7567834871874290e-03  7.2136022340174933e-03  5.6769892700991864e-02  3.4871940115704249e-02  4.6734157329050147e-02  3.4464421786728754e-02  1.9280878726904715e-02  2.0109946723899735e-02  5.2670005306451615e-03  1.0158770975474012e-02  1.2975868540387266e-02  3.6640502570381588e-02  5.3523181266608572e-02  2.7104748643901454e-02  7.7696420941537822e-03  3.1437818920082586e-02  4.1953007701768630e-02  4.9767879267085206e-03  5.0452360523983129e-02  4.0384253799180730e-02  6.6523169211545061e-03  1.9570130102869406e-02  9.9093254165596324e-03  2.4838474865168073e-03  2.6023045091128853e-03  2.1980755110244607e-04  3.0036251540061529e-04  2.8045688661644194e-04  9.9344188474986516e-05  5.9316822428035924e-05  7.3185098615132882e-04  2.3910055252483566e-04  8.9042664972065178e-04  5.9894563467109143e-04  1.4034008452689403e-03  1.1708802450562173e-03  4.0028484252605391e-04  1.0249538420471285e-03  6.5771030304786441e-04  3.2488801340841957e-04  1.3644369565454404e-04  3.6425107163541385e-05  -3.6607675963404490e-21  -2.6588210637328065e-19  5.7648263370000709e-03  3.1056152461815512e-03  1.1077706452477628e-02  2.1233883562703674e-02  1.6653997884187206e-02  7.1314165493929632e-03  1.1849288678192980e-02  2.8659244200658369e-03  3.8952331276326503e-02  2.7621337738928359e-02  4.8268981692922057e-03  2.0524690066842977e-02  3.3945756570866441e-03  2.7856304868834249e-02  7.0297505318278011e-02  6.7007476263417826e-02  1.7066651137327457e-02  6.0780725608979576e-02  8.0311452321224330e-02  1.7992578187429099e-02  8.6188864771244184e-02  1.7770234756265067e-02  1.2249013311312359e-02  1.2859727294249595e-02  6.6100254788859447e-02  5.7920143730532350e-02  2.5821721377562241e-02  6.1631908860370586e-03  1.8510411466698101e-02  6.0697830075111493e-03  1.0317057730370465e-02  2.4045577907664986e-03  1.3704291732325503e-03  4.7852463852384711e-04  5.7035029939610097e-04  3.0410607129262497e-04  2.1111389568916105e-04  2.9584784421116101e-04  7.4486429620646824e-04  7.6869195453304750e-04  7.2937944825482860e-04  1.1339130470858704e-03  1.6285108837574007e-03  4.3865995810624705e-04  9.3702876974206090e-04  8.7024500742080417e-04  4.6422858378291791e-04  2.0789165311768022e-04  6.1543463193998839e-05  -5.8500509694405151e-21  -1.4409283611815987e-19  6.8092542616440647e-03  6.0563827147204798e-03  4.2635916364272275e-03  5.0868449418590967e-04  1.8799999660671626e-02  2.2748349894812024e-02  2.4376561621171890e-02  3.0531428766300054e-02  4.5196982806753705e-04  1.5512064340599270e-02  7.7804343654171701e-02  2.8450162051863671e-02  4.8382412160315073e-02  2.8153876923595559e-02  1.4692545177975885e-02  1.1575068641900318e-02  3.6330210263615824e-03  3.5543190446501441e-03  1.3339670222346221e-02  2.7650310491564623e-02  5.4313735179715980e-02  2.2012458349607376e-02  2.8214830685680545e-03  4.2901966896825253e-02  5.6931455884252878e-02  2.7556149917979137e-03  4.8961403848887322e-02  4.0113279305449563e-02  3.9221074793025935e-03  1.7877082539581337e-02  7.2646326287687897e-03  1.7058076286237400e-03  2.7781749129503004e-03  1.1965328746815385e-03  8.5635648008227717e-04  7.1991071473528521e-04  4.5312487907650279e-04  2.0027302601943373e-04  5.8388511604234308e-04  1.0069714520628646e-04  1.1812906210030250e-03  8.6367621455865726e-04  1.7408457952604473e-03  1.3297326247947343e-03  4.3046176175237275e-04  1.0033782370416201e-03  6.2697157861961179e-04  2.9656661434943326e-04  9.8108293317948953e-05  -5.4461043074132593e-21  4.8148248609680896e-35  7.9360898213237420e-03  7.7918863554971964e-03  5.2355261965373870e-03  2.5400638453135106e-03  3.0927836496740496e-02  1.4041325165755838e-02  1.7971422025485378e-02  1.2595527099271704e-02  5.4625644377562605e-03  3.2711196647175977e-02  2.1941974161402825e-02  1.5050084447899374e-02  4.7967004532177351e-02  2.5028418728940450e-04  4.9393785046928755e-02  7.9241086634709995e-02  8.9969064072673202e-02  2.3211221205237775e-02  6.9105902960177878e-02  1.0386509573326080e-01  7.4808553112556200e-03  1.1713163565840141e-01  3.0043684973793880e-02  1.1588354071332192e-02  1.5460016114505525e-02  8.8701156636706496e-02  5.7364586390463580e-02  3.9170826404127120e-02  1.2589320497030827e-02  2.9945349580879809e-02  8.1132624770405386e-03  6.9583229088382229e-03  3.0506379848861871e-03  2.5184106011420840e-03  1.5012262608173727e-03  1.3301426852888455e-03  8.8115323598859875e-04  7.0297685362571407e-04  2.8434220473251454e-05  4.1112431094895226e-04  1.2804899933544890e-03  1.0288115808593339e-03  1.5703248716625966e-03  1.9694012156420818e-03  5.1747229223072437e-04  8.9559548205808616e-04  7.8033406360526584e-04  3.9382929644774976e-04  1.4203533893966953e-04  -1.1941308829471129e-20  -1.7252393989153382e-19  4.5369491319748418e-03  2.5932139396475508e-03  1.1179278691611456e-02  8.5716267016137469e-03  5.3909623210543307e-03  5.3938841868676800e-03  4.8515098237188879e-02  3.4848880324002116e-02  4.5720191772491599e-02  2.2700490259645123e-03  2.2085728323463057e-02  8.6812544923542789e-02  5.4184896516212548e-02  3.1397306500019928e-02  3.1647918521936942e-02  2.1370792176192442e-02  1.7171212918785414e-02  4.0747281871190031e-03  2.0986180750077132e-02  2.5389174607496019e-02  1.6142848298296167e-02  5.9512628327036812e-02  2.6159730846646592e-02  4.5880173970127634e-02  8.3022166509402334e-02  8.5550612509689802e-02  9.0605003343634440e-03  3.1240923227958770e-02  5.6781021547779059e-02  2.1833092016372298e-02  2.2062009663238256e-02  2.8086921883742635e-03  3.1620614348609058e-03  4.6061914203768739e-03  3.1826923264328556e-03  2.2166481958670763e-03  1.7131489607180559e-03  1.2205851273164846e-03  7.7402237662083735e-04  1.6292844460687826e-04  7.2649949578450744e-04  1.6888854838691758e-03  1.3515290409785836e-03  2.2690077712931569e-03  1.6235929033221808e-03  3.3550612370459719e-04  8.5179364551292718e-04  4.8682483711252168e-04  1.8475781849921106e-04  -2.8359993558318349e-20  2.4074124304840448e-35  6.0037334730981577e-03  4.9173806029223837e-03  9.9383337042620074e-04  2.7180298536121123e-03  2.1531035190692233e-03  3.1308176928156052e-02  1.1276591181819834e-02  1.2898562201140350e-02  1.8534991666778765e-02  4.4876798863826006e-02  4.4187398456781560e-02  2.5313779068799044e-02  2.0727920394611150e-02  7.2072230604239548e-02  3.2729528337711047e-02  1.9485241316276772e-02  1.4078000300354149e-01  9.4430559272536824e-02  3.8628848339883406e-02  6.6357377546930663e-02  1.5594185458199175e-01  7.0658787841697398e-04  1.5325658113200205e-01  3.8202881064346751e-02  2.2203496968662660e-02  5.9426990353600481e-02  1.7379473274027016e-01  1.1159844867773092e-02  8.9888625564962729e-02  6.5208498573036608e-04  6.1632907112717912e-02  2.2573907540232887e-02  3.4928131438216547e-03  8.2590889410966064e-03  5.4862120791322076e-03  3.7072259531000019e-03  2.8315107374859015e-03  1.9530052601314592e-03  1.5750151960812651e-03  6.7008113757934071e-04  2.5050574198113093e-04  2.0922788385807269e-03  1.5844623656880391e-03  2.2550394854680684e-03  2.4984035998990065e-03  7.4068582068519920e-04  7.0254518307146083e-04  5.6397267242812906e-04  2.2114793353428662e-04  -1.2276176382901892e-20  -6.3427152937409637e-20  7.6319935852269243e-03  6.8161614878826764e-03  3.2857104100937613e-03  1.2255138534673932e-02  3.2501115796933580e-03  4.7271383128473041e-03  9.8404394425531533e-03  5.1698690027342072e-02  1.9575883754197786e-02  6.8958544327109378e-02  2.9116259057034015e-02  8.5899523865335045e-02  1.4677260252333860e-01  4.5064969714655567e-02  4.8583969698730474e-02  1.5504632195605165e-02  2.2854111131672631e-03  3.6547272094625376e-02  1.1611553346681781e-01  9.1839753267095384e-02  7.0864790056706706e-02  2.6772832256525870e-02  3.1311905138709706e-01  2.8661083592475163e-02  1.8792248841968600e-02  1.5969314304221893e-02  2.4784834945577222e-01  5.2466806549091347e-02  8.3265554153203483e-02  1.5197474925177978e-01  8.0649245819607446e-02  4.1648690551413653e-02  5.1997165881421201e-03  1.1629088825076985e-02  8.8134218049727691e-03  6.1582215967043432e-03  4.2600195051342429e-03  3.1443000677734158e-03  2.3411708637934982e-03  1.6416230814178790e-03  5.3328620073703681e-04  1.6317958005537879e-03  2.3872675002809918e-03  2.0404389656510742e-03  2.9434563008658133e-03  2.0207108920514169e-03  1.3175518323846967e-04  5.9145047489557001e-04  2.5746957918363104e-04  -1.4292432747510825e-20  9.3889084788877748e-34  1.1426020093363582e-03  3.4504477087542056e-03  9.1900025279544224e-03  1.2633910350537599e-02  2.7509113616595382e-03  1.6658677832417020e-04  2.5054338465675428e-02  2.3223950580024372e-03  2.4006312009917794e-02  1.9354464309986146e-02  3.1336605166193084e-02  2.5775029244087411e-03  1.1737188170232948e-02  1.5838701571843142e-02  1.7974315594520970e-01  1.0707182238128356e-02  6.1464700610877609e-02  1.4989498393888287e-01  1.1789256340034540e-01  3.3478351479045593e-01  3.3024652510580971e-01  9.1283211126426497e-02  7.6343121589846158e-02  2.0086662482315309e-01  1.0634275048437497e-02  5.0447687990064848e-02  5.0932867714344320e-02  1.6671315776917134e-01  4.2326457374298097e-02  1.0654838105105376e-01  4.8602424202180021e-02  9.3951214518993451e-02  5.1856200577250072e-02  2.3810743441649743e-02  1.9313905254010368e-02  1.1016569258468572e-02  6.8501988431969472e-03  4.7371721409814284e-03  3.1781476513349114e-03  2.4991954181162877e-03  1.3021185033395286e-03  9.1750932960275888e-04  2.8858592214800615e-03  2.1125931855788659e-03  2.9430055755997079e-03  3.0164201140045381e-03  9.6559538451423629e-04  4.5631826584575003e-04  2.9603804066960190e-04  6.6287691717504109e-19  2.4074124304840448e-34  6.8992517308343040e-03  2.8176060749644609e-04  1.0458227265566686e-03  1.6766301041348214e-04  1.2107242510596510e-03  2.2555749312415583e-02  1.2473291167173809e-02  9.3017077014220118e-03  5.6476109203240858e-02  1.0150985046527318e-03  9.9444890005066733e-02  4.6908944719803974e-02  9.1215896867915855e-02  8.8758215840627722e-02  1.6627421316150712e-01  5.0829893838916197e-04  1.1217666899873127e-02  2.0928995896527175e-01  2.1507270362031504e-02  7.6471702294522881e-02  6.1035055205068099e-02  8.5487918714051078e-02  7.7054631930786224e-02  4.7512835341370428e-02  6.8203129845099339e-02  1.2112495240465117e-02  1.8783434557492287e-02  1.5861385955883992e-02  2.8913366150038890e-02  7.6502299341697768e-03  1.2085120066384937e-01  1.1580483144489583e-01  1.3889118776711493e-01  4.6035760686929557e-02  3.3540300070088971e-02  1.8537332786240982e-02  1.0959987999066043e-02  6.8195778516005967e-03  4.5678539656161974e-03  3.2633983315808329e-03  2.2265008391960206e-03  9.6816308196257450e-04  2.3431465582735705e-03  2.8737124309544449e-03  2.6220516341040174e-03  3.5215816418937441e-03  2.3484897788991852e-03  6.6522015527283639e-05  3.0334982351407286e-04  -1.6839297929064956e-20  -4.8694417498589577e-19  3.3721686500985028e-03  4.5070437569568293e-03  4.8613264435669054e-03  4.4412307482463720e-03  1.8525556445833226e-03  8.7617609312269553e-03  2.5229902098914641e-03  5.6931207626122514e-03  2.5858104532452630e-02  3.662468