<?xml version="1.0"?>
<VTKFile type="UnstructuredGrid"  version="0.1"  >
<UnstructuredGrid>
<Piece  NumberOfPoints="40401" NumberOfCells="80000">
<Points>
<DataArray  type="Float64"  NumberOfComponents="3"  format="ascii">0 0 0  0.005 0 0  0.01 0 0  0.015 0 0  0.02 0 0  0.025 0 0  0.03 0 0  0.035 0 0  0.04 0 0  0.045 0 0  0.05 0 0  0.055 0 0  0.06 0 0  0.065 0 0  0.07000000000000001 0 0  0.075 0 0  0.08 0 0  0.08500000000000001 0 0  0.09 0 0  0.095 0 0  0.1 0 0  0.105 0 0  0.11 0 0  0.115 0 0  0.12 0 0  0.125 0 0  0.13 0 0  0.135 0 0  0.14 0 0  0.145 0 0  0.15 0 0  0.155 0 0  0.16 0 0  0.165 0 0  0.17 0 0  0.175 0 0  0.18 0 0  0.185 0 0  0.19 0 0  0.195 0 0  0.2 0 0  0.205 0 0  0.21 0 0  0.215 0 0  0.22 0 0  0.225 0 0  0.23 0 0  0.235 0 0  0.24 0 0  0.245 0 0  0.25 0 0  0.255 0 0  0.26 0 0  0.265 0 0  0.27 0 0  0.275 0 0  0.28 0 0  0.285 0 0  0.29 0 0  0.295 0 0  0.3 0 0  0.305 0 0  0.31 0 0  0.315 0 0  0.32 0 0  0.325 0 0  0.33 0 0  0.335 0 0  0.34 0 0  0.345 0 0  0.35 0 0  0.355 0 0  0.36 0 0  0.365 0 0  0.37 0 0  0.375 0 0  0.38 0 0  0.385 0 0  0.39 0 0  0.395 0 0  0.4 0 0  0.405 0 0  0.41 0 0  0.415 0 0  0.42 0 0  0.425 0 0  0.43 0 0  0.435 0 0  0.44 0 0  0.445 0 0  0.45 0 0  0.455 0 0  0.46 0 0  0.465 0 0  0.47 0 0  0.475 0 0  0.48 0 0  0.485 0 0  0.49 0 0  0.495 0 0  0.5 0 0  0.505 0 0  0.51 0 0  0.515 0 0  0.52 0 0  0.525 0 0  0.53 0 0  0.535 0 0  0.54 0 0  0.545 0 0  0.55 0 0  0.555 0 0  0.5600000000000001 0 0  0.5649999999999999 0 0  0.57 0 0  0.575 0 0  0.58 0 0  0.585 0 0  0.59 0 0  0.595 0 0  0.6 0 0  0.605 0 0  0.61 0 0  0.615 0 0  0.62 0 0  0.625 0 0  0.63 0 0  0.635 0 0  0.64 0 0  0.645 0 0  0.65 0 0  0.655 0 0  0.66 0 0  0.665 0 0  0.67 0 0  0.675 0 0  0.68 0 0  0.6850000000000001 0 0  0.6899999999999999 0 0  0.695 0 0  0.7 0 0  0.705 0 0  0.71 0 0  0.715 0 0  0.72 0 0  0.725 0 0  0.73 0 0  0.735 0 0  0.74 0 0  0.745 0 0  0.75 0 0  0.755 0 0  0.76 0 0  0.765 0 0  0.77 0 0  0.775 0 0  0.78 0 0  0.785 0 0  0.79 0 0  0.795 0 0  0.8 0 0  0.805 0 0  0.8100000000000001 0 0  0.8149999999999999 0 0  0.82 0 0  0.825 0 0  0.83 0 0  0.835 0 0  0.84 0 0  0.845 0 0  0.85 0 0  0.855 0 0  0.86 0 0  0.865 0 0  0.87 0 0  0.875 0 0  0.88 0 0  0.885 0 0  0.89 0 0  0.895 0 0  0.9 0 0  0.905 0 0  0.91 0 0  0.915 0 0  0.92 0 0  0.925 0 0  0.93 0 0  0.9350000000000001 0 0  0.9399999999999999 0 0  0.945 0 0  0.95 0 0  0.955 0 0  0.96 0 0  0.965 0 0  0.97 0 0  0.975 0 0  0.98 0 0  0.985 0 0  0.99 0 0  0.995 0 0  1 0 0  0 0.005 0  0.005 0.005 0  0.01 0.005 0  0.015 0.005 0  0.02 0.005 0  0.025 0.005 0  0.03 0.005 0  0.035 0.005 0  0.04 0.005 0  0.045 0.005 0  0.05 0.005 0  0.055 0.005 0  0.06 0.005 0  0.065 0.005 0  0.07000000000000001 0.005 0  0.075 0.005 0  0.08 0.005 0  0.08500000000000001 0.005 0  0.09 0.005 0  0.095 0.005 0  0.1 0.005 0  0.105 0.005 0  0.11 0.005 0  0.115 0.005 0  0.12 0.005 0  0.125 0.005 0  0.13 0.005 0  0.135 0.005 0  0.14 0.005 0  0.145 0.005 0  0.15 0.005 0  0.155 0.005 0  0.16 0.005 0  0.165 0.005 0  0.17 0.005 0  0.175 0.005 0  0.18 0.005 0  0.185 0.005 0  0.19 0.005 0  0.195 0.005 0  0.2 0.005 0  0.205 0.005 0  0.21 0.005 0  0.215 0.005 0  0.22 0.005 0  0.225 0.005 0  0.23 0.005 0  0.235 0.005 0  0.24 0.005 0  0.245 0.005 0  0.25 0.005 0  0.255 0.005 0  0.26 0.005 0  0.265 0.005 0  0.27 0.005 0  0.275 0.005 0  0.28 0.005 0  0.285 0.005 0  0.29 0.005 0  0.295 0.005 0  0.3 0.005 0  0.305 0.005 0  0.31 0.005 0  0.315 0.005 0  0.32 0.005 0  0.325 0.005 0  0.33 0.005 0  0.335 0.005 0  0.34 0.005 0  0.345 0.005 0  0.35 0.005 0  0.355 0.005 0  0.36 0.005 0  0.365 0.005 0  0.37 0.005 0  0.375 0.005 0  0.38 0.005 0  0.385 0.005 0  0.39 0.005 0  0.395 0.005 0  0.4 0.005 0  0.405 0.005 0  0.41 0.005 0  0.415 0.005 0  0.42 0.005 0  0.425 0.005 0  0.43 0.005 0  0.435 0.005 0  0.44 0.005 0  0.445 0.005 0  0.45 0.005 0  0.455 0.005 0  0.46 0.005 0  0.465 0.005 0  0.47 0.005 0  0.475 0.005 0  0.48 0.005 0  0.485 0.005 0  0.49 0.005 0  0.495 0.005 0  0.5 0.005 0  0.505 0.005 0  0.51 0.005 0  0.515 0.005 0  0.52 0.005 0  0.525 0.005 0  0.53 0.005 0  0.535 0.005 0  0.54 0.005 0  0.545 0.005 0  0.55 0.005 0  0.555 0.005 0  0.5600000000000001 0.005 0  0.5649999999999999 0.005 0  0.57 0.005 0  0.575 0.005 0  0.58 0.005 0  0.585 0.005 0  0.59 0.005 0  0.595 0.005 0  0.6 0.005 0  0.605 0.005 0  0.61 0.005 0  0.615 0.005 0  0.62 0.005 0  0.625 0.005 0  0.63 0.005 0  0.635 0.005 0  0.64 0.005 0  0.645 0.005 0  0.65 0.005 0  0.655 0.005 0  0.66 0.005 0  0.665 0.005 0  0.67 0.005 0  0.675 0.005 0  0.68 0.005 0  0.6850000000000001 0.005 0  0.6899999999999999 0.005 0  0.695 0.005 0  0.7 0.005 0  0.705 0.005 0  0.71 0.005 0  0.715 0.005 0  0.72 0.005 0  0.725 0.005 0  0.73 0.005 0  0.735 0.005 0  0.74 0.005 0  0.745 0.005 0  0.75 0.005 0  0.755 0.005 0  0.76 0.005 0  0.765 0.005 0  0.77 0.005 0  0.775 0.005 0  0.78 0.005 0  0.785 0.005 0  0.79 0.005 0  0.795 0.005 0  0.8 0.005 0  0.805 0.005 0  0.8100000000000001 0.005 0  0.8149999999999999 0.005 0  0.82 0.005 0  0.825 0.005 0  0.83 0.005 0  0.835 0.005 0  0.84 0.005 0  0.845 0.005 0  0.85 0.005 0  0.855 0.005 0  0.86 0.005 0  0.865 0.005 0  0.87 0.005 0  0.875 0.005 0  0.88 0.005 0  0.885 0.005 0  0.89 0.005 0  0.895 0.005 0  0.9 0.005 0  0.905 0.005 0  0.91 0.005 0  0.915 0.005 0  0.92 0.005 0  0.925 0.005 0  0.93 0.005 0  0.9350000000000001 0.005 0  0.9399999999999999 0.005 0  0.945 0.005 0  0.95 0.005 0  0.955 0.005 0  0.96 0.005 0  0.965 0.005 0  0.97 0.005 0  0.975 0.005 0  0.98 0.005 0  0.985 0.005 0  0.99 0.005 0  0.995 0.005 0  1 0.005 0  0 0.01 0  0.005 0.01 0  0.01 0.01 0  0.015 0.01 0  0.02 0.01 0  0.025 0.01 0  0.03 0.01 0  0.035 0.01 0  0.04 0.01 0  0.045 0.01 0  0.05 0.01 0  0.055 0.01 0  0.06 0.01 0  0.065 0.01 0  0.07000000000000001 0.01 0  0.075 0.01 0  0.08 0.01 0  0.08500000000000001 0.01 0  0.09 0.01 0  0.095 0.01 0  0.1 0.01 0  0.105 0.01 0  0.11 0.01 0  0.115 0.01 0  0.12 0.01 0  0.125 0.01 0  0.13 0.01 0  0.135 0.01 0  0.14 0.01 0  0.145 0.01 0  0.15 0.01 0  0.155 0.01 0  0.16 0.01 0  0.165 0.01 0  0.17 0.01 0  0.175 0.01 0  0.18 0.01 0  0.185 0.01 0  0.19 0.01 0  0.195 0.01 0  0.2 0.01 0  0.205 0.01 0  0.21 0.01 0  0.215 0.01 0  0.22 0.01 0  0.225 0.01 0  0.23 0.01 0  0.235 0.01 0  0.24 0.01 0  0.245 0.01 0  0.25 0.01 0  0.255 0.01 0  0.26 0.01 0  0.265 0.01 0  0.27 0.01 0  0.275 0.01 0  0.28 0.01 0  0.285 0.01 0  0.29 0.01 0  0.295 0.01 0  0.3 0.01 0  0.305 0.01 0  0.31 0.01 0  0.315 0.01 0  0.32 0.01 0  0.325 0.01 0  0.33 0.01 0  0.335 0.01 0  0.34 0.01 0  0.345 0.01 0  0.35 0.01 0  0.355 0.01 0  0.36 0.01 0  0.365 0.01 0  0.37 0.01 0  0.375 0.01 0  0.38 0.01 0  0.385 0.01 0  0.39 0.01 0  0.395 0.01 0  0.4 0.01 0  0.405 0.01 0  0.41 0.01 0  0.415 0.01 0  0.42 0.01 0  0.425 0.01 0  0.43 0.01 0  0.435 0.01 0  0.44 0.01 0  0.445 0.01 0  0.45 0.01 0  0.455 0.01 0  0.46 0.01 0  0.465 0.01 0  0.47 0.01 0  0.475 0.01 0  0.48 0.01 0  0.485 0.01 0  0.49 0.01 0  0.495 0.01 0  0.5 0.01 0  0.505 0.01 0  0.51 0.01 0  0.515 0.01 0  0.52 0.01 0  0.525 0.01 0  0.53 0.01 0  0.535 0.01 0  0.54 0.01 0  0.545 0.01 0  0.55 0.01 0  0.555 0.01 0  0.5600000000000001 0.01 0  0.5649999999999999 0.01 0  0.57 0.01 0  0.575 0.01 0  0.58 0.01 0  0.585 0.01 0  0.59 0.01 0  0.595 0.01 0  0.6 0.01 0  0.605 0.01 0  0.61 0.01 0  0.615 0.01 0  0.62 0.01 0  0.625 0.01 0  0.63 0.01 0  0.635 0.01 0  0.64 0.01 0  0.645 0.01 0  0.65 0.01 0  0.655 0.01 0  0.66 0.01 0  0.665 0.01 0  0.67 0.01 0  0.675 0.01 0  0.68 0.01 0  0.6850000000000001 0.01 0  0.6899999999999999 0.01 0  0.695 0.01 0  0.7 0.01 0  0.705 0.01 0  0.71 0.01 0  0.715 0.01 0  0.72 0.01 0  0.725 0.01 0  0.73 0.01 0  0.735 0.01 0  0.74 0.01 0  0.745 0.01 0  0.75 0.01 0  0.755 0.01 0  0.76 0.01 0  0.765 0.01 0  0.77 0.01 0  0.775 0.01 0  0.78 0.01 0  0.785 0.01 0  0.79 0.01 0  0.795 0.01 0  0.8 0.01 0  0.805 0.01 0  0.8100000000000001 0.01 0  0.8149999999999999 0.01 0  0.82 0.01 0  0.825 0.01 0  0.83 0.01 0  0.835 0.01 0  0.84 0.01 0  0.845 0.01 0  0.85 0.01 0  0.855 0.01 0  0.86 0.01 0  0.865 0.01 0  0.87 0.01 0  0.875 0.01 0  0.88 0.01 0  0.885 0.01 0  0.89 0.01 0  0.895 0.01 0  0.9 0.01 0  0.905 0.01 0  0.91 0.01 0  0.915 0.01 0  0.92 0.01 0  0.925 0.01 0  0.93 0.01 0  0.9350000000000001 0.01 0  0.9399999999999999 0.01 0  0.945 0.01 0  0.95 0.01 0  0.955 0.01 0  0.96 0.01 0  0.965 0.01 0  0.97 0.01 0  0.975 0.01 0  0.98 0.01 0  0.985 0.01 0  0.99 0.01 0  0.995 0.01 0  1 0.01 0  0 0.015 0  0.005 0.015 0  0.01 0.015 0  0.015 0.015 0  0.02 0.015 0  0.025 0.015 0  0.03 0.015 0  0.035 0.015 0  0.04 0.015 0  0.045 0.015 0  0.05 0.015 0  0.055 0.015 0  0.06 0.015 0  0.065 0.015 0  0.07000000000000001 0.015 0  0.075 0.015 0  0.08 0.015 0  0.08500000000000001 0.015 0  0.09 0.015 0  0.095 0.015 0  0.1 0.015 0  0.105 0.015 0  0.11 0.015 0  0.115 0.015 0  0.12 0.015 0  0.125 0.015 0  0.13 0.015 0  0.135 0.015 0  0.14 0.015 0  0.145 0.015 0  0.15 0.015 0  0.155 0.015 0  0.16 0.015 0  0.165 0.015 0  0.17 0.015 0  0.175 0.015 0  0.18 0.015 0  0.185 0.015 0  0.19 0.015 0  0.195 0.015 0  0.2 0.015 0  0.205 0.015 0  0.21 0.015 0  0.215 0.015 0  0.22 0.015 0  0.225 0.015 0  0.23 0.015 0  0.235 0.015 0  0.24 0.015 0  0.245 0.015 0  0.25 0.015 0  0.255 0.015 0  0.26 0.015 0  0.265 0.015 0  0.27 0.015 0  0.275 0.015 0  0.28 0.015 0  0.285 0.015 0  0.29 0.015 0  0.295 0.015 0  0.3 0.015 0  0.305 0.015 0  0.31 0.015 0  0.315 0.015 0  0.32 0.015 0  0.325 0.015 0  0.33 0.015 0  0.335 0.015 0  0.34 0.015 0  0.345 0.015 0  0.35 0.015 0  0.355 0.015 0  0.36 0.015 0  0.365 0.015 0  0.37 0.015 0  0.375 0.015 0  0.38 0.015 0  0.385 0.015 0  0.39 0.015 0  0.395 0.015 0  0.4 0.015 0  0.405 0.015 0  0.41 0.015 0  0.415 0.015 0  0.42 0.015 0  0.425 0.015 0  0.43 0.015 0  0.435 0.015 0  0.44 0.015 0  0.445 0.015 0  0.45 0.015 0  0.455 0.015 0  0.46 0.015 0  0.465 0.015 0  0.47 0.015 0  0.475 0.015 0  0.48 0.015 0  0.485 0.015 0  0.49 0.015 0  0.495 0.015 0  0.5 0.015 0  0.505 0.015 0  0.51 0.015 0  0.515 0.015 0  0.52 0.015 0  0.525 0.015 0  0.53 0.015 0  0.535 0.015 0  0.54 0.015 0  0.545 0.015 0  0.55 0.015 0  0.555 0.015 0  0.5600000000000001 0.015 0  0.
[...]
<PointData  Scalars="u"> 
<DataArray  type="Float64"  Name="u"  format="ascii">0.0000000000000000e+00  0.0000000000000000e+00  0.0000000000000000e+00  0.0000000000000000e+00  0.0000000000000000e+00  0.0000000000000000e+00  0.0000000000000000e+00  0.0000000000000000e+00  0.0000000000000000e+00  0.0000000000000000e+00  0.0000000000000000e+00  0.0000000000000000e+00  0.0000000000000000e+00  0.0000000000000000e+00  0.0000000000000000e+00  0.0000000000000000e+00  0.0000000000000000e+00  0.0000000000000000e+00  0.0000000000000000e+00  0.0000000000000000e+00  0.0000000000000000e+00  0.0000000000000000e+00  0.0000000000000000e+00  0.0000000000000000e+00  0.0000000000000000e+00  0.0000000000000000e+00  0.0000000000000000e+00  0.0000000000000000e+00  0.0000000000000000e+00  0.0000000000000000e+00  0.0000000000000000e+00  0.0000000000000000e+00  0.0000000000000000e+00  0.0000000000000000e+00  0.0000000000000000e+00  0.0000000000000000e+00  0.0000000000000000e+00  0.0000000000000000e+00  0.0000000000000000e+00  0.0000000000000000e+00  0.0000000000000000e+00  0.0000000000000000e+00  0.0000000000000000e+00  0.0000000000000000e+00  0.0000000000000000e+00  0.0000000000000000e+00  0.0000000000000000e+00  0.0000000000000000e+00  0.0000000000000000e+00  0.0000000000000000e+00  0.0000000000000000e+00  0.0000000000000000e+00  0.0000000000000000e+00  0.0000000000000000e+00  0.0000000000000000e+00  0.0000000000000000e+00  0.0000000000000000e+00  0.0000000000000000e+00  0.0000000000000000e+00  0.0000000000000000e+00  0.0000000000000000e+00  0.0000000000000000e+00  0.0000000000000000e+00  0.0000000000000000e+00  0.0000000000000000e+00  0.0000000000000000e+00  0.0000000000000000e+00  0.0000000000000000e+00  0.0000000000000000e+00  0.0000000000000000e+00  0.0000000000000000e+00  0.0000000000000000e+00  0.0000000000000000e+00  0.0000000000000000e+00  0.0000000000000000e+00  0.0000000000000000e+00  0.0000000000000000e+00  0.0000000000000000e+00  0.0000000000000000e+00  0.0000000000000000e+00  0.0000000000000000e+00  0.0000000000000000e+00  0.0000000000000000e+00  0.0000000000000000e+00  0.0000000000000000e+00  0.0000000000000000e+00  0.0000000000000000e+00  0.0000000000000000e+00  0.0000000000000000e+00  0.0000000000000000e+00  0.0000000000000000e+00  0.0000000000000000e+00  0.0000000000000000e+00  0.0000000000000000e+00  0.0000000000000000e+00  0.0000000000000000e+00  0.0000000000000000e+00  0.0000000000000000e+00  0.0000000000000000e+00  0.0000000000000000e+00  0.0000000000000000e+00  0.0000000000000000e+00  0.0000000000000000e+00  0.0000000000000000e+00  0.0000000000000000e+00  0.0000000000000000e+00  0.0000000000000000e+00  0.0000000000000000e+00  0.0000000000000000e+00  0.0000000000000000e+00  0.0000000000000000e+00  0.0000000000000000e+00  0.0000000000000000e+00  0.0000000000000000e+00  0.0000000000000000e+00  0.0000000000000000e+00  0.0000000000000000e+00  0.0000000000000000e+00  0.0000000000000000e+00  0.0000000000000000e+00  0.0000000000000000e+00  0.0000000000000000e+00  0.0000000000000000e+00  0.0000000000000000e+00  0.0000000000000000e+00  0.0000000000000000e+00  0.0000000000000000e+00  0.0000000000000000e+00  0.0000000000000000e+00  0.0000000000000000e+00  0.0000000000000000e+00  0.0000000000000000e+00  0.0000000000000000e+00  0.0000000000000000e+00  0.0000000000000000e+00  0.0000000000000000e+00  0.0000000000000000e+00  0.0000000000000000e+00  0.0000000000000000e+00  0.0000000000000000e+00  0.0000000000000000e+00  0.0000000000000000e+00  0.0000000000000000e+00  0.0000000000000000e+00  0.0000000000000000e+00  0.0000000000000000e+00  0.0000000000000000e+00  0.0000000000000000e+00  0.0000000000000000e+00  0.0000000000000000e+00  0.0000000000000000e+00  0.0000000000000000e+00  0.0000000000000000e+00  0.0000000000000000e+00  0.0000000000000000e+00  0.0000000000000000e+00  0.0000000000000000e+00  0.0000000000000000e+00  0.0000000000000000e+00  0.0000000000000000e+00  0.0000000000000000e+00  0.0000000000000000e+00  0.0000000000000000e+00  0.0000000000000000e+00  0.0000000000000000e+00  0.0000000000000000e+00  0.0000000000000000e+00  0.0000000000000000e+00  0.0000000000000000e+00  0.0000000000000000e+00  0.0000000000000000e+00  0.0000000000000000e+00  0.0000000000000000e+00  0.0000000000000000e+00  0.0000000000000000e+00  0.0000000000000000e+00  0.0000000000000000e+00  0.0000000000000000e+00  0.0000000000000000e+00  0.0000000000000000e+00  0.0000000000000000e+00  0.0000000000000000e+00  0.0000000000000000e+00  0.0000000000000000e+00  0.0000000000000000e+00  0.0000000000000000e+00  0.0000000000000000e+00  0.0000000000000000e+00  0.0000000000000000e+00  0.0000000000000000e+00  0.0000000000000000e+00  0.0000000000000000e+00  0.0000000000000000e+00  0.0000000000000000e+00  0.0000000000000000e+00  0.0000000000000000e+00  0.0000000000000000e+00  0.0000000000000000e+00  0.0000000000000000e+00  0.0000000000000000e+00  0.0000000000000000e+00  0.0000000000000000e+00  -1.1567426767621677e-03  -1.0739352018321267e-04  1.7773372994357472e-03  -1.6563305116540394e-03  -1.5750119535577218e-03  1.8765383272352574e-03  -5.8569830570435696e-04  -7.5211998249873568e-04  1.0050609546845483e-03  -4.0854512105048047e-04  -2.6952454235709975e-05  -5.5589155320806116e-04  -2.6857003137159758e-04  5.5380271171741810e-03  -6.9896202944754200e-03  2.0312257733687243e-03  -9.7542140040910840e-04  4.1189185697170522e-03  -2.8311645909084508e-03  -4.5920455977340726e-03  6.7093012298356722e-03  -2.9311133241173215e-03  2.0384127601964439e-03  1.5287653610121931e-03  -3.6860005728136598e-03  4.0236672205875672e-03  -8.1217271237700363e-03  1.1482536334621214e-03  4.1518680878467416e-03  -8.2402333804712062e-03  7.0160704294556231e-03  -1.2256332106132591e-03  -3.2998134323563009e-03  9.7475959249771604e-03  -9.3908961509705600e-03  1.2743581367572723e-02  -8.4489578938954889e-03  5.6144453208837848e-03  -3.5909357135129830e-03  -3.5745035028077830e-03  2.8935310367355742e-03  -3.2134593186289051e-03  1.0018913461296509e-02  -1.0270770260267528e-02  3.5883949772310166e-03  1.4705961650018150e-03  -8.8236693280192450e-05  1.5790758470000409e-03  -7.2604969546287050e-03  1.4268075925332760e-02  -1.8075377448788787e-02  1.4881434914465258e-02  -2.3172679040161103e-03  -1.0215654968712911e-02  1.5065309972168223e-02  -8.9610995774577033e-03  -4.0130566864274089e-03  1.3651642752611992e-02  -6.7555897637125170e-03  -1.0041605880967086e-02  1.4496472870139925e-02  3.5025713661460713e-03  -1.1642459019953703e-02  -2.5871405219177854e-03  4.3040843988085761e-03  1.3546437305515158e-02  -6.3579463069537417e-03  -8.3873209330069375e-03  -1.1608629968735862e-03  -1.0130289551237989e-03  1.1206746391317335e-03  5.1380241770957718e-03  6.4881588558133273e-03  3.2099349659325460e-03  1.8594952705097585e-03  6.1229007831052683e-04  -3.4347319870978285e-04  -4.2072824973687418e-04  -2.6510276265654183e-03  -2.6090195079720682e-03  -6.5187318181723118e-03  -4.4589314967726015e-03  -3.1393181551059184e-03  -6.4840759331259506e-04  3.9600970187784025e-03  9.6841966562771289e-03  -5.5120602377489326e-03  -8.0307660329864833e-03  4.8390602231982464e-03  7.5572141147375602e-03  -1.2704199923792410e-02  1.0059925577897894e-02  -5.4523826885567381e-03  3.2085272810989177e-03  -1.7347631965339801e-03  9.1110835097996839e-04  4.4858657981102596e-04  -1.7041320943775157e-03  2.3911014641086708e-03  4.8632408041551236e-05  -2.2598462720791429e-03  3.1936060107128480e-03  -2.3154539771545837e-03  1.0399412597921248e-03  -3.0051648576557395e-04  3.6273568729896334e-04  9.3604234269143086e-05  -9.5116388655322156e-04  7.8655476765530636e-04  2.1281053034293002e-04  -8.5006460029877397e-06  -2.7709851707233666e-05  7.9342366392810148e-06  1.4094413051409866e-04  1.2644904706224806e-04  -3.4315521838871677e-04  1.0885937434608222e-04  -2.2980183636663414e-06  -5.7906114276374324e-05  4.0571970825505521e-04  -1.5285436932018489e-06  -1.1270579406877520e-04  -1.0695026663779635e-05  -6.4994203788108169e-05  -3.5598652161781311e-05  5.1367351092815941e-06  2.5611331159464152e-06  -1.1228310078542810e-06  1.7211411541886280e-06  4.9275437773134654e-06  7.3984824895879458e-06  9.6129725313411397e-06  1.1300749169197404e-05  1.0732188446178428e-05  9.7212145316228628e-06  6.9858685179498326e-06  5.4411742322286788e-06  5.5935112141273634e-06  1.1663359399704954e-06  -1.3972116172816415e-06  7.2864936601373340e-07  7.3876826757666346e-06  9.3932411794518130e-06  6.6966418371571953e-06  1.6246270075379727e-05  2.2057074983895140e-05  -8.2205117047675561e-07  -3.1897131339446185e-05  -3.9383706165335007e-05  -1.5931990824112400e-05  3.0496624028090388e-05  5.6158199245663452e-05  4.1999297283506435e-05  2.0552502093777575e-05  1.0495514039247603e-05  6.8396666899619708e-06  5.0976883287463380e-06  4.6036141432136247e-06  4.3763080296172491e-06  4.5777669406142356e-06  4.3207605401468846e-06  4.8466451684919634e-06  8.8675902358556861e-06  1.4161904011233756e-05  1.6815528633846317e-05  1.6156811912003082e-05  1.0900938183951031e-05  4.6562988126867050e-06  1.3985043871498807e-06  5.5173557243700168e-07  5.4966975772848538e-07  9.5030174359443957e-07  1.0200267246372910e-06  1.7745455388982881e-06  3.5521840892019719e-06  3.4107188888765903e-06  1.4797671776902317e-06  3.1072815739068470e-07  4.6461353049124483e-07  1.0218223516967138e-06  1.3861357172898882e-06  1.5426382465449330e-06  1.6092297523251892e-06  1.5134554299177492e-06  1.4012926211195128e-06  1.3845869901487321e-06  1.3627444132109126e-06  1.2940742076463278e-06  1.2023693073519296e-06  1.1121139840774500e-06  1.0212316824771741e-06  9.1912015431443225e-07  8.1497642911393946e-07  7.1176605167633262e-07  6.1230101006492254e-07  5.1960956068262875e-07  4.2925524226946179e-07  2.8187280903504138e-07  4.8221574179907141e-08  0.0000000000000000e+00  0.0000000000000000e+00  2.3241327014352697e-03  -3.8950113628299890e-03  -9.6602863815627746e-04  -2.5879196138464886e-03  4.6435628597107093e-03  6.4444037599069347e-04  -7.5656517059230540e-03  1.5188993115157309e-03  6.8929982658715427e-03  -5.1833892830929875e-03  -4.6625851957517997e-03  1.0613414784514977e-02  -6.0205184510002691e-03  -3.2080654101867474e-03  4.9648245371691872e-03  7.9349604218717368e-03  -1.7963282297578577e-02  7.4825126350386217e-03  2.3558927561555588e-03  6.7902271509966434e-03  -1.8721068784806526e-02  9.1393730305376047e-03  1.0658456805045182e-02  -1.0379956485191058e-02  6.1942639502180546e-03  -2.6841141027317489e-03  -6.5652625577893396e-03  4.5960759577917971e-03  -1.4526845479566744e-02  1.2584714090519864e-02  -1.1564699271874473e-03  -1.2507647843462831e-02  1.9151505142602377e-02  -1.5474896075341768e-02  1.6268514628738445e-02  -1.7107521017538329e-03  -5.0128361358725525e-03  1.4591250610982614e-02  -1.5557993681242820e-02  1.2518117385377508e-02  -2.4393272874949141e-02  2.7010824621755122e-02  -2.3367903571436748e-02  3.0867196843436057e-02  -3.2266918348089361e-02  2.4013769103907668e-02  -2.0662573306484099e-02  3.0596666116529361e-02  -3.3538259476255321e-02  2.0333781933761477e-02  4.2857992466810470e-03  -2.8342625788180264e-02  4.3080886556921993e-02  -3.9698256649301114e-02  2.2123241737613861e-02  4.0970989548074245e-03  -2.4721406611261869e-02  2.0107956351568767e-02  8.8170705785953658e-03  -1.8197130293913854e-02  -1.0017901790689687e-02  3.5980541505240243e-02  -1.5586869818891690e-02  -1.0873893222765909e-02  -7.3139995097998940e-03  2.2095860371795392e-02  1.4937973935595279e-02  -1.8983075468317494e-02  -1.3513943382756313e-02  1.0850575689186285e-03  -4.9920132677118119e-04  5.8011275224902027e-03  9.4615981452207676e-03  8.6723994531704585e-03  8.8243992367227093e-03  4.2991719875455549e-04  3.6241223671169996e-03  -1.8010671287110474e-03  2.3148829895478168e-03  -5.1294972442003190e-03  -7.0073723018106958e-03  -1.1120997066961512e-02  -6.0371576281580408e-03  -3.0531447507003524e-03  -2.1968010800361764e-03  1.7312489255541040e-02  9.2941769452908451e-03  -2.2144360040250964e-02  -2.8935823903896807e-03  1.9417619224056340e-02  -1.2394712788169008e-02  2.2679338745143027e-03  -1.1280900645593711e-03  5.4007024962420139e-03  -6.6534625872851812e-03  5.7753224579374565e-03  -3.2085827323890702e-03  2.2802470395391467e-03  -3.4744434052170533e-03  7.2920926802937805e-03  -6.2796739124051232e-03  2.4040720368323975e-03  2.0172886572130408e-03  -3.6996507435638395e-03  3.2501661722892875e-03  -2.0308441119826826e-03  2.2459641617444694e-03  -1.9606433481037236e-03  -3.1852584057653328e-05  1.3704962005844580e-03  -9.5166425907537865e-05  5.5895421366255113e-05  -9.8397297638396297e-05  1.3656390175389860e-04  3.6840310516333377e-04  -1.8006637395967095e-04  -4.4450135883777485e-04  4.3060062950371099e-04  -3.4166993477450808e-04  4.1303822697230755e-04  5.2747463665185732e-04  -2.4824610360112668e-04  -6.5984243449583447e-05  -4.3523486701247009e-05  -1.0905126006463858e-04  -1.9224039268432738e-05  6.6517801537442733e-06  -5.5821350557913948e-06  -2.1505420037409599e-06  6.3546855883427927e-06  1.2332410095436423e-05  1.6994966965216835e-05  2.0864825448165307e-05  2.2287632832438198e-05  2.0206184634051811e-05  1.7809176911388528e-05  1.1955463795707119e-05  1.2538200285465309e-05  8.8201838970411380e-06  3.6636734319202710e-07  -6.2245954232299511e-07  7.6793669845782400e-06  1.9129384578121633e-05  1.5030665198256658e-05  1.7437537569912100e-05  3.9153259988475745e-05  2.7559972303869052e-05  -3.0108757004692249e-05  -6.9950993234011238e-05  -5.7612330633594467e-05  9.4646233972008053e-06  8.7217146630528115e-05  9.5626217994389503e-05  5.4288352704830720e-05  2.5405169313476120e-05  1.6010856830950135e-05  1.2353239493109846e-05  1.0734719676903105e-05  1.0130319535447125e-05  9.8988390770829874e-06  9.9629054557920401e-06  9.3264719210584653e-06  1.2736792630547399e-05  2.2183813458530967e-05  2.9767504791052364e-05  3.1758440166276139e-05  2.6761378396884119e-05  1.5272680971339598e-05  6.4234923559249302e-06  3.1118371303528382e-06  2.5383015760998526e-06  2.7857517343747953e-06  3.1864303986372102e-06  3.1225138844338356e-06  5.5781318921666148e-06  7.7072150600484025e-06  5.3456732172479817e-06  1.9127893072142820e-06  9.6597040776628218e-07  1.7298726715776003e-06  2.5541407684033888e-06  2.9025804927450349e-06  3.0408519015956182e-06  2.9868152038185639e-06  2.7127145781502823e-06  2.5692883060352195e-06  2.5399257539838209e-06  2.4425390312580593e-06  2.2772384972692029e-06  2.0903038699371895e-06  1.9099026575139181e-06  1.7215423763662256e-06  1.5242823319119857e-06  1.3294513961242852e-06  1.1283423377416489e-06  9.3092332858320577e-07  7.8133336867367004e-07  6.4792593266426782e-07  4.0520301870603986e-07  0.0000000000000000e+00  0.0000000000000000e+00  -9.0951795443546815e-04  6.1874346724287931e-04  -2.1715058031524835e-04  2.7405441011806738e-03  -8.4932213371945852e-03  2.6463542505101613e-04  8.2202358770158343e-03  -7.5309945584879382e-03  -3.1551432202556844e-03  7.9357797314607605e-03  -3.2736184673903229e-03  -5.0251804161129720e-03  5.9288610281161037e-03  -1.3366319530546435e-03  7.5250118431354615e-03  -1.7700033495535006e-02  1.7314168225217984e-02  -1.2553363602727029e-02  9.8002578031503272e-03  -8.3559912451338664e-03  -1.5690717057833343e-04  6.2456310822420497e-03  -8.9388059963672294e-03  1.4219731637226170e-02  -3.0755479117931272e-03  -5.9727891903226128e-03  9.7214595753115033e-03  -2.4767702230232891e-02  1.1601872501889592e-02  -1.9114458157556355e-03  -1.4716821365116216e-02  2.2692401992026632e-02  -1.6674795736696738e-02  4.5323365674244977e-03  1.3450665511948352e-02  -1.6624887726340423e-02  3.3790539140161731e-02  -3.0551072142480123e-02  2.5705478398854269e-02  -1.9856421148612840e-02  2.7028599130935228e-03  -7.9555507078222214e-03  8.5624382050155223e-03  8.0465072424609086e-03  -8.1073004706345830e-03  -5.3668186070138920e-03  1.5478488062110709e-02  -1.5628421050108747e-02  2.3581564598874630e-02  -3.6015223954633697e-02  4.3915663665527974e-02  -3.9784409841868498e-02  2.0487643077817207e-02  1.4524435223509480e-02  -4.4961919917145807e-02  4.9893665046383311e-02  -2.0658351607301558e-02  -2.2355193737626396e-02  4.2335166892616301e-02  -1.3223875608084303e-02  -2.8430740161113344e-02  2.6265885870189253e-02  2.2196189809321563e-02  -3.4222524652811545e-02  -6.3348590813004663e-03  4.4759862301221292e-03  3.8928051020344114e-02  -8.7708730432147306e-03  -2.4793068387502906e-02  -8.1117486271941770e-03  -2.8352154683629937e-03  1.9674607148771313e-03  1.4113708869439599e-02  1.6903971429161387e-02  8.6633601040188614e-03  9.3537817604089964e-03  2.8012596157834546e-03  3.2212894283556049e-03  8.1886372429363724e-05  -1.8183531743779209e-03  -4.9884017653228701e-03  -1.5868608736204916e-02  -1.2425629187657869e-02  -8.1473630328760694e-03  -1.4786137685270158e-03  6.3581946771957892e-03  2.8953603806866138e-02  -8.6861223059084783e-03  -2.8416545940730037e-02  1.0419560885438698e-02  2.6981263478239013e-02  -3.8772085920306884e-02  2.9161466140933179e-02  -1.7807018581913130e-02  1.3174680152318015e-02  -9.2567715844981500e-03  5.9289469448203132e-03  -1.0915346828984024e-03  -2.6479845238244403e-03  3.6834778949507408e-03  3.4040027426121850e-03  -8.4573656922823041e-03  9.0203202235134890e-03  -4.9589806889234799e-03  1.0510414287336787e-03  7.5765196761453789e-04  -2.2118137800892520e-04  1.3515180137656441e-03  -3.1233255074836056e-03  2.0111702746271375e-03  9.1227329046480912e-04  -1.5869246773093796e-04  -4.0533573772190560e-05  -2.3638203047820358e-05  3.5489043822027865e-04  4.2915859952835753e-04  -8.4224209787216653e-04  1.2444768530882227e-04  2.0653550048469008e-04  -3.0010814029709810e-04  1.0839813818046135e-03  1.3938615687091778e-04  -3.5531372763025597e-04  -4.4208267607990059e-06  -1.3060887183458821e-04  -9.0137114373041400e-05  1.4327496084766911e-05  1.7702754246697346e-06  -9.5842967823539686e-06  2.0928108152482235e-06  1.4138760128915970e-05  2.2350626666988295e-05  2.8978129382104391e-05  3.3801409188157692e-05  3.2638612707088721e-05  2.9478411110662302e-05  2.2896823381628201e-05  1.7452714131528656e-05  1.8937685560726476e-05  7.7275049785909531e-06  -6.7386273586914468e-07  3.9227807163837363e-06  2.1240151416807484e-05  2.9117358310252470e-05  1.9905156792204782e-05  4.1299142155591395e-05  6.1328796894655793e-05  5.0873098030683654e-06  -8.2267713550479584e-05  -1.0652423931308816e-04  -4.7276358378091085e-05  7.6763293986836499e-05  1.5322311584198029e-04  1.1535287327650461e-04  5.1548637525231921e-05  2.3651040161466710e-05  1.6886842357123396e-05  1.4623564250361474e-05  1.4638305164923819e-05  1.4623245230850533e-05  1.5171290051945857e-05  1.4611961953655722e-05  1.5267686997375079e-05  2.5073449153065179e-05  3.9543273879488720e-05  4.6709799011300004e-05  4.4791964923361704e-05  3.1340484146453188e-05  1.4600532380677257e-05  5.9672678899721926e-06  4.1484287317051271e-06  4.4535149770358865e-06  5.4668407810631594e-06  5.5553179947683925e-06  6.7376620574436909e-06  1.1136272785667225e-05  1.1183220586817764e-05  5.8325970313146463e-06  2.0808827325634979e-06  2.1604980303970574e-06  3.5447991850070798e-06  4.3956391768549897e-06  4.6076808272013228e-06  4.6091321018184811e-06  4.2482360723597389e-06  3.8206578484109568e-06  3.6736549303842564e-06  3.5594543172513449e-06  3.3298079723367684e-06  3.0412555672760746e-06  2.7552126385524135e-06  2.4704141623035817e-06  2.1606723732906314e-06  1.8526848821212617e-06  1.5568580413752322e-06  1.2687473900075528e-06  9.9244683161247064e-07  7.5655686167213927e-07  4.5417434209754953e-07  0.0000000000000000e+00  0.0000000000000000e+00  -2.1933305108637005e-04  1.7794451764914763e-03  -7.6384421524035417e-03  -1.7337680222972155e-04  7.7687070965413974e-04  3.2144609045925083e-03  -3.6493712514288380e-03  -6.7365004167411410e-03  3.2268839152708828e-03  7.0026895131670890e-03  -6.7180445627226743e-03  -5.5163585243198842e-03  1.3487891016066879e-02  -1.0402464423125464e-02  -2.4115749557038022e-03  1.53627884278685