<?xml version="1.0"?>
<VTKFile type="UnstructuredGrid"  version="0.1"  >
<UnstructuredGrid>
<Piece  NumberOfPoints="676" NumberOfCells="1250">
<Points>
<DataArray  type="Float64"  NumberOfComponents="3"  format="ascii">0 0 0  0.04 0 0  0.08 0 0  0.12 0 0  0.16 0 0  0.2 0 0  0.24 0 0  0.28 0 0  0.32 0 0  0.36 0 0  0.4 0 0  0.44 0 0  0.48 0 0  0.52 0 0  0.5600000000000001 0 0  0.6 0 0  0.64 0 0  0.68 0 0  0.72 0 0  0.76 0 0  0.8 0 0  0.84 0 0  0.88 0 0  0.92 0 0  0.96 0 0  1 0 0  0 0.04 0  0.04 0.04 0  0.08 0.04 0  0.12 0.04 0  0.16 0.04 0  0.2 0.04 0  0.24 0.04 0  0.28 0.04 0  0.32 0.04 0  0.36 0.04 0  0.4 0.04 0  0.44 0.04 0  0.48 0.04 0  0.52 0.04 0  0.5600000000000001 0.04 0  0.6 0.04 0  0.64 0.04 0  0.68 0.04 0  0.72 0.04 0  0.76 0.04 0  0.8 0.04 0  0.84 0.04 0  0.88 0.04 0  0.92 0.04 0  0.96 0.04 0  1 0.04 0  0 0.08 0  0.04 0.08 0  0.08 0.08 0  0.12 0.08 0  0.16 0.08 0  0.2 0.08 0  0.24 0.08 0  0.28 0.08 0  0.32 0.08 0  0.36 0.08 0  0.4 0.08 0  0.44 0.08 0  0.48 0.08 0  0.52 0.08 0  0.5600000000000001 0.08 0  0.6 0.08 0  0.64 0.08 0  0.68 0.08 0  0.72 0.08 0  0.76 0.08 0  0.8 0.08 0  0.84 0.08 0  0.88 0.08 0  0.92 0.08 0  0.96 0.08 0  1 0.08 0  0 0.12 0  0.04 0.12 0  0.08 0.12 0  0.12 0.12 0  0.16 0.12 0  0.2 0.12 0  0.24 0.12 0  0.28 0.12 0  0.32 0.12 0  0.36 0.12 0  0.4 0.12 0  0.44 0.12 0  0.48 0.12 0  0.52 0.12 0  0.5600000000000001 0.12 0  0.6 0.12 0  0.64 0.12 0  0.68 0.12 0  0.72 0.12 0  0.76 0.12 0  0.8 0.12 0  0.84 0.12 0  0.88 0.12 0  0.92 0.12 0  0.96 0.12 0  1 0.12 0  0 0.16 0  0.04 0.16 0  0.08 0.16 0  0.12 0.16 0  0.16 0.16 0  0.2 0.16 0  0.24 0.16 0  0.28 0.16 0  0.32 0.16 0  0.36 0.16 0  0.4 0.16 0  0.44 0.16 0  0.48 0.16 0  0.52 0.16 0  0.5600000000000001 0.16 0  0.6 0.16 0  0.64 0.16 0  0.68 0.16 0  0.72 0.16 0  0.76 0.16 0  0.8 0.16 0  0.84 0.16 0  0.88 0.16 0  0.92 0.16 0  0.96 0.16 0  1 0.16 0  0 0.2 0  0.04 0.2 0  0.08 0.2 0  0.12 0.2 0  0.16 0.2 0  0.2 0.2 0  0.24 0.2 0  0.28 0.2 0  0.32 0.2 0  0.36 0.2 0  0.4 0.2 0  0.44 0.2 0  0.48 0.2 0  0.52 0.2 0  0.5600000000000001 0.2 0  0.6 0.2 0  0.64 0.2 0  0.68 0.2 0  0.72 0.2 0  0.76 0.2 0  0.8 0.2 0  0.84 0.2 0  0.88 0.2 0  0.92 0.2 0  0.96 0.2 0  1 0.2 0  0 0.24 0  0.04 0.24 0  0.08 0.24 0  0.12 0.24 0  0.16 0.24 0  0.2 0.24 0  0.24 0.24 0  0.28 0.24 0  0.32 0.24 0  0.36 0.24 0  0.4 0.24 0  0.44 0.24 0  0.48 0.24 0  0.52 0.24 0  0.5600000000000001 0.24 0  0.6 0.24 0  0.64 0.24 0  0.68 0.24 0  0.72 0.24 0  0.76 0.24 0  0.8 0.24 0  0.84 0.24 0  0.88 0.24 0  0.92 0.24 0  0.96 0.24 0  1 0.24 0  0 0.28 0  0.04 0.28 0  0.08 0.28 0  0.12 0.28 0  0.16 0.28 0  0.2 0.28 0  0.24 0.28 0  0.28 0.28 0  0.32 0.28 0  0.36 0.28 0  0.4 0.28 0  0.44 0.28 0  0.48 0.28 0  0.52 0.28 0  0.5600000000000001 0.28 0  0.6 0.28 0  0.64 0.28 0  0.68 0.28 0  0.72 0.28 0  0.76 0.28 0  0.8 0.28 0  0.84 0.28 0  0.88 0.28 0  0.92 0.28 0  0.96 0.28 0  1 0.28 0  0 0.32 0  0.04 0.32 0  0.08 0.32 0  0.12 0.32 0  0.16 0.32 0  0.2 0.32 0  0.24 0.32 0  0.28 0.32 0  0.32 0.32 0  0.36 0.32 0  0.4 0.32 0  0.44 0.32 0  0.48 0.32 0  0.52 0.32 0  0.5600000000000001 0.32 0  0.6 0.32 0  0.64 0.32 0  0.68 0.32 0  0.72 0.32 0  0.76 0.32 0  0.8 0.32 0  0.84 0.32 0  0.88 0.32 0  0.92 0.32 0  0.96 0.32 0  1 0.32 0  0 0.36 0  0.04 0.36 0  0.08 0.36 0  0.12 0.36 0  0.16 0.36 0  0.2 0.36 0  0.24 0.36 0  0.28 0.36 0  0.32 0.36 0  0.36 0.36 0  0.4 0.36 0  0.44 0.36 0  0.48 0.36 0  0.52 0.36 0  0.5600000000000001 0.36 0  0.6 0.36 0  0.64 0.36 0  0.68 0.36 0  0.72 0.36 0  0.76 0.36 0  0.8 0.36 0  0.84 0.36 0  0.88 0.36 0  0.92 0.36 0  0.96 0.36 0  1 0.36 0  0 0.4 0  0.04 0.4 0  0.08 0.4 0  0.12 0.4 0  0.16 0.4 0  0.2 0.4 0  0.24 0.4 0  0.28 0.4 0  0.32 0.4 0  0.36 0.4 0  0.4 0.4 0  0.44 0.4 0  0.48 0.4 0  0.52 0.4 0  0.5600000000000001 0.4 0  0.6 0.4 0  0.64 0.4 0  0.68 0.4 0  0.72 0.4 0  0.76 0.4 0  0.8 0.4 0  0.84 0.4 0  0.88 0.4 0  0.92 0.4 0  0.96 0.4 0  1 0.4 0  0 0.44 0  0.04 0.44 0  0.08 0.44 0  0.12 0.44 0  0.16 0.44 0  0.2 0.44 0  0.24 0.44 0  0.28 0.44 0  0.32 0.44 0  0.36 0.44 0  0.4 0.44 0  0.44 0.44 0  0.48 0.44 0  0.52 0.44 0  0.5600000000000001 0.44 0  0.6 0.44 0  0.64 0.44 0  0.68 0.44 0  0.72 0.44 0  0.76 0.44 0  0.8 0.44 0  0.84 0.44 0  0.88 0.44 0  0.92 0.44 0  0.96 0.44 0  1 0.44 0  0 0.48 0  0.04 0.48 0  0.08 0.48 0  0.12 0.48 0  0.16 0.48 0  0.2 0.48 0  0.24 0.48 0  0.28 0.48 0  0.32 0.48 0  0.36 0.48 0  0.4 0.48 0  0.44 0.48 0  0.48 0.48 0  0.52 0.48 0  0.5600000000000001 0.48 0  0.6 0.48 0  0.64 0.48 0  0.68 0.48 0  0.72 0.48 0  0.76 0.48 0  0.8 0.48 0  0.84 0.48 0  0.88 0.48 0  0.92 0.48 0  0.96 0.48 0  1 0.48 0  0 0.52 0  0.04 0.52 0  0.08 0.52 0  0.12 0.52 0  0.16 0.52 0  0.2 0.52 0  0.24 0.52 0  0.28 0.52 0  0.32 0.52 0  0.36 0.52 0  0.4 0.52 0  0.44 0.52 0  0.48 0.52 0  0.52 0.52 0  0.5600000000000001 0.52 0  0.6 0.52 0  0.64 0.52 0  0.68 0.52 0  0.72 0.52 0  0.76 0.52 0  0.8 0.52 0  0.84 0.52 0  0.88 0.52 0  0.92 0.52 0  0.96 0.52 0  1 0.52 0  0 0.5600000000000001 0  0.04 0.5600000000000001 0  0.08 0.5600000000000001 0  0.12 0.5600000000000001 0  0.16 0.5600000000000001 0  0.2 0.5600000000000001 0  0.24 0.5600000000000001 0  0.28 0.5600000000000001 0  0.32 0.5600000000000001 0  0.36 0.5600000000000001 0  0.4 0.5600000000000001 0  0.44 0.5600000000000001 0  0.48 0.5600000000000001 0  0.52 0.5600000000000001 0  0.5600000000000001 0.5600000000000001 0  0.6 0.5600000000000001 0  0.64 0.5600000000000001 0  0.68 0.5600000000000001 0  0.72 0.5600000000000001 0  0.76 0.5600000000000001 0  0.8 0.5600000000000001 0  0.84 0.5600000000000001 0  0.88 0.5600000000000001 0  0.92 0.5600000000000001 0  0.96 0.5600000000000001 0  1 0.5600000000000001 0  0 0.6 0  0.04 0.6 0  0.08 0.6 0  0.12 0.6 0  0.16 0.6 0  0.2 0.6 0  0.24 0.6 0  0.28 0.6 0  0.32 0.6 0  0.36 0.6 0  0.4 0.6 0  0.44 0.6 0  0.48 0.6 0  0.52 0.6 0  0.5600000000000001 0.6 0  0.6 0.6 0  0.64 0.6 0  0.68 0.6 0  0.72 0.6 0  0.76 0.6 0  0.8 0.6 0  0.84 0.6 0  0.88 0.6 0  0.92 0.6 0  0.96 0.6 0  1 0.6 0  0 0.64 0  0.04 0.64 0  0.08 0.64 0  0.12 0.64 0  0.16 0.64 0  0.2 0.64 0  0.24 0.64 0  0.28 0.64 0  0.32 0.64 0  0.36 0.64 0  0.4 0.64 0  0.44 0.64 0  0.48 0.64 0  0.52 0.64 0  0.5600000000000001 0.64 0  0.6 0.64 0  0.64 0.64 0  0.68 0.64 0  0.72 0.64 0  0.76 0.64 0  0.8 0.64 0  0.84 0.64 0  0.88 0.64 0  0.92 0.64 0  0.96 0.64 0  1 0.64 0  0 0.68 0  0.04 0.68 0  0.08 0.68 0  0.12 0.68 0  0.16 0.68 0  0.2 0.68 0  0.24 0.68 0  0.28 0.68 0  0.32 0.68 0  0.36 0.68 0  0.4 0.68 0  0.44 0.68 0  0.48 0.68 0  0.52 0.68 0  0.5600000000000001 0.68 0  0.6 0.68 0  0.64 0.68 0  0.68 0.68 0  0.72 0.68 0  0.76 0.68 0  0.8 0.68 0  0.84 0.68 0  0.88 0.68 0  0.92 0.68 0  0.96 0.68 0  1 0.68 0  0 0.72 0  0.04 0.72 0  0.08 0.72 0  0.12 0.72 0  0.16 0.72 0  0.2 0.72 0  0.24 0.72 0  0.28 0.72 0  0.32 0.72 0  0.36 0.72 0  0.4 0.72 0  0.44 0.72 0  0.48 0.72 0  0.52 0.72 0  0.5600000000000001 0.72 0  0.6 0.72 0  0.64 0.72 0  0.68 0.72 0  0.72 0.72 0  0.76 0.72 0  0.8 0.72 0  0.84 0.72 0  0.88 0.72 0  0.92 0.72 0  0.96 0.72 0  1 0.72 0  0 0.76 0  0.04 0.76 0  0.08 0.76 0  0.12 0.76 0  0.16 0.76 0  0.2 0.76 0  0.24 0.76 0  0.28 0.76 0  0.32 0.76 0  0.36 0.76 0  0.4 0.76 0  0.44 0.76 0  0.48 0.76 0  0.52 0.76 0  0.5600000000000001 0.76 0  0.6 0.76 0  0.64 0.76 0  0.68 0.76 0  0.72 0.76 0  0.76 0.76 0  0.8 0.76 0  0.84 0.76 0  0.88 0.76 0  0.92 0.76 0  0.96 0.76 0  1 0.76 0  0 0.8 0  0.04 0.8 0  0.08 0.8 0  0.12 0.8 0  0.16 0.8 0  0.2 0.8 0  0.24 0.8 0  0.28 0.8 0  0.32 0.8 0  0.36 0.8 0  0.4 0.8 0  0.44 0.8 0  0.48 0.8 0  0.52 0.8 0  0.5600000000000001 0.8 0  0.6 0.8 0  0.64 0.8 0  0.68 0.8 0  0.72 0.8 0  0.76 0.8 0  0.8 0.8 0  0.84 0.8 0  0.88 0.8 0  0.92 0.8 0  0.96 0.8 0  1 0.8 0  0 0.84 0  0.04 0.84 0  0.08 0.84 0  0.12 0.84 0  0.16 0.84 0  0.2 0.84 0  0.24 0.84 0  0.28 0.84 0  0.32 0.84 0  0.36 0.84 0  0.4 0.84 0  0.44 0.84 0  0.48 0.84 0  0.52 0.84 0  0.5600000000000001 0.84 0  0.6 0.84 0  0.64 0.84 0  0.68 0.84 0  0.72 0.84 0  0.76 0.84 0  0.8 0.84 0  0.84 0.84 0  0.88 0.84 0  0.92 0.84 0  0.96 0.84 0  1 0.84 0  0 0.88 0  0.04 0.88 0  0.08 0.88 0  0.12 0.88 0  0.16 0.88 0  0.2 0.88 0  0.24 0.88 0  0.28 0.88 0  0.32 0.88 0  0.36 0.88 0  0.4 0.88 0  0.44 0.88 0  0.48 0.88 0  0.52 0.88 0  0.5600000000000001 0.88 0  0.6 0.88 0  0.64 0.88 0  0.68 0.88 0  0.72 0.88 0  0.76 0.88 0  0.8 0.88 0  0.84 0.88 0  0.88 0.88 0  0.92 0.88 0  0.96 0.88 0  1 0.88 0  0 0.92 0  0.04 0.92 0  0.08 0.92 0  0.12 0.92 0  0.16 0.92 0  0.2 0.92 0  0.24 0.92 0  0.28 0.92 0  0.32 0.92 0  0.36 0.92 0  0.4 0.92 0  0.44 0.92 0  0.48 0.92 0  0.52 0.92 0  0.5600000000000001 0.92 0  0.6 0.92 0  0.64 0.92 0  0.68 0.92 0  0.72 0.92 0  0.76 0.92 0  0.8 0.92 0  0.84 0.92 0  0.88 0.92 0  0.92 0.92 0  0.96 0.92 0  1 0.92 0  0 0.96 0  0.04 0.96 0  0.08 0.96 0  0.12 0.96 0  0.16 0.96 0  0.2 0.96 0  0.24 0.96 0  0.28 0.96 0  0.32 0.96 0  0.36 0.96 0  0.4 0.96 0  0.44 0.96 0  0.48 0.96 0  0.52 0.96 0  0.5600000000000001 0.96 0  0.6 0.96 0  0.64 0.96 0  0.68 0.96 0  0.72 0.96 0  0.76 0.96 0  0.8 0.96 0  0.84 0.96 0  0.88 0.96 0  0.92 0.96 0  0.96 0.96 0  1 0.96 0  0 1 0  0.04 1 0  0.08 1 0  0.12 1 0  0.16 1 0  0.2 1 0  0.24 1 0  0.28 1 0  0.32 1 0  0.36 1 0  0.4 1 0  0.44 1 0  0.48 1 0  0.52 1 0  0.5600000000000001 1 0  0.6 1 0  0.64 1 0  0.68 1 0  0.72 1 0  0.76 1 0  0.8 1 0  0.84 1 0  0.88 1 0  0.92 1 0  0.96 1 0  1 1 0  </DataArray>
</Points>
<Cells>
[...]
<PointData  Scalars="Indicator Function"> 
<DataArray  type="Float64"  Name="Indicator Function"  format="ascii">-2.8077598114513036e-20  -8.7334714886316229e-19  1.6872415655088341e-17  1.6097812814123933e-17  -5.0670006592089564e-19  -1.2718925266552490e-19  -7.1288121440296597e-20  -7.9062995724304748e-19  -9.1874246604110907e-18  -5.4959250972047557e-19  5.0434501747543839e-17  8.4091998728253575e-18  9.5651758351577793e-35  -3.8260703340631117e-34  2.6029791148547448e-17  -5.9782348969736121e-36  -1.1956469793947224e-35  4.9738914342820458e-33  0.0000000000000000e+00  -2.2418380863651046e-35  6.1616686213997540e-19  -3.5120583341138385e-21  -8.8433571555379561e-21  9.5235936589195357e-19  -1.0933767218059527e-21  0.0000000000000000e+00  -6.0323488834381596e-21  5.0580104162391813e-04  3.4200621176749342e-03  1.5159047220178226e-02  3.2092953672556673e-04  4.5824757672799227e-03  2.5684252572355302e-03  1.3013193994068667e-02  8.2798641667554667e-03  1.5901098004824706e-02  1.9500294855186015e-03  1.5288851670523376e-02  8.0822883350254258e-03  2.0988867756548822e-03  1.6055251956954202e-03  1.4724159493671412e-03  9.0004822494636988e-04  7.0691849554028400e-04  3.9559116369638369e-04  1.4943839086725387e-04  8.7810843302716450e-05  1.4653579249318985e-04  1.8868098155589395e-04  6.4967269183592412e-05  3.9393047975206849e-05  1.0933767218059658e-21  -2.6586744761626589e-19  1.0866913673448135e-04  9.6591129218749074e-05  4.4260336542161936e-03  2.4265386907593015e-02  4.9592710523451936e-03  2.6744808739655332e-02  2.5263510380842090e-02  4.8128345337080311e-02  1.7647127776127718e-03  2.3235451590035854e-02  1.0880717686928526e-02  3.1621078452708985e-02  3.7110697212095812e-04  4.6045617790940940e-03  4.4333571487118872e-03  3.0163297603978049e-03  1.9247201577662306e-03  1.1940918069091736e-03  5.4660502365255781e-04  4.9388353973578783e-04  3.0635380579042580e-04  3.4434426594967153e-04  4.0848370744235943e-04  5.5033720850202195e-06  -4.4579884878661350e-20  -9.6276366878354276e-20  4.7894421520582398e-03  6.5498969197844347e-03  7.3189528876916781e-03  4.0454038756066242e-02  3.8421457561216813e-03  9.0117431604897665e-03  8.7988513889774103e-05  2.7808706229484444e-02  2.6666718449354400e-02  4.3815126198808903e-02  1.0194983095865154e-02  4.7183459196526681e-02  2.8464286069941665e-02  9.8176094914483886e-03  1.0127533688689421e-02  8.2687954106295102e-03  4.6181733359192921e-03  2.9356593862995971e-03  1.5644584414765180e-03  7.0979749667809055e-04  5.5994425546345165e-04  5.5594297424608249e-04  5.7666994730355388e-04  3.6104629030021682e-04  -5.0105238055849833e-20  -4.6783788104175223e-19  3.9350457130545077e-03  3.6882758980016860e-03  2.2724626048959392e-03  1.2537563773912404e-04  5.7975657879792038e-02  5.7311111683438559e-03  6.6236726280018268e-02  4.7743790869251415e-02  1.2280551782173488e-01  2.0537500044260294e-02  7.2523176003561590e-02  4.9176544514747053e-02  1.0028921487608559e-01  2.7826195252117113e-02  2.3142947173405242e-02  1.9651451812105810e-02  1.2844934733960874e-02  6.8568430530452423e-03  3.5840059961558478e-03  1.6421292536935993e-03  8.4189181512429217e-04  4.6154612358114924e-04  5.3147761214077810e-04  5.7088375457692981e-04  1.4260686496104686e-19  -1.1956469793947225e-34  9.7070455711680530e-03  8.3252432551421795e-03  5.2371278824504689e-03  6.5326490478766945e-03  7.9779110729376213e-02  2.6247933123865416e-02  2.0716105979701544e-02  1.9272054061423263e-02  9.4585902360132132e-02  1.0790967726478086e-01  1.8506885959354399e-01  1.0202694852119891e-01  1.6350021068396101e-01  1.1512307261722822e-01  6.3503125487582093e-02  4.4702496533680865e-02  2.9531074553464206e-02  1.5071631977990040e-02  7.5185392755213855e-03  3.3739058683401875e-03  1.3901018978889860e-03  4.7584846456770078e-04  3.6719244922727020e-04  3.7349992686948238e-04  -2.0733410925315551e-20  -7.9211612384900359e-35  1.4411623702666212e-02  9.2803286061446978e-03  7.9629843271914521e-03  6.0556023546125496e-03  3.0947761092964241e-02  1.7481578568451536e-01  2.2315846560860737e-02  1.9728877460203526e-01  1.6046384924792295e-02  3.6670734278038969e-01  1.2287366514867513e-01  2.1379477551298692e-01  2.2405524079126066e-01  2.7821237562413914e-01  1.2145543753447344e-01  6.5718152347722825e-02  4.7032261334076737e-02  3.1012863317425279e-02  1.6056755332807548e-02  7.3527051971924943e-03  2.7921492947234768e-03  1.0930403404028090e-03  1.3819947211825567e-05  1.3937560877983518e-04  -7.7369004969260326e-21  5.4177753753823360e-34  9.8712578846883049e-03  3.5116864610253823e-03  2.1250368687637203e-02  3.7485155995018830e-02  3.0044125747665122e-02  1.3849552865116857e-01  9.1712578595258196e-04  1.7156979322853538e-01  1.2737577635442043e-01  7.1068034984786560e-02  3.4693477870613380e-02  4.0186477314432645e-01  6.5841546267054029e-03  3.8541576006025263e-01  4.9669449256596854e-01  5.5900449320710217e-03  4.9929134574530160e-02  5.5975632494793606e-02  3.2804518470805871e-02  1.5417557397493025e-02  6.3582534414326720e-03  2.3289169222095239e-03  8.2513584660365475e-04  2.6726173818738968e-05  1.7947812103923810e-20  -1.4347763752736669e-34  1.8601283826921451e-02  1.7315098962979541e-02  5.5045233165614089e-03  1.5021794057138105e-02  5.6234936768263313e-02  9.2248819738891957e-02  1.4306964265598748e-01  2.0326793383223066e-01  3.0531502953585288e-01  1.1239054029683328e-01  1.9199893378281077e-01  3.4268409947347256e-02  1.2375174605079430e-01  1.3317616687094701e-02  8.3987025894994141e-02  7.4884882197336466e-02  2.2383068076363928e-02  7.6269293752632694e-02  5.2845010096741758e-02  2.8593429165813575e-02  1.2336179762951486e-02  4.4957238627432658e-03  1.8862831447710110e-03  6.0802550901081732e-04  5.9782348969736126e-35  -1.1952741071025083e-19  2.8646013801550104e-03  1.3582330522270838e-02  3.9365791104388433e-02  8.5728224118837099e-02  7.5092062543558241e-02  4.4130477950924625e-02  2.2217949737815154e-01  4.4332276353198630e-01  8.5772349413008764e-02  4.3002887808197159e-02  9.8291637569005667e-03  1.1195618827584006e-01  1.0124048739145140e-01  5.8533772185099774e-02  5.4028421794959036e-02  1.1494994278357722e-01  7.2965951214491009e-02  3.0036295604022753e-02  6.3984609084816971e-02  4.1627772553752267e-02  2.0800682838217652e-02  8.0223860637561231e-03  2.5811626015220068e-03  1.0287793062355676e-03  2.3912939587894448e-35  2.9891174484868062e-34  2.9934632563451105e-03  4.9253295547723964e-03  3.5601108049642251e-03  2.9401736544939234e-02  1.2265093506352234e-01  3.8126001840508550e-01  1.1823630579471815e-01  1.5265746925900298e-01  4.5195918462571420e-02  5.6023791369643999e-02  2.1211263258901328e-02  8.4911308812540831e-02  7.7206597240699754e-02  9.6167215774096065e-02  5.3263030906357221e-02  1.3768064008102099e-01  1.1779015060106901e-01  6.9970520778098302e-02  5.5803473966581106e-02  4.3173256781944384e-02  2.7129024704892608e-02  1.2766785503827580e-02  4.3271897477972741e-03  1.2875933475586601e-03  3.8559615085479800e-34  -3.5869409381841673e-35  3.5713839654329524e-03  5.0802381648651579e-04  2.4536760012539044e-02  5.0202598120761152e-02  1.0414047673850010e-01  7.2940956252036226e-02  4.8858467172293712e-01  6.1692763333060958e-02  1.7453658901488950e-02  2.6044555342725650e-02  2.3729955955555711e-02  1.8839343712713071e-02  1.0604084196078815e-01  9.7744291378531398e-02  3.1678571925228723e-02  8.3141770283435668e-02  2.5953295922439373e-01  2.7670849131513958e-01  4.0724754821546728e-02  1.9287845320381820e-02  2.4070106995250990e-02  1.6102282988659653e-02  6.8605773317500654e-03  2.0691085264564276e-03  -6.9347524804893908e-34  -2.7696256138438821e-19  1.1557401017063261e-02  9.2350329888696205e-03  8.0163976290134904e-03  3.5588929932253183e-02  1.2877955060342275e-01  1.7818734900177061e-01  3.0679610494472712e-02  1.5731934453206273e-01  6.2435810744348029e-02  1.3561150361698523e-02  4.1668598959461955e-02  1.4485242775007989e-02  8.6017385623089776e-02  7.8910493744050930e-02  1.2167304964178052e-01  5.7440021314383097e-02  1.7255352827823825e-01  1.9976194418717497e-01  4.8116891356308433e-01  3.3192684956638817e-02  7.4335642094459286e-03  1.4554301371668660e-02  9.1816870215176323e-03  3.0565435323901048e-03  4.7825879175788897e-35  -9.5651758351577793e-35  4.9893139529852363e-03  1.5358668770181274e-02  3.1532478912869991e-02  6.5846675904761107e-02  9.6005297418863378e-02  1.3939010402606891e-01  2.5734409172668321e-01  8.1247359583486167e-02  9.7809986111897423e-02  3.6293514841150766e-02  8.3850787385209170e-03  1.6923530836170025e-02  2.1324499148427576e-02  1.1772251116996121e-01  1.0691818962282494e-01  4.1140455432323820e-03  2.2936319443549791e-01  4.9547530667141260e-01  3.1612740267733516e-02  6.5851802125508105e-02  3.5871808319652233e-02  4.6031488091737337e-03  9.2386452994489554e-03  4.3876775354636530e-03  0.0000000000000000e+00  -1.4570058395696767e-20  1.1813550832485643e-03  5.2697671512969505e-03  1.2612830151484292e-02  4.6325311792473012e-02  1.3509187419101534e-01  2.1024650696939098e-01  1.3004358635841703e-01  1.1270098280696117e-01  1.3579363155564564e-01  6.6646934326638138e-02  6.4269365966028252e-02  1.6409072273459221e-02  6.1762137209810785e-03  1.1912393620756914e-01  2.8160323161636094e-02  1.0993016568249628e-01  5.8297931584847376e-02  2.5132687794161157e-01  7.7683900574357323e-01  7.8929895282638329e-02  1.8455251763176590e-02  2.7735252662858804e-02  4.6974768385168401e-03  5.1730497337385984e-03  3.9456350320025840e-33  -3.2539419993260293e-20  8.1121167776307644e-03  7.4474865029469086e-03  1.7626813983410389e-02  2.9994215518431438e-02  5.8794751344340208e-02  8.3979669488095821e-02  2.8150942976186305e-01  1.3381806092178000e-01  9.8189967152640570e-02  1.2595405354121586e-01  7.5639557038942887e-02  8.6643942578013083e-02  2.4464825426696937e-02  4.5784444352352177e-03  3.1457664363895677e-01  2.3554658156270758e-01  1.4492747060508854e-01  1.2773587312562942e-01  5.0200801064707460e-03  1.1796364289391108e-01  3.0308548708654896e-02  3.6330802318286698e-02  1.7864479760179332e-02  3.7646759239555764e-03  -9.5651758351577793e-35  -1.1956469793947224e-35  5.8617807902599606e-04  7.5150952034643021e-03  1.4839097170662573e-02  3.5710479381353501e-02  7.1850350742004104e-02  1.0131752531164968e-01  1.4739740530502620e-02  1.9142414010514730e-01  5.8849773510573522e-02  1.9682530750814078e-01  6.1411273496466398e-02  1.3910136180492058e-01  9.6914926424708364e-03  7.3675360692663269e-02  2.2883223231031546e-01  1.0407698189790131e-01  5.6183214177526219e-01  3.8356236433853869e-01  1.8787028691044677e-01  6.4604253465176911e-02  4.2147439095180178e-02  9.1981395658120094e-03  2.6924076772980705e-02  8.7765396856997486e-03  -3.8260703340631117e-34  1.1956469793947224e-35  4.3397607169236828e-04  3.0077057558992848e-03  5.2045872741946610e-03  1.8290292865536302e-02  4.5033975588125261e-02  9.0646490933038046e-02  1.3915052348015453e-01  7.2065452868555020e-03  2.2822201907247772e-01  2.3997902350185207e-01  2.7930586573540200e-01  1.6723641889965679e-01  1.5016565078627139e-01  5.3586742095097312e-02  1.8534812206518234e-01  5.1854552520688713e-01  1.4184383368720277e-01  1.0953470008475863e-01  5.8902464427987182e-02  6.5005073378739425e-02  5.9344238173904974e-02  3.2991366009332043e-02  1.9709250212904563e-02  1.2956055027538537e-02  -1.7408620019987158e-32  -1.4328540637882239e-20  1.2765438360488393e-03  2.3292598296711912e-04  6.8325163413618037e-03  8.7969385468339191e-03  2.3682620020478690e-02  4.3563983316761090e-02  6.1682584806810908e-02  7.4779586838382275e-02  2.8218299986165485e-01  9.1188476931778645e-02  3.5295807601518936e-01  1.7613330350665329e-01  5.4971413838509431e-01  2.0880117080556901e-01  8.8560673860385297e-02  7.2550628147980611e-01  2.4392069683282366e-01  1.2639474930398395e-01  4.1670638637273411e-02  3.2019806641747486e-02  4.6370459960159385e-02  4.5711616136928077e-02  2.1468004067360283e-02  8.4479630670321500e-03  -7.6521406681262235e-34  -1.9810324606356141e-20  1.2391346288830748e-03  1.5958473885220076e-03  2.4386351172611337e-03  7.8432831217520281e-03  1.5023759745209168e-02  3.0779352236823314e-02  4.3854645994368661e-02  3.7577499364776709e-02  6.3769462044576869e-02  1.6512282105128319e-02  4.8934663805466870e-02  5.3145043298864558e-01  2.5991825429985720e-02  6.2632003608020148e-01  4.6866581683778052e-01  7.8167197447004150e-02  9.2834278978519036e-02  8.0686038136425192e-02  7.8743019965107117e-02  2.6159093275214918e-02  4.4060380501327330e-02  3.7634555017548685e-02  3.3536739936229611e-02  3.2213031451552069e-03  -1.7881824605243628e-19  -3.9132017958232354e-20  1.2007402781435727e-03  2.0084357096897443e-03  1.0031202190482200e-03  6.3197065534791423e-03  8.1941943697093466e-03  1.9375290675839499e-02  3.2024171572593324e-02  3.8423651926049018e-02  2.3836544077931839e-02  1.6082704203928815e-02  2.4794252355769535e-02  1.4346324395347745e-01  3.0416663519820666e-02  1.3013830692794087e-01  2.0076397086604577e-02  1.1240550255373981e-01  2.8003432716903101e-02  6.2289820152811412e-02  6.7860934521679975e-02  4.4364925904576621e-02  2.7968862344928284e-02  2.5655891696241190e-02  2.2063124562877685e-02  1.5052296698740864e-02  -2.2956422004378670e-33  -2.4887785504107817e-20  7.6441890224397896e-04  1.6138274244290173e-03  2.5397204927564035e-03  1.9424303883138132e-03  7.6865730650990073e-03  1.0621200447730321e-02  2.1213644569723779e-02  2.9071054423248349e-02  2.9063512780478182e-02  1.9436462226163687e-02  3.1887934233334254e-02  3.0138792384520663e-02  7.7758515552721563e-02  2.7067623594641731e-02  7.3540882622782008e-02  2.7859945667720411e-02  2.6739243197082371e-02  3.5234560951787363e-03  5.7523906631798488e-02  4.9378529146453264e-02  1.9049188317680987e-02  2.0285343068154816e-02  9.8042328054428127e-03  5.5583108195363272e-03  1.5304281336252447e-33  -2.9891174484868060e-36  4.4833848608950724e-04  1.1130443445642880e-03  1.6220664801815728e-03  1.8838988073428531e-03  4.5817036245623917e-03  6.9303706287111733e-03  1.3590367436783509e-02  2.1424924244107097e-02  2.6414298078628499e-02  2.1648060767074179e-02  1.9315146782281956e-02  3.1272121934086530e-02  1.9123811213835960e-02  5.8911422037789601e-03  1.1318827765462891e-02  2.1988668563557190e-02  1.9770505511443028e-02  4.5344684773571051e-03  3.7978454426442348e-02  3.5245535563886828e-02  3.0057872365427587e-02  4.0392830741357161e-03  3.7157813888892299e-03  3.8543512510087205e-03  3.0608562672504894e-33  -1.5684910326552098e-21  1.3576291951387304e-05  3.3075241298084843e-04  9.1084486804106628e-04  1.5997736609731777e-03  1.5054066158344266e-03  5.4340847685998821e-03  6.8811369958224440e-03  1.4104921404517468e-02  2.1171183234333139e-02  2.7518399558425777e-02  7.3833208889026768e-03  1.0758121324647426e-02  2.1421392810432233e-02  2.6132052159044281e-02  2.7963257623617229e-02  3.2999245294777950e-03  1.5921262745435007e-03  9.9537004117692257e-03  6.5912700542252803e-03  1.7067024587397440e-02  1.5470182279995930e-02  1.5627508331246234e-02  4.9571490683516370e-03  1.8348331602254203e-03  5.0926850520656411e-20  -1.8681984053042538e-37  9.0934606734464056e-05  1.1507386787896795e-04  2.9451795778015401e-04  4.8808957086543683e-04  9.3382081880899427e-04  1.9131426823303013e-03  3.4436570227720639e-03  6.2590470433900600e-03  1.0724640585091648e-02  1.7383677560457049e-02  2.5900289636611420e-02  7.4271159916080385e-03  4.2378881384294714e-03  1.0149926305664494e-02  5.3111413598882357e-03  2.2725088970288219e-02  8.2688447548758849e-03  2.2581262827135414e-03  5.2786099606855616e-03  7.7383012290858455e-04  3.8097505803665120e-03  2.1323975066070669e-03  4.4198939566349746e-03  1.3001687499674961e-02  -7.2173864105600821e-19  7.4727936212170151e-37  2.5239423532958874e-21  2.8745472971678390e-20  -2.7843634920099107e-20  8.9673523454604184e-35  3.5869409381841673e-35  -1.0620075276581164e-19  -1.7934704690920836e-35  1.7372345349459209e-19  4.7825879175788901e-34  -7.0162322291205774e-19  7.1887744747563141e-19  -4.1228775902224861e-19  0.0000000000000000e+00  1.2778577096292015e-17  -2.9482757123934228e-19  -1.2614958505734543e-18  2.2950654584775612e-19  -1.2535118957898660e-19  -1.5304281336252447e-33  1.6257822278248052e-17  -2.1148364062009445e-19  1.5304281336252447e-33  -1.9130351670315560e-32  -7.2173864105600744e-19  3.4672775786343929e-18  </DataArray> 
</PointData> 
</Piece>
</UnstructuredGrid>
</VTKFile>