<?xml version="1.0"?>
<VTKFile type="UnstructuredGrid"  version="0.1"  >
<UnstructuredGrid>
<Piece  NumberOfPoints="40401" NumberOfCells="80000">
<Points>
<DataArray  type="Float64"  NumberOfComponents="3"  format="ascii">0 0 0  0.005 0 0  0.01 0 0  0.015 0 0  0.02 0 0  0.025 0 0  0.03 0 0  0.035 0 0  0.04 0 0  0.045 0 0  0.05 0 0  0.055 0 0  0.06 0 0  0.065 0 0  0.07000000000000001 0 0  0.075 0 0  0.08 0 0  0.08500000000000001 0 0  0.09 0 0  0.095 0 0  0.1 0 0  0.105 0 0  0.11 0 0  0.115 0 0  0.12 0 0  0.125 0 0  0.13 0 0  0.135 0 0  0.14 0 0  0.145 0 0  0.15 0 0  0.155 0 0  0.16 0 0  0.165 0 0  0.17 0 0  0.175 0 0  0.18 0 0  0.185 0 0  0.19 0 0  0.195 0 0  0.2 0 0  0.205 0 0  0.21 0 0  0.215 0 0  0.22 0 0  0.225 0 0  0.23 0 0  0.235 0 0  0.24 0 0  0.245 0 0  0.25 0 0  0.255 0 0  0.26 0 0  0.265 0 0  0.27 0 0  0.275 0 0  0.28 0 0  0.285 0 0  0.29 0 0  0.295 0 0  0.3 0 0  0.305 0 0  0.31 0 0  0.315 0 0  0.32 0 0  0.325 0 0  0.33 0 0  0.335 0 0  0.34 0 0  0.345 0 0  0.35 0 0  0.355 0 0  0.36 0 0  0.365 0 0  0.37 0 0  0.375 0 0  0.38 0 0  0.385 0 0  0.39 0 0  0.395 0 0  0.4 0 0  0.405 0 0  0.41 0 0  0.415 0 0  0.42 0 0  0.425 0 0  0.43 0 0  0.435 0 0  0.44 0 0  0.445 0 0  0.45 0 0  0.455 0 0  0.46 0 0  0.465 0 0  0.47 0 0  0.475 0 0  0.48 0 0  0.485 0 0  0.49 0 0  0.495 0 0  0.5 0 0  0.505 0 0  0.51 0 0  0.515 0 0  0.52 0 0  0.525 0 0  0.53 0 0  0.535 0 0  0.54 0 0  0.545 0 0  0.55 0 0  0.555 0 0  0.5600000000000001 0 0  0.5649999999999999 0 0  0.57 0 0  0.575 0 0  0.58 0 0  0.585 0 0  0.59 0 0  0.595 0 0  0.6 0 0  0.605 0 0  0.61 0 0  0.615 0 0  0.62 0 0  0.625 0 0  0.63 0 0  0.635 0 0  0.64 0 0  0.645 0 0  0.65 0 0  0.655 0 0  0.66 0 0  0.665 0 0  0.67 0 0  0.675 0 0  0.68 0 0  0.6850000000000001 0 0  0.6899999999999999 0 0  0.695 0 0  0.7 0 0  0.705 0 0  0.71 0 0  0.715 0 0  0.72 0 0  0.725 0 0  0.73 0 0  0.735 0 0  0.74 0 0  0.745 0 0  0.75 0 0  0.755 0 0  0.76 0 0  0.765 0 0  0.77 0 0  0.775 0 0  0.78 0 0  0.785 0 0  0.79 0 0  0.795 0 0  0.8 0 0  0.805 0 0  0.8100000000000001 0 0  0.8149999999999999 0 0  0.82 0 0  0.825 0 0  0.83 0 0  0.835 0 0  0.84 0 0  0.845 0 0  0.85 0 0  0.855 0 0  0.86 0 0  0.865 0 0  0.87 0 0  0.875 0 0  0.88 0 0  0.885 0 0  0.89 0 0  0.895 0 0  0.9 0 0  0.905 0 0  0.91 0 0  0.915 0 0  0.92 0 0  0.925 0 0  0.93 0 0  0.9350000000000001 0 0  0.9399999999999999 0 0  0.945 0 0  0.95 0 0  0.955 0 0  0.96 0 0  0.965 0 0  0.97 0 0  0.975 0 0  0.98 0 0  0.985 0 0  0.99 0 0  0.995 0 0  1 0 0  0 0.005 0  0.005 0.005 0  0.01 0.005 0  0.015 0.005 0  0.02 0.005 0  0.025 0.005 0  0.03 0.005 0  0.035 0.005 0  0.04 0.005 0  0.045 0.005 0  0.05 0.005 0  0.055 0.005 0  0.06 0.005 0  0.065 0.005 0  0.07000000000000001 0.005 0  0.075 0.005 0  0.08 0.005 0  0.08500000000000001 0.005 0  0.09 0.005 0  0.095 0.005 0  0.1 0.005 0  0.105 0.005 0  0.11 0.005 0  0.115 0.005 0  0.12 0.005 0  0.125 0.005 0  0.13 0.005 0  0.135 0.005 0  0.14 0.005 0  0.145 0.005 0  0.15 0.005 0  0.155 0.005 0  0.16 0.005 0  0.165 0.005 0  0.17 0.005 0  0.175 0.005 0  0.18 0.005 0  0.185 0.005 0  0.19 0.005 0  0.195 0.005 0  0.2 0.005 0  0.205 0.005 0  0.21 0.005 0  0.215 0.005 0  0.22 0.005 0  0.225 0.005 0  0.23 0.005 0  0.235 0.005 0  0.24 0.005 0  0.245 0.005 0  0.25 0.005 0  0.255 0.005 0  0.26 0.005 0  0.265 0.005 0  0.27 0.005 0  0.275 0.005 0  0.28 0.005 0  0.285 0.005 0  0.29 0.005 0  0.295 0.005 0  0.3 0.005 0  0.305 0.005 0  0.31 0.005 0  0.315 0.005 0  0.32 0.005 0  0.325 0.005 0  0.33 0.005 0  0.335 0.005 0  0.34 0.005 0  0.345 0.005 0  0.35 0.005 0  0.355 0.005 0  0.36 0.005 0  0.365 0.005 0  0.37 0.005 0  0.375 0.005 0  0.38 0.005 0  0.385 0.005 0  0.39 0.005 0  0.395 0.005 0  0.4 0.005 0  0.405 0.005 0  0.41 0.005 0  0.415 0.005 0  0.42 0.005 0  0.425 0.005 0  0.43 0.005 0  0.435 0.005 0  0.44 0.005 0  0.445 0.005 0  0.45 0.005 0  0.455 0.005 0  0.46 0.005 0  0.465 0.005 0  0.47 0.005 0  0.475 0.005 0  0.48 0.005 0  0.485 0.005 0  0.49 0.005 0  0.495 0.005 0  0.5 0.005 0  0.505 0.005 0  0.51 0.005 0  0.515 0.005 0  0.52 0.005 0  0.525 0.005 0  0.53 0.005 0  0.535 0.005 0  0.54 0.005 0  0.545 0.005 0  0.55 0.005 0  0.555 0.005 0  0.5600000000000001 0.005 0  0.5649999999999999 0.005 0  0.57 0.005 0  0.575 0.005 0  0.58 0.005 0  0.585 0.005 0  0.59 0.005 0  0.595 0.005 0  0.6 0.005 0  0.605 0.005 0  0.61 0.005 0  0.615 0.005 0  0.62 0.005 0  0.625 0.005 0  0.63 0.005 0  0.635 0.005 0  0.64 0.005 0  0.645 0.005 0  0.65 0.005 0  0.655 0.005 0  0.66 0.005 0  0.665 0.005 0  0.67 0.005 0  0.675 0.005 0  0.68 0.005 0  0.6850000000000001 0.005 0  0.6899999999999999 0.005 0  0.695 0.005 0  0.7 0.005 0  0.705 0.005 0  0.71 0.005 0  0.715 0.005 0  0.72 0.005 0  0.725 0.005 0  0.73 0.005 0  0.735 0.005 0  0.74 0.005 0  0.745 0.005 0  0.75 0.005 0  0.755 0.005 0  0.76 0.005 0  0.765 0.005 0  0.77 0.005 0  0.775 0.005 0  0.78 0.005 0  0.785 0.005 0  0.79 0.005 0  0.795 0.005 0  0.8 0.005 0  0.805 0.005 0  0.8100000000000001 0.005 0  0.8149999999999999 0.005 0  0.82 0.005 0  0.825 0.005 0  0.83 0.005 0  0.835 0.005 0  0.84 0.005 0  0.845 0.005 0  0.85 0.005 0  0.855 0.005 0  0.86 0.005 0  0.865 0.005 0  0.87 0.005 0  0.875 0.005 0  0.88 0.005 0  0.885 0.005 0  0.89 0.005 0  0.895 0.005 0  0.9 0.005 0  0.905 0.005 0  0.91 0.005 0  0.915 0.005 0  0.92 0.005 0  0.925 0.005 0  0.93 0.005 0  0.9350000000000001 0.005 0  0.9399999999999999 0.005 0  0.945 0.005 0  0.95 0.005 0  0.955 0.005 0  0.96 0.005 0  0.965 0.005 0  0.97 0.005 0  0.975 0.005 0  0.98 0.005 0  0.985 0.005 0  0.99 0.005 0  0.995 0.005 0  1 0.005 0  0 0.01 0  0.005 0.01 0  0.01 0.01 0  0.015 0.01 0  0.02 0.01 0  0.025 0.01 0  0.03 0.01 0  0.035 0.01 0  0.04 0.01 0  0.045 0.01 0  0.05 0.01 0  0.055 0.01 0  0.06 0.01 0  0.065 0.01 0  0.07000000000000001 0.01 0  0.075 0.01 0  0.08 0.01 0  0.08500000000000001 0.01 0  0.09 0.01 0  0.095 0.01 0  0.1 0.01 0  0.105 0.01 0  0.11 0.01 0  0.115 0.01 0  0.12 0.01 0  0.125 0.01 0  0.13 0.01 0  0.135 0.01 0  0.14 0.01 0  0.145 0.01 0  0.15 0.01 0  0.155 0.01 0  0.16 0.01 0  0.165 0.01 0  0.17 0.01 0  0.175 0.01 0  0.18 0.01 0  0.185 0.01 0  0.19 0.01 0  0.195 0.01 0  0.2 0.01 0  0.205 0.01 0  0.21 0.01 0  0.215 0.01 0  0.22 0.01 0  0.225 0.01 0  0.23 0.01 0  0.235 0.01 0  0.24 0.01 0  0.245 0.01 0  0.25 0.01 0  0.255 0.01 0  0.26 0.01 0  0.265 0.01 0  0.27 0.01 0  0.275 0.01 0  0.28 0.01 0  0.285 0.01 0  0.29 0.01 0  0.295 0.01 0  0.3 0.01 0  0.305 0.01 0  0.31 0.01 0  0.315 0.01 0  0.32 0.01 0  0.325 0.01 0  0.33 0.01 0  0.335 0.01 0  0.34 0.01 0  0.345 0.01 0  0.35 0.01 0  0.355 0.01 0  0.36 0.01 0  0.365 0.01 0  0.37 0.01 0  0.375 0.01 0  0.38 0.01 0  0.385 0.01 0  0.39 0.01 0  0.395 0.01 0  0.4 0.01 0  0.405 0.01 0  0.41 0.01 0  0.415 0.01 0  0.42 0.01 0  0.425 0.01 0  0.43 0.01 0  0.435 0.01 0  0.44 0.01 0  0.445 0.01 0  0.45 0.01 0  0.455 0.01 0  0.46 0.01 0  0.465 0.01 0  0.47 0.01 0  0.475 0.01 0  0.48 0.01 0  0.485 0.01 0  0.49 0.01 0  0.495 0.01 0  0.5 0.01 0  0.505 0.01 0  0.51 0.01 0  0.515 0.01 0  0.52 0.01 0  0.525 0.01 0  0.53 0.01 0  0.535 0.01 0  0.54 0.01 0  0.545 0.01 0  0.55 0.01 0  0.555 0.01 0  0.5600000000000001 0.01 0  0.5649999999999999 0.01 0  0.57 0.01 0  0.575 0.01 0  0.58 0.01 0  0.585 0.01 0  0.59 0.01 0  0.595 0.01 0  0.6 0.01 0  0.605 0.01 0  0.61 0.01 0  0.615 0.01 0  0.62 0.01 0  0.625 0.01 0  0.63 0.01 0  0.635 0.01 0  0.64 0.01 0  0.645 0.01 0  0.65 0.01 0  0.655 0.01 0  0.66 0.01 0  0.665 0.01 0  0.67 0.01 0  0.675 0.01 0  0.68 0.01 0  0.6850000000000001 0.01 0  0.6899999999999999 0.01 0  0.695 0.01 0  0.7 0.01 0  0.705 0.01 0  0.71 0.01 0  0.715 0.01 0  0.72 0.01 0  0.725 0.01 0  0.73 0.01 0  0.735 0.01 0  0.74 0.01 0  0.745 0.01 0  0.75 0.01 0  0.755 0.01 0  0.76 0.01 0  0.765 0.01 0  0.77 0.01 0  0.775 0.01 0  0.78 0.01 0  0.785 0.01 0  0.79 0.01 0  0.795 0.01 0  0.8 0.01 0  0.805 0.01 0  0.8100000000000001 0.01 0  0.8149999999999999 0.01 0  0.82 0.01 0  0.825 0.01 0  0.83 0.01 0  0.835 0.01 0  0.84 0.01 0  0.845 0.01 0  0.85 0.01 0  0.855 0.01 0  0.86 0.01 0  0.865 0.01 0  0.87 0.01 0  0.875 0.01 0  0.88 0.01 0  0.885 0.01 0  0.89 0.01 0  0.895 0.01 0  0.9 0.01 0  0.905 0.01 0  0.91 0.01 0  0.915 0.01 0  0.92 0.01 0  0.925 0.01 0  0.93 0.01 0  0.9350000000000001 0.01 0  0.9399999999999999 0.01 0  0.945 0.01 0  0.95 0.01 0  0.955 0.01 0  0.96 0.01 0  0.965 0.01 0  0.97 0.01 0  0.975 0.01 0  0.98 0.01 0  0.985 0.01 0  0.99 0.01 0  0.995 0.01 0  1 0.01 0  0 0.015 0  0.005 0.015 0  0.01 0.015 0  0.015 0.015 0  0.02 0.015 0  0.025 0.015 0  0.03 0.015 0  0.035 0.015 0  0.04 0.015 0  0.045 0.015 0  0.05 0.015 0  0.055 0.015 0  0.06 0.015 0  0.065 0.015 0  0.07000000000000001 0.015 0  0.075 0.015 0  0.08 0.015 0  0.08500000000000001 0.015 0  0.09 0.015 0  0.095 0.015 0  0.1 0.015 0  0.105 0.015 0  0.11 0.015 0  0.115 0.015 0  0.12 0.015 0  0.125 0.015 0  0.13 0.015 0  0.135 0.015 0  0.14 0.015 0  0.145 0.015 0  0.15 0.015 0  0.155 0.015 0  0.16 0.015 0  0.165 0.015 0  0.17 0.015 0  0.175 0.015 0  0.18 0.015 0  0.185 0.015 0  0.19 0.015 0  0.195 0.015 0  0.2 0.015 0  0.205 0.015 0  0.21 0.015 0  0.215 0.015 0  0.22 0.015 0  0.225 0.015 0  0.23 0.015 0  0.235 0.015 0  0.24 0.015 0  0.245 0.015 0  0.25 0.015 0  0.255 0.015 0  0.26 0.015 0  0.265 0.015 0  0.27 0.015 0  0.275 0.015 0  0.28 0.015 0  0.285 0.015 0  0.29 0.015 0  0.295 0.015 0  0.3 0.015 0  0.305 0.015 0  0.31 0.015 0  0.315 0.015 0  0.32 0.015 0  0.325 0.015 0  0.33 0.015 0  0.335 0.015 0  0.34 0.015 0  0.345 0.015 0  0.35 0.015 0  0.355 0.015 0  0.36 0.015 0  0.365 0.015 0  0.37 0.015 0  0.375 0.015 0  0.38 0.015 0  0.385 0.015 0  0.39 0.015 0  0.395 0.015 0  0.4 0.015 0  0.405 0.015 0  0.41 0.015 0  0.415 0.015 0  0.42 0.015 0  0.425 0.015 0  0.43 0.015 0  0.435 0.015 0  0.44 0.015 0  0.445 0.015 0  0.45 0.015 0  0.455 0.015 0  0.46 0.015 0  0.465 0.015 0  0.47 0.015 0  0.475 0.015 0  0.48 0.015 0  0.485 0.015 0  0.49 0.015 0  0.495 0.015 0  0.5 0.015 0  0.505 0.015 0  0.51 0.015 0  0.515 0.015 0  0.52 0.015 0  0.525 0.015 0  0.53 0.015 0  0.535 0.015 0  0.54 0.015 0  0.545 0.015 0  0.55 0.015 0  0.555 0.015 0  0.5600000000000001 0.015 0  0.
[...]
<PointData  Scalars="Indicator Function"> 
<DataArray  type="Float64"  Name="Indicator Function"  format="ascii">1.2037062152420224e-34  1.6984725830590530e-18  9.3847664045791809e-19  1.7868013871280143e-17  9.7290853452485263e-18  -1.3644591340286020e-19  -8.6730062646152683e-20  9.4570759209521326e-19  5.6166579462775439e-17  -3.7293694429625114e-20  2.5041084078190214e-18  7.6816535472050364e-17  0.0000000000000000e+00  -3.2740809054583010e-33  6.3646001719604079e-17  -2.2577007116110005e-19  -1.3686943632532411e-19  6.7066023799410992e-18  -1.1623546611555762e-19  -2.6963019221421302e-33  -1.4647077423059090e-17  -1.3807090171567601e-19  -3.2586856062027087e-19  9.3550660248652548e-18  -1.5685021747029461e-19  -7.8460343286220455e-20  -4.8604090096044975e-19  -5.4978272736202865e-19  -7.5824606443754520e-18  -1.6851887013388314e-34  -5.8088801029703318e-19  -6.3684350508165485e-19  9.6296497219361793e-35  -2.8736830618264536e-19  4.0734647470484720e-16  -3.0707419853856885e-19  -4.9296701078625667e-19  -7.1855807793049711e-19  -2.9369027689351192e-20  -4.4296388720906425e-33  -1.2592313159885150e-17  0.0000000000000000e+00  -1.4295780877547780e-19  -2.8105937068795493e-19  -2.3063782564496267e-19  -1.7890814676134480e-19  6.0738036622842757e-16  -3.5082741549654610e-19  -5.8082548770254162e-19  -2.9041274385127086e-19  -4.9785236316057948e-19  -5.2454137481749368e-19  -5.3513148451090042e-19  -8.3068753883819220e-19  -4.1534376941909644e-19  -4.8710379975448120e-19  1.9623586601906393e-15  -2.6999733387970654e-19  -4.5367051453355568e-19  -7.1267076969391837e-19  -4.2097487517978831e-19  -9.6952641990806094e-19  -3.3475709080911253e-19  -7.7840265986814804e-19  -4.7982643562176979e-19  -8.6349931106777509e-19  -9.8022983702893052e-19  -2.0263475675015849e-19  5.7211616560143428e-17  -1.1961980617438789e-18  -1.2614556682640634e-18  -5.7868544404842107e-19  -5.6213781937782614e-19  -1.3405815853047041e-18  -2.0852139711317927e-18  -2.5808228625970947e-18  -2.8157877260827853e-18  -2.8635196360574364e-18  -2.5954209023403252e-18  -2.0992538494082749e-18  -1.0476881798481036e-18  6.6441600544062534e-16  -7.7480422010468865e-19  -1.1479044388936519e-18  -7.8796689399546530e-19  -6.6389308779293020e-19  -3.9276860327767964e-19  -6.2032845107684889e-19  -3.4007211740575996e-19  -5.5868068274081107e-19  -2.7934034137040568e-19  -4.1246794692412423e-19  -2.7199505345691649e-19  6.6346092894818589e-16  -1.3824193417375745e-19  -4.1555146175202067e-20  2.4074124304840448e-35  -1.8095673623684908e-20  -5.8184781021283514e-20  -1.6049585423574016e-19  3.0823356392925713e-16  7.8651469798389692e-16  8.8268294868978648e-17  -3.7389936296570386e-17  3.5914467443579638e-16  1.7338461201773617e-16  3.0319490608017719e-16  2.7016886308306279e-16  3.4022427147501464e-17  1.3011275914681984e-16  -7.6599758483283610e-20  1.1784985398283483e-17  -3.7183710151741482e-21  9.2249835870980364e-19  2.7706249808399351e-18  8.7973064424858763e-18  -1.0244617915558664e-17  2.2674176823565326e-18  2.5401660413946681e-18  1.0944305512019329e-17  -7.1732667421778423e-18  5.7671347958737642e-18  2.3734022125099225e-19  2.5647914975625638e-17  -6.3229653241325486e-19  3.6272827403853058e-18  2.6581971886742402e-18  6.9333477997940491e-33  -2.0920626378020841e-19  1.5358025766018847e-19  1.3466406926872570e-18  1.9783553282203093e-19  7.0665134246198820e-19  1.0111666274845309e-18  1.3148039780258624e-19  4.7685542740378974e-20  1.0138675049400663e-18  -1.7834902017480478e-22  1.1572306753787081e-18  4.5631659750175753e-19  9.8901515211345248e-19  1.0373357007417946e-18  9.4325381335414428e-20  1.4067778364899957e-18  5.2489770156056786e-19  3.8128105921700788e-18  3.6099034246209048e-19  3.6440197923612320e-18  9.1844067360490608e-18  7.6343196106377620e-19  1.3348011718324229e-18  1.9761137509031069e-17  1.0664963282766960e-17  9.6837922223121397e-19  -3.9219835352195602e-19  1.1384587566403656e-18  2.0233201388739381e-19  5.7154002990530951e-19  2.4721083248568197e-19  -2.0574148719457284e-19  3.6538745865057369e-19  -5.8618650168172285e-20  -2.1800458429345399e-21  1.9983741072365270e-18  5.5682621237719301e-19  3.3777173608314056e-18  2.6070493963489785e-19  1.5044324319962270e-19  3.2505924841208171e-18  3.5780256459321519e-19  2.0315857162868090e-18  2.7554489879951370e-19  1.1755469063491235e-18  1.0446879120554690e-19  1.1996265841970175e-19  6.2618830927520847e-20  9.8709733345508287e-19  1.6025823043090740e-19  8.7124285430852425e-19  9.0271075502362612e-20  -2.3622734474124690e-33  7.4323138164532959e-20  5.4734739753880524e-20  1.8884610138498344e-20  1.1827521510345348e-20  4.1177218682414515e-21  1.1753093956924943e-19  -5.1238090973938765e-23  6.3323784065105126e-21  7.0497813621897492e-20  3.2746599941210839e-20  1.6277040457260707e-20  4.4903466288859645e-20  8.5393087187808673e-22  1.8571005420621749e-20  7.3772765113652143e-22  -1.1958061538538592e-21  1.8271272908747159e-20  4.8216703576505356e-21  2.2872905321995267e-20  -7.1117408224748394e-37  3.6111186457260672e-35  9.4559840111026758e-04  1.5603505383685661e-04  1.9257320845717919e-03  2.4717094378038781e-03  2.1940292492362585e-03  2.4579910590293917e-03  1.5623899112601227e-03  2.0859733547459892e-03  1.7067901125170234e-03  8.5297484053186375e-05  9.7594256501662272e-04  2.4623880907303727e-04  4.5122508015046090e-04  7.4470790198979502e-03  6.3526757119086010e-03  4.0671120334101604e-03  2.4656205697326031e-03  4.1878240150820863e-03  2.5302954592627083e-03  4.9938434515273784e-03  4.9745284921394123e-03  3.7134523571561149e-03  5.8703261127248897e-03  5.6511246476176015e-03  2.2002690968918516e-04  6.4984731921579227e-03  1.2417633517525572e-02  5.3018762571462172e-03  4.8007553667749440e-03  1.8978035195062932e-02  9.7533050933936089e-04  1.0984687434046563e-02  1.0353534373138474e-02  6.0128669363456420e-03  1.1063513968907136e-02  1.7761008368663456e-02  5.1735629907175770e-03  1.2944391568047386e-02  5.2906536863198280e-04  3.2877854423266012e-03  1.9203317789526003e-03  5.1505978746475591e-03  1.0126231016794079e-02  8.3096034050575730e-03  1.3666855012278629e-03  2.5395799017379731e-03  5.6313891025148001e-04  6.3199448708063941e-03  1.0463221799937810e-02  1.7937021737724046e-02  1.8898594721347781e-02  1.3112023604228876e-02  3.0840600148356011e-03  1.4964336361491989e-02  1.7549763928521100e-02  6.6406762002352276e-03  9.7276791380133867e-03  1.6345202881618424e-02  1.9886287658774657e-03  1.5167218327936285e-02  1.0809080036549543e-02  1.2060895275420400e-02  8.8111659343890359e-03  9.6168727485110590e-03  3.8353482524193312e-03  2.0715128790371483e-02  7.3006865199379883e-03  4.9249643068626251e-03  1.0208017344903949e-02  1.6444779908072187e-02  1.4501975156117645e-02  3.1736826226659719e-03  1.0126574695523364e-02  1.9086483564390366e-02  2.8020633671312387e-02  3.2481654693549931e-02  3.4483894868988410e-02  3.4342636429171257e-02  2.9583628220012301e-02  2.3024981305798591e-02  7.3609817325582449e-03  3.2751958498841425e-03  1.2320034062852182e-02  1.4518790981607462e-02  6.9353541499093275e-03  1.1959634651192354e-02  1.0956728158605679e-03  1.1174843924468053e-02  5.3877268267667677e-04  1.0064296458442442e-02  1.4860723936558072e-02  9.7996545711610331e-03  6.4692003545602263e-03  3.7681871103987749e-03  2.4903452929276424e-03  7.4859096331986652e-04  6.5196535190916393e-04  2.0963276650086907e-03  2.3793681791260362e-03  1.7015521877594699e-03  2.3272515430385636e-03  4.0035548343084022e-03  1.6860005323921989e-03  1.1767302962177697e-03  2.5736432344441398e-05  6.0832925505551686e-04  1.9050787680638748e-04  1.6240602351761898e-03  8.1476045749739043e-05  7.3901262757782366e-05  3.4583924187037180e-06  5.0037863546191743e-05  4.1965285500364393e-05  2.7576428354898210e-04  4.0019743450751648e-04  6.8144176588434864e-04  2.1921338940634886e-04  3.8394739178158595e-04  4.9786636591676522e-04  6.8504139092556270e-04  3.6112987491590634e-04  9.9000482846979692e-05  1.0688853319848640e-05  3.2611347598548860e-04  2.2696749883893973e-04  6.2439943605589095e-05  4.3676953798866609e-05  4.0701397801091542e-05  3.1228708537796150e-05  2.4283525681627959e-05  1.5871619536287402e-05  6.9245243446467907e-06  5.4859241437767371e-06  1.2933084741923185e-05  1.5145518917351407e-05  1.2977567601914718e-05  6.4257006464095050e-06  2.6792539652959975e-06  2.0586258385255675e-05  4.1111198146993442e-05  5.5005151291057643e-05  5.4941677257965978e-05  5.0658658865286509e-05  4.7014182213363485e-05  2.3256874467976738e-05  1.3314062993533076e-06  2.6830581016202546e-05  1.1079141669116327e-04  1.9977254265257646e-04  2.3390474592795688e-04  1.7344174259020524e-04  6.5499063037173291e-05  1.6460058739008349e-05  6.0051406709524963e-05  7.7757122337029797e-05  7.7953959842301578e-05  6.8752098467451432e-05  5.6682629435267813e-05  4.5462230205998394e-05  3.6139629567600378e-05  2.8548363967825776e-05  2.5872729202323221e-05  3.0258716638561567e-05  4.3102191224902566e-05  6.8125536711593086e-05  9.8206836561386395e-05  1.0982518470561899e-04  1.0298810036137646e-04  8.8763181142411499e-05  7.2550864644276060e-05  5.7252623112936195e-05  4.4775943923948930e-05  3.4559967898738858e-05  2.9832234827335449e-05  2.9456418070310339e-05  2.6627858507579948e-05  2.0028319705877988e-05  1.2774464929672700e-05  6.9428350752503890e-06  2.9996162111806646e-06  5.7770393612464966e-07  3.7485443007660923e-07  5.5972513876119001e-07  1.3272853668789750e-06  1.8582904748374918e-06  1.6694052162330911e-06  1.2555974308138869e-06  8.4062018863194250e-07  5.5321232746437521e-07  2.8003326366928311e-07  4.5251090131743066e-08  8.1282486672530200e-08  1.5688467117202571e-07  1.9514619289699246e-07  2.1280479692814713e-07  2.4576309067958045e-07  2.9851168113379118e-07  2.7560229957796645e-07  5.6846153892939775e-08  1.5777977228329866e-24  9.0277966143151681e-35  2.9578028136185942e-03  4.1550568226534947e-03  1.3393155811534049e-03  3.1577969713484999e-03  4.5084066384795422e-03  3.5854853052759927e-04  8.6707814526928682e-03  2.9391748506987309e-04  7.0542645329196582e-03  5.0774001636823369e-03  5.3720293400304035e-03  1.1658142064072001e-02  5.4934908015968672e-03  2.8124617158767707e-03  8.1547450186328536e-03  1.0526003611581543e-02  1.9639617555772117e-02  6.6464871628280570e-03  3.0688146235310063e-03  8.1861926624542582e-03  2.2952136262498497e-02  8.4976748229424557e-03  1.3898848883825365e-02  6.4983129043674473e-03  1.2331869340625570e-02  5.0203951620077973e-04  7.4389867135303822e-03  2.0290371567683371e-03  2.7538722973979784e-02  1.9116288266179430e-03  1.4578315011700494e-02  2.6157052985484441e-02  1.0453562487263725e-02  2.5689923952965456e-02  1.5531427570568282e-02  1.4159872593288824e-03  5.9843335299159125e-04  2.2834933873351941e-02  9.8587734143361101e-03  1.6703308472235723e-02  3.0321582825770552e-02  2.5530052577539191e-02  2.8543469952518070e-02  3.6823993930152066e-02  3.5735906740652412e-02  2.5017540050215330e-02  2.2211209682351862e-02  3.6535676056849098e-02  3.4842017092680970e-02  2.0620964554105638e-02  8.9187199047393653e-03  3.4780335982488128e-02  4.9988233534579617e-02  4.1246985107317335e-02  2.1020813543340885e-02  7.8220155125757421e-03  2.7996447858794044e-02  1.7724481692974563e-02  1.4750798303610039e-02  1.7481243898147741e-02  1.8627407364626900e-02  4.1403452370825294e-02  7.6694886359024760e-03  1.3343415301009574e-02  1.8716755438399877e-02  2.0684078257091690e-02  3.0178760545340459e-02  7.7582400856670919e-03  1.8055318049742069e-02  1.4887852972538921e-02  2.1100445637922773e-02  9.9883873466112601e-03  6.2199254317648559e-03  2.1929483668254961e-02  3.7798864974493813e-02  3.9203024074779894e-02  4.8888649373097032e-02  4.4528070675149217e-02  4.7710668381407945e-02  3.3313772577489617e-02  1.9693190776126475e-02  1.2476122333134308e-03  1.1145715720482879e-02  1.8310827213248407e-02  1.9454205075331701e-02  1.0866763846801280e-02  1.6334601249979989e-02  2.0207820316047388e-02  9.0553643170575224e-03  1.7530555130068209e-02  1.1628533187480857e-02  1.2271179569063159e-04  1.8859688414716407e-03  5.4556758771461215e-03  7.4327128952443701e-03  5.4586044708038609e-03  3.6030152136088092e-03  2.7153494534941001e-03  4.4715397749964516e-03  8.9022469574904593e-03  5.3999406860120681e-03  2.6648466913832447e-03  3.2812200837833982e-03  3.5346806646447686e-03  3.6409105087654549e-03  1.7736364022906612e-03  2.3937563606686398e-03  2.3714090020175195e-03  1.2252751388928530e-03  6.2960454952077423e-04  3.2991876749161064e-04  6.9603902748954804e-05  2.4022655503227669e-04  1.5408748536314195e-04  7.1803350440463056e-04  2.7486754541723696e-04  1.1396646179284906e-03  2.1448691898334486e-04  1.1145199058742966e-03  3.6076883522598806e-04  1.0893445743579769e-03  4.8104711096302276e-05  8.6197947719989754e-05  2.9049840786425082e-04  4.6208474373565501e-04  1.0232445657721518e-04  2.3854748717885710e-05  7.0027079706172339e-05  5.7372333716788801e-05  3.9447587298890134e-05  2.6688616256486985e-05  1.4478924409290146e-05  3.4607792103988489e-07  1.5924353302637775e-05  1.9530702844211102e-05  1.9748304948084032e-05  1.1635898918231777e-05  1.8370360723989855e-06  1.7403398507114256e-05  4.6864576859162885e-05  7.0835051909773255e-05  7.7483209343589166e-05  6.8313375614506032e-05  6.6745663515376430e-05  5.1449866914766618e-05  7.9340635261324209e-06  1.0753114993095341e-05  1.0795058994019113e-04  2.3776706447463622e-04  3.1795522276525516e-04  2.7926360451427612e-04  1.3484007506761229e-04  5.6152553278429796e-06  6.0734173352235119e-05  9.3949851175115462e-05  1.0597090129227712e-04  1.0008753278752428e-04  8.5771844681415365e-05  6.9660005074520957e-05  5.6408638207206063e-05  4.4523339691329333e-05  3.7850039069450547e-05  4.0148487250272982e-05  5.3682805936369520e-05  7.9483506007611840e-05  1.2164337742423115e-04  1.5065055519721023e-04  1.4634130469909332e-04  1.2860736594442839e-04  1.0825448444312174e-04  8.7248703106819364e-05  6.8864421858451244e-05  5.3517483902177432e-05  4.2705717885079810e-05  4.1058294726971194e-05  3.9528738711752946e-05  3.1179386976414977e-05  2.0457263228997028e-05  1.1891092206906466e-05  5.8764225596609842e-06  1.9459625320119530e-06  3.9607804155762357e-07  7.8613325287453706e-07  1.4736226165108477e-06  2.7484918473775800e-06  2.7858707347605536e-06  2.1394879973089167e-06  1.5325600661961124e-06  1.0714716770379385e-06  7.2493697996228727e-07  3.3079663573275655e-07  6.7513668708091650e-08  7.3047810104927813e-08  1.8029784025211612e-07  2.1894149365902312e-07  2.6030474968597730e-07  3.6339049016921855e-07  5.0691332383283362e-07  4.3846050286141720e-07  1.0952751277473576e-22  -1.6723470485630636e-20  9.9720083082005854e-04  1.1162320172630803e-03  9.0060017006718680e-05  2.7596502178280444e-03  1.0181056912865574e-02  4.4016329775860101e-04  9.3302591639066994e-03  9.2464593687319949e-03  5.0948634425201558e-03  8.9346909642955639e-03  2.9087773509615124e-03  6.4468045709377081e-03  7.2895404131644911e-03  9.9891673067720234e-05  9.5876521044162260e-03  1.7804369314031548e-02  2.1430195699672947e-02  1.4610168979067566e-02  9.6067857520427784e-03  9.1345263840219067e-03  4.0431861449370649e-04  4.8775331059433252e-03  1.0739501740533385e-02  1.9962001529898171e-02  2.0152973586787843e-03  1.4150351194245694e-03  1.2953279852721194e-02  3.1607606066493564e-02  3.7969938340674685e-03  1.5374335406248127e-02  3.0491473423043289e-02  1.2144382422884906e-02  3.2069895863608866e-02  4.9866932390415526e-03  8.0598655319058278e-03  1.9785430411402991e-02  4.1465042197332283e-02  2.7774694485131684e-02  3.6933329353120541e-02  1.6358954534761057e-02  4.3583751303978265e-03  1.4117869925805061e-02  6.5284647710807144e-03  7.1913518525777162e-03  6.2204531746879533e-03  7.3567171662792885e-03  1.7445531026751913e-02  1.7334300540721395e-02  3.0713140507849547e-02  4.0636802802659473e-02  4.9364065156566300e-02  4.1616887669112049e-02  1.9738920991123135e-02  2.0939245940282732e-02  5.1532933395301607e-02  5.4535665740846249e-02  1.9317109320663828e-02  2.8760137431843101e-02  4.5962182078929409e-02  9.1349900387497594e-03  3.2912134758621134e-02  2.2871728125208671e-02  3.0868755626935574e-02  3.1250866368030046e-02  1.2503386623947123e-02  4.8596779516929889e-03  4.6672283046089079e-02  5.8270656859443319e-03  1.9513824790352251e-02  1.8783529855632742e-02  2.2970996310656730e-02  1.8402957754288827e-02  3.3938626141877940e-03  2.1671395090382132e-02  3.0083986357831657e-02  4.6263063415688269e-02  4.8228355038559483e-02  5.3289868016153479e-02  4.9696094901252305e-02  4.4063911546942357e-02  3.1696805843368446e-02  4.7732928177089675e-03  8.7658534676003184e-03  1.8926873293394372e-02  1.8815414255069721e-02  8.5333890084403879e-03  2.9521573558512829e-02  2.3949552429005524e-03  3.1745381280821203e-02  4.6005791071043892e-03  2.9310845552432102e-02  4.2848940687806127e-02  3.0375615929982561e-02  2.0380403636150780e-02  1.4203846787724376e-02  1.0911587327677197e-02  5.6071066094878271e-03  8.3483822778470827e-04  3.0829568432866549e-03  3.5142394648358245e-03  5.4384225672544240e-03  8.6544722199179917e-03  1.0286046450921056e-02  4.4934295542021488e-03  1.4429834513524887e-03  9.9458793861859811e-04  7.8097956446032584e-05  1.0517305487672576e-03  4.0279898294133835e-03  8.0387217173914023e-04  3.7830880553489220e-04  2.8245288876661471e-04  1.6947667444733384e-04  1.6628554282547726e-04  5.2655276908999786e-04  7.8656162377754954e-04  1.6492822066441067e-03  3.0042690535677643e-04  2.0681137726590113e-04  1.0936043341324890e-03  1.6780193384110758e-03  4.6182090440307657e-04  3.0221574594031580e-04  2.7248197015688419e-05  5.9548355437009687e-04  2.9213932499651897e-04  6.7691872850841463e-05  3.4215062162110979e-05  9.0455510521348802e-05  6.1828434190469906e-05  3.9947697068494007e-05  2.3254746440442213e-05  9.1225717018548310e-06  1.1218572585705007e-05  2.1162841310135055e-05  2.1052436611404624e-05  1.6652580908752049e-05  4.9947301450405028e-06  7.7993833491477995e-06  3.8161473204900553e-05  7.0392605335889690e-05  8.7077180916091237e-05  7.9176257152163796e-05  6.9718957433624013e-05  7.0326801935361314e-05  3.0351472034590771e-05  8.7066008139884054e-06  6.1047287557666155e-05  2.1672862535062435e-04  3.4119476395566008e-04  3.5234707389952792e-04  2.1140319863675544e-04  3.3087431508956595e-05  5.4351588391440858e-05  8.4682393420256794e-05  1.0421420320946926e-04  1.0916752430065420e-04  9.9536075325826784e-05  8.4198758608497413e-05  6.8977832403621062e-05  5.6409179876874458e-05  4.5294123533355979e-05  4.3404123123299418e-05  5.3633038343039531e-05  7.6124399117312122e-05  1.1555375484310112e-04  1.6186449840744708e-04  1.6957280459196521e-04  1.4855010437167759e-04  1.2648358874049092e-04  1.0545997762700174e-04  8.4708648580675673e-05  6.7436212259326566e-05  5.2204109214558340e-05  4.5994974880463391e-05  4.7100886030946745e-05  4.0638576774821893e-05  2.7226167743074730e-05  1.5856291443808230e-05  8.6894949820993648e-06  4.0328051783306178e-06  7.4389560037424066e-07  7.2223723433731659e-07  9.1257199712527555e-07  2.5878722599502203e-06  3.5907274911354021e-06  2.8938686026177269e-06  2.0891476572236116e-06  1.5127168248530411e-06  1.1658599546086943e-06  7.5131597802616522e-07  3.4904186668987938e-07  1.6106485040941537e-07  3.0788160817078622e-08  7.0907428545809865e-08  1.3182196504809395e-07  2.1887898414921399e-07  3.4298520058609072e-07  3.5738038754442292e-07  -3.0864073548777686e-36  -3.1296361596292583e-34  3.0126326178971173e-04  2.1563412345638826e-03  8.3561825300964288e-03  2.7444251591820227e-04  6.4563410740639115e-04  2.9342974979199850e-03  4.8236361488238309e-03  7.6255972756441642e-03  2.5166954429494226e-03  6.7028009218428634e-03  7.1783326158226090e-03  5.7117767272188164e-03  1.4489140286723943e-02  1.0603498896362331e-02  1.6190772456610380e-03  1.9440851233144835e-02  1.3750609157059577e-03  2.3670466055916661e-02  1.2892343505339165e-02  9.876197788869