<?xml version="1.0"?>
<VTKFile type="UnstructuredGrid"  version="0.1"  >
<UnstructuredGrid>
<Piece  NumberOfPoints="676" NumberOfCells="1250">
<Points>
<DataArray  type="Float64"  NumberOfComponents="3"  format="ascii">0 0 0  0.04 0 0  0.08 0 0  0.12 0 0  0.16 0 0  0.2 0 0  0.24 0 0  0.28 0 0  0.32 0 0  0.36 0 0  0.4 0 0  0.44 0 0  0.48 0 0  0.52 0 0  0.5600000000000001 0 0  0.6 0 0  0.64 0 0  0.68 0 0  0.72 0 0  0.76 0 0  0.8 0 0  0.84 0 0  0.88 0 0  0.92 0 0  0.96 0 0  1 0 0  0 0.04 0  0.04 0.04 0  0.08 0.04 0  0.12 0.04 0  0.16 0.04 0  0.2 0.04 0  0.24 0.04 0  0.28 0.04 0  0.32 0.04 0  0.36 0.04 0  0.4 0.04 0  0.44 0.04 0  0.48 0.04 0  0.52 0.04 0  0.5600000000000001 0.04 0  0.6 0.04 0  0.64 0.04 0  0.68 0.04 0  0.72 0.04 0  0.76 0.04 0  0.8 0.04 0  0.84 0.04 0  0.88 0.04 0  0.92 0.04 0  0.96 0.04 0  1 0.04 0  0 0.08 0  0.04 0.08 0  0.08 0.08 0  0.12 0.08 0  0.16 0.08 0  0.2 0.08 0  0.24 0.08 0  0.28 0.08 0  0.32 0.08 0  0.36 0.08 0  0.4 0.08 0  0.44 0.08 0  0.48 0.08 0  0.52 0.08 0  0.5600000000000001 0.08 0  0.6 0.08 0  0.64 0.08 0  0.68 0.08 0  0.72 0.08 0  0.76 0.08 0  0.8 0.08 0  0.84 0.08 0  0.88 0.08 0  0.92 0.08 0  0.96 0.08 0  1 0.08 0  0 0.12 0  0.04 0.12 0  0.08 0.12 0  0.12 0.12 0  0.16 0.12 0  0.2 0.12 0  0.24 0.12 0  0.28 0.12 0  0.32 0.12 0  0.36 0.12 0  0.4 0.12 0  0.44 0.12 0  0.48 0.12 0  0.52 0.12 0  0.5600000000000001 0.12 0  0.6 0.12 0  0.64 0.12 0  0.68 0.12 0  0.72 0.12 0  0.76 0.12 0  0.8 0.12 0  0.84 0.12 0  0.88 0.12 0  0.92 0.12 0  0.96 0.12 0  1 0.12 0  0 0.16 0  0.04 0.16 0  0.08 0.16 0  0.12 0.16 0  0.16 0.16 0  0.2 0.16 0  0.24 0.16 0  0.28 0.16 0  0.32 0.16 0  0.36 0.16 0  0.4 0.16 0  0.44 0.16 0  0.48 0.16 0  0.52 0.16 0  0.5600000000000001 0.16 0  0.6 0.16 0  0.64 0.16 0  0.68 0.16 0  0.72 0.16 0  0.76 0.16 0  0.8 0.16 0  0.84 0.16 0  0.88 0.16 0  0.92 0.16 0  0.96 0.16 0  1 0.16 0  0 0.2 0  0.04 0.2 0  0.08 0.2 0  0.12 0.2 0  0.16 0.2 0  0.2 0.2 0  0.24 0.2 0  0.28 0.2 0  0.32 0.2 0  0.36 0.2 0  0.4 0.2 0  0.44 0.2 0  0.48 0.2 0  0.52 0.2 0  0.5600000000000001 0.2 0  0.6 0.2 0  0.64 0.2 0  0.68 0.2 0  0.72 0.2 0  0.76 0.2 0  0.8 0.2 0  0.84 0.2 0  0.88 0.2 0  0.92 0.2 0  0.96 0.2 0  1 0.2 0  0 0.24 0  0.04 0.24 0  0.08 0.24 0  0.12 0.24 0  0.16 0.24 0  0.2 0.24 0  0.24 0.24 0  0.28 0.24 0  0.32 0.24 0  0.36 0.24 0  0.4 0.24 0  0.44 0.24 0  0.48 0.24 0  0.52 0.24 0  0.5600000000000001 0.24 0  0.6 0.24 0  0.64 0.24 0  0.68 0.24 0  0.72 0.24 0  0.76 0.24 0  0.8 0.24 0  0.84 0.24 0  0.88 0.24 0  0.92 0.24 0  0.96 0.24 0  1 0.24 0  0 0.28 0  0.04 0.28 0  0.08 0.28 0  0.12 0.28 0  0.16 0.28 0  0.2 0.28 0  0.24 0.28 0  0.28 0.28 0  0.32 0.28 0  0.36 0.28 0  0.4 0.28 0  0.44 0.28 0  0.48 0.28 0  0.52 0.28 0  0.5600000000000001 0.28 0  0.6 0.28 0  0.64 0.28 0  0.68 0.28 0  0.72 0.28 0  0.76 0.28 0  0.8 0.28 0  0.84 0.28 0  0.88 0.28 0  0.92 0.28 0  0.96 0.28 0  1 0.28 0  0 0.32 0  0.04 0.32 0  0.08 0.32 0  0.12 0.32 0  0.16 0.32 0  0.2 0.32 0  0.24 0.32 0  0.28 0.32 0  0.32 0.32 0  0.36 0.32 0  0.4 0.32 0  0.44 0.32 0  0.48 0.32 0  0.52 0.32 0  0.5600000000000001 0.32 0  0.6 0.32 0  0.64 0.32 0  0.68 0.32 0  0.72 0.32 0  0.76 0.32 0  0.8 0.32 0  0.84 0.32 0  0.88 0.32 0  0.92 0.32 0  0.96 0.32 0  1 0.32 0  0 0.36 0  0.04 0.36 0  0.08 0.36 0  0.12 0.36 0  0.16 0.36 0  0.2 0.36 0  0.24 0.36 0  0.28 0.36 0  0.32 0.36 0  0.36 0.36 0  0.4 0.36 0  0.44 0.36 0  0.48 0.36 0  0.52 0.36 0  0.5600000000000001 0.36 0  0.6 0.36 0  0.64 0.36 0  0.68 0.36 0  0.72 0.36 0  0.76 0.36 0  0.8 0.36 0  0.84 0.36 0  0.88 0.36 0  0.92 0.36 0  0.96 0.36 0  1 0.36 0  0 0.4 0  0.04 0.4 0  0.08 0.4 0  0.12 0.4 0  0.16 0.4 0  0.2 0.4 0  0.24 0.4 0  0.28 0.4 0  0.32 0.4 0  0.36 0.4 0  0.4 0.4 0  0.44 0.4 0  0.48 0.4 0  0.52 0.4 0  0.5600000000000001 0.4 0  0.6 0.4 0  0.64 0.4 0  0.68 0.4 0  0.72 0.4 0  0.76 0.4 0  0.8 0.4 0  0.84 0.4 0  0.88 0.4 0  0.92 0.4 0  0.96 0.4 0  1 0.4 0  0 0.44 0  0.04 0.44 0  0.08 0.44 0  0.12 0.44 0  0.16 0.44 0  0.2 0.44 0  0.24 0.44 0  0.28 0.44 0  0.32 0.44 0  0.36 0.44 0  0.4 0.44 0  0.44 0.44 0  0.48 0.44 0  0.52 0.44 0  0.5600000000000001 0.44 0  0.6 0.44 0  0.64 0.44 0  0.68 0.44 0  0.72 0.44 0  0.76 0.44 0  0.8 0.44 0  0.84 0.44 0  0.88 0.44 0  0.92 0.44 0  0.96 0.44 0  1 0.44 0  0 0.48 0  0.04 0.48 0  0.08 0.48 0  0.12 0.48 0  0.16 0.48 0  0.2 0.48 0  0.24 0.48 0  0.28 0.48 0  0.32 0.48 0  0.36 0.48 0  0.4 0.48 0  0.44 0.48 0  0.48 0.48 0  0.52 0.48 0  0.5600000000000001 0.48 0  0.6 0.48 0  0.64 0.48 0  0.68 0.48 0  0.72 0.48 0  0.76 0.48 0  0.8 0.48 0  0.84 0.48 0  0.88 0.48 0  0.92 0.48 0  0.96 0.48 0  1 0.48 0  0 0.52 0  0.04 0.52 0  0.08 0.52 0  0.12 0.52 0  0.16 0.52 0  0.2 0.52 0  0.24 0.52 0  0.28 0.52 0  0.32 0.52 0  0.36 0.52 0  0.4 0.52 0  0.44 0.52 0  0.48 0.52 0  0.52 0.52 0  0.5600000000000001 0.52 0  0.6 0.52 0  0.64 0.52 0  0.68 0.52 0  0.72 0.52 0  0.76 0.52 0  0.8 0.52 0  0.84 0.52 0  0.88 0.52 0  0.92 0.52 0  0.96 0.52 0  1 0.52 0  0 0.5600000000000001 0  0.04 0.5600000000000001 0  0.08 0.5600000000000001 0  0.12 0.5600000000000001 0  0.16 0.5600000000000001 0  0.2 0.5600000000000001 0  0.24 0.5600000000000001 0  0.28 0.5600000000000001 0  0.32 0.5600000000000001 0  0.36 0.5600000000000001 0  0.4 0.5600000000000001 0  0.44 0.5600000000000001 0  0.48 0.5600000000000001 0  0.52 0.5600000000000001 0  0.5600000000000001 0.5600000000000001 0  0.6 0.5600000000000001 0  0.64 0.5600000000000001 0  0.68 0.5600000000000001 0  0.72 0.5600000000000001 0  0.76 0.5600000000000001 0  0.8 0.5600000000000001 0  0.84 0.5600000000000001 0  0.88 0.5600000000000001 0  0.92 0.5600000000000001 0  0.96 0.5600000000000001 0  1 0.5600000000000001 0  0 0.6 0  0.04 0.6 0  0.08 0.6 0  0.12 0.6 0  0.16 0.6 0  0.2 0.6 0  0.24 0.6 0  0.28 0.6 0  0.32 0.6 0  0.36 0.6 0  0.4 0.6 0  0.44 0.6 0  0.48 0.6 0  0.52 0.6 0  0.5600000000000001 0.6 0  0.6 0.6 0  0.64 0.6 0  0.68 0.6 0  0.72 0.6 0  0.76 0.6 0  0.8 0.6 0  0.84 0.6 0  0.88 0.6 0  0.92 0.6 0  0.96 0.6 0  1 0.6 0  0 0.64 0  0.04 0.64 0  0.08 0.64 0  0.12 0.64 0  0.16 0.64 0  0.2 0.64 0  0.24 0.64 0  0.28 0.64 0  0.32 0.64 0  0.36 0.64 0  0.4 0.64 0  0.44 0.64 0  0.48 0.64 0  0.52 0.64 0  0.5600000000000001 0.64 0  0.6 0.64 0  0.64 0.64 0  0.68 0.64 0  0.72 0.64 0  0.76 0.64 0  0.8 0.64 0  0.84 0.64 0  0.88 0.64 0  0.92 0.64 0  0.96 0.64 0  1 0.64 0  0 0.68 0  0.04 0.68 0  0.08 0.68 0  0.12 0.68 0  0.16 0.68 0  0.2 0.68 0  0.24 0.68 0  0.28 0.68 0  0.32 0.68 0  0.36 0.68 0  0.4 0.68 0  0.44 0.68 0  0.48 0.68 0  0.52 0.68 0  0.5600000000000001 0.68 0  0.6 0.68 0  0.64 0.68 0  0.68 0.68 0  0.72 0.68 0  0.76 0.68 0  0.8 0.68 0  0.84 0.68 0  0.88 0.68 0  0.92 0.68 0  0.96 0.68 0  1 0.68 0  0 0.72 0  0.04 0.72 0  0.08 0.72 0  0.12 0.72 0  0.16 0.72 0  0.2 0.72 0  0.24 0.72 0  0.28 0.72 0  0.32 0.72 0  0.36 0.72 0  0.4 0.72 0  0.44 0.72 0  0.48 0.72 0  0.52 0.72 0  0.5600000000000001 0.72 0  0.6 0.72 0  0.64 0.72 0  0.68 0.72 0  0.72 0.72 0  0.76 0.72 0  0.8 0.72 0  0.84 0.72 0  0.88 0.72 0  0.92 0.72 0  0.96 0.72 0  1 0.72 0  0 0.76 0  0.04 0.76 0  0.08 0.76 0  0.12 0.76 0  0.16 0.76 0  0.2 0.76 0  0.24 0.76 0  0.28 0.76 0  0.32 0.76 0  0.36 0.76 0  0.4 0.76 0  0.44 0.76 0  0.48 0.76 0  0.52 0.76 0  0.5600000000000001 0.76 0  0.6 0.76 0  0.64 0.76 0  0.68 0.76 0  0.72 0.76 0  0.76 0.76 0  0.8 0.76 0  0.84 0.76 0  0.88 0.76 0  0.92 0.76 0  0.96 0.76 0  1 0.76 0  0 0.8 0  0.04 0.8 0  0.08 0.8 0  0.12 0.8 0  0.16 0.8 0  0.2 0.8 0  0.24 0.8 0  0.28 0.8 0  0.32 0.8 0  0.36 0.8 0  0.4 0.8 0  0.44 0.8 0  0.48 0.8 0  0.52 0.8 0  0.5600000000000001 0.8 0  0.6 0.8 0  0.64 0.8 0  0.68 0.8 0  0.72 0.8 0  0.76 0.8 0  0.8 0.8 0  0.84 0.8 0  0.88 0.8 0  0.92 0.8 0  0.96 0.8 0  1 0.8 0  0 0.84 0  0.04 0.84 0  0.08 0.84 0  0.12 0.84 0  0.16 0.84 0  0.2 0.84 0  0.24 0.84 0  0.28 0.84 0  0.32 0.84 0  0.36 0.84 0  0.4 0.84 0  0.44 0.84 0  0.48 0.84 0  0.52 0.84 0  0.5600000000000001 0.84 0  0.6 0.84 0  0.64 0.84 0  0.68 0.84 0  0.72 0.84 0  0.76 0.84 0  0.8 0.84 0  0.84 0.84 0  0.88 0.84 0  0.92 0.84 0  0.96 0.84 0  1 0.84 0  0 0.88 0  0.04 0.88 0  0.08 0.88 0  0.12 0.88 0  0.16 0.88 0  0.2 0.88 0  0.24 0.88 0  0.28 0.88 0  0.32 0.88 0  0.36 0.88 0  0.4 0.88 0  0.44 0.88 0  0.48 0.88 0  0.52 0.88 0  0.5600000000000001 0.88 0  0.6 0.88 0  0.64 0.88 0  0.68 0.88 0  0.72 0.88 0  0.76 0.88 0  0.8 0.88 0  0.84 0.88 0  0.88 0.88 0  0.92 0.88 0  0.96 0.88 0  1 0.88 0  0 0.92 0  0.04 0.92 0  0.08 0.92 0  0.12 0.92 0  0.16 0.92 0  0.2 0.92 0  0.24 0.92 0  0.28 0.92 0  0.32 0.92 0  0.36 0.92 0  0.4 0.92 0  0.44 0.92 0  0.48 0.92 0  0.52 0.92 0  0.5600000000000001 0.92 0  0.6 0.92 0  0.64 0.92 0  0.68 0.92 0  0.72 0.92 0  0.76 0.92 0  0.8 0.92 0  0.84 0.92 0  0.88 0.92 0  0.92 0.92 0  0.96 0.92 0  1 0.92 0  0 0.96 0  0.04 0.96 0  0.08 0.96 0  0.12 0.96 0  0.16 0.96 0  0.2 0.96 0  0.24 0.96 0  0.28 0.96 0  0.32 0.96 0  0.36 0.96 0  0.4 0.96 0  0.44 0.96 0  0.48 0.96 0  0.52 0.96 0  0.5600000000000001 0.96 0  0.6 0.96 0  0.64 0.96 0  0.68 0.96 0  0.72 0.96 0  0.76 0.96 0  0.8 0.96 0  0.84 0.96 0  0.88 0.96 0  0.92 0.96 0  0.96 0.96 0  1 0.96 0  0 1 0  0.04 1 0  0.08 1 0  0.12 1 0  0.16 1 0  0.2 1 0  0.24 1 0  0.28 1 0  0.32 1 0  0.36 1 0  0.4 1 0  0.44 1 0  0.48 1 0  0.52 1 0  0.5600000000000001 1 0  0.6 1 0  0.64 1 0  0.68 1 0  0.72 1 0  0.76 1 0  0.8 1 0  0.84 1 0  0.88 1 0  0.92 1 0  0.96 1 0  1 1 0  </DataArray>
</Points>
<Cells>
[...]
<PointData  Scalars="Indicator Function"> 
<DataArray  type="Float64"  Name="Indicator Function"  format="ascii">-1.3836539351536147e-20  -3.7782096224634108e-20  2.1514767652113100e-18  2.8132408867316552e-18  1.5030429764841818e-18  -9.7859316977409231e-20  -7.7037197775489434e-34  3.6714985338694094e-18  4.0284861878063502e-18  -1.9648256627230200e-19  3.3316050382298287e-18  4.0592339036904645e-18  0.0000000000000000e+00  -4.7538915602027063e-21  3.5927575379413686e-19  -7.5231638452626401e-37  0.0000000000000000e+00  7.8402421570654451e-20  3.7615819226313200e-37  1.8807909613156600e-37  6.0185310762101120e-36  -3.1852512797282677e-23  -1.5926256398641033e-23  -8.2754802297889041e-36  -4.4081038155835782e-39  5.8774717541114375e-39  -1.0532429383367696e-35  5.7194935146729980e-04  8.1969797169270566e-04  3.9451710020733579e-03  8.0531946006988907e-04  2.3769221953713312e-04  1.6440306241281989e-03  1.3533282934954378e-03  3.3049096256650332e-03  4.2835252557065955e-03  2.2204343814862027e-03  4.5124991013017427e-03  1.2358222101650658e-03  5.2330477220457377e-04  8.6805995221922593e-05  4.7066431644672357e-05  1.0421131833509405e-04  6.2032499974271231e-05  3.6260927977796495e-05  2.2437683764094477e-05  1.4703092854613314e-05  4.3172129521252985e-06  5.7380385905862372e-07  9.5106831015562496e-07  6.9279319574739058e-07  -1.1754943508222875e-38  -4.0128087298309100e-20  1.6628253029283055e-04  6.8113852011621255e-04  6.5205679456141539e-04  6.9334680079307107e-03  6.8790654706119491e-04  6.1362765033013975e-03  5.4203220534910076e-03  9.8755135712170518e-03  2.1564892539158208e-03  6.5120619019021784e-03  2.4352890702905509e-03  7.5310895003811440e-03  3.0490715072585019e-04  4.6321447380362658e-04  4.0886572723682811e-04  2.3274705560708843e-04  1.4171416707723148e-04  9.8831705179568659e-05  6.2349129589865459e-05  3.6876464546129981e-05  1.8981184659401655e-05  2.3997047015455808e-06  1.1475128740679155e-06  1.6974294337093026e-06  2.8211864419734900e-37  2.3603926564511533e-35  7.4205422621354477e-04  1.4150160337799381e-03  1.2728921254582550e-03  8.0321900480565828e-03  2.8223793904018021e-04  2.8519259745971308e-04  3.1594103687885020e-03  2.8204457943963230e-03  5.4660016221164771e-03  9.1188705907995268e-03  4.3160245172576177e-03  9.1902942273428146e-03  2.6322146715209663e-03  1.7672255687873058e-03  7.4616912154429414e-04  4.1062816546090085e-04  3.9364934008243236e-04  2.5618507107068702e-04  1.4394257552724355e-04  7.5663978320255032e-05  4.1387113239739067e-05  1.3104879285209774e-05  8.7819995157450544e-07  2.3501848921584919e-06  7.9933615855915551e-37  -3.0713109137654761e-20  2.2402953198616443e-05  4.9656802837194116e-04  2.0658521706447934e-03  1.7600374619063045e-03  1.3086685172130614e-02  1.0584077604227464e-03  1.2421551339356541e-02  8.7961159775840937e-03  2.0377381276323683e-02  3.7495886023560456e-03  1.1530406246289180e-02  6.8376102691730060e-03  1.5457391961342959e-02  1.5507046481258214e-03  1.5412660889846178e-03  1.5313519474789334e-03  1.0772175978689465e-03  5.6539121100624627e-04  2.8547754845049391e-04  1.4440963779046952e-04  7.4589419389426345e-05  3.4803532401848884e-05  4.2150611767923556e-06  1.7529365764420799e-06  -7.5231638452626401e-37  -3.6658803155335909e-21  1.1814686799070501e-03  6.0893673343368219e-04  4.8014933324086337e-04  6.4465468999143577e-04  1.4373807996191021e-02  4.5614529414049554e-03  1.3890210208087198e-03  4.4546426881634646e-03  1.1038059207483767e-02  1.4354777513959135e-02  2.6620887563964378e-02  1.4815181764361666e-02  2.2257690652432115e-02  8.1998042949614752e-03  7.4472156464075456e-03  4.1726378061221862e-03  2.0149984529843784e-03  1.0024148934329911e-03  5.2275566221663663e-04  2.7027803851496258e-04  1.3540878556538409e-04  7.1541959816110365e-05  2.1351969009386836e-05  1.4428142534093167e-06  0.0000000000000000e+00  9.0277966143151681e-36  6.3984295302266399e-04  1.2684141226697312e-03  1.4987415891242997e-03  4.0964466599848856e-05  6.1509008314619305e-03  3.3665780311058817e-02  4.2448519775839409e-03  2.9746239601193842e-02  3.3258506764040773e-03  5.2297223873945343e-02  2.5784055907581021e-02  4.3447125257584186e-02  4.2339842826117663e-02  5.0274766645584404e-02  1.4523962334294198e-02  5.0685366236952823e-03  2.8310715989081155e-03  1.9024646958873655e-03  1.0664124245051670e-03  5.5280011081212661e-04  2.8109021283330080e-04  1.4726860697801295e-04  6.9279886758969922e-05  1.1602499817039307e-05  1.5046327690525280e-36  -1.3907229671633889e-20  1.0599976082031796e-04  1.6282066457857261e-05  4.3247243007717611e-03  6.2701235295515327e-03  3.9163120722453858e-03  2.5989599862457149e-02  4.3421497076440302e-03  2.9607826589944489e-02  1.0863052329516175e-02  2.0089162223266913e-02  7.2125993783040080e-03  6.7954604721292514e-02  1.2724316203952894e-02  6.6319982582039375e-02  6.5293224317112611e-02  5.2442069200536127e-03  7.1867291362932443e-03  5.0018189121265547e-03  2.5714909096391471e-03  1.2895032214963735e-03  6.5315110686974475e-04  3.2638462101240668e-04  1.6555236938974507e-04  5.0243673996000036e-05  7.4858877762138845e-22  -3.2684262437851116e-20  2.1635463382382752e-03  1.8631593573410264e-03  1.1182963866668953e-03  1.2798499870222497e-03  1.1704805042787612e-02  1.1727660921026577e-02  2.3977850129581105e-02  3.0926756058265115e-02  4.7952985742623702e-02  1.7036260202814305e-02  2.3918283761311408e-02  1.2835939721822778e-02  1.0289605552003448e-02  4.7311068552255940e-03  7.0161972353967785e-03  1.2601183040604811e-02  2.1880386438429874e-02  1.2825191385282684e-02  6.0818950700222982e-03  2.9076320855118262e-03  1.3859730343672911e-03  6.4497340005699021e-04  2.9919661988864535e-04  1.1741895043495699e-04  -2.5246282908826767e-21  -4.5640746973178955e-20  5.8878732854394206e-04  2.4729041556759220e-03  6.2072941817945754e-03  1.3452544318341629e-02  1.0322869438047565e-02  4.9858350108202059e-03  2.1438381113203172e-02  7.0115451334604145e-02  7.4740454406406398e-03  8.6219200194495738e-03  5.8512733085102769e-03  1.2359947981027448e-02  8.5530616707787509e-03  2.6904109622334469e-03  8.0269250312783990e-03  2.0913188039212497e-02  2.0253055910736478e-02  2.2868789813302533e-02  1.1777324247955013e-02  5.1308376260312330e-03  2.2066162464275791e-03  9.4085371923452487e-04  3.9217079450875215e-04  1.6564546112574592e-04  7.5231638452626401e-36  -3.9551140007624846e-20  2.2305985218019765e-03  2.4415536660719241e-03  1.0482668409579090e-03  5.1265032517902199e-03  1.6780131487884476e-02  5.5880230731265086e-02  2.9680342176736596e-02  3.0885059812050975e-02  4.4588510574693823e-03  1.5503167382128651e-03  6.8749558853627765e-03  6.6057044830663538e-03  5.8545755228813215e-03  1.0183333647133351e-02  3.6471487241014336e-03  2.1784833987835522e-02  2.2627885287112123e-02  2.6145203966251324e-02  1.6678293376644934e-02  6.3628680044640279e-03  2.4413196307831570e-03  9.5215518704626573e-04  3.6440598748777747e-04  1.4268878181450783e-04  6.4887288165390270e-36  -7.0368997963445788e-20  9.1729462466218811e-04  1.8344764400620413e-03  5.4701558773633495e-03  8.6809887096232548e-03  1.5378922464618090e-02  1.9845495712247502e-02  7.9410461302505037e-02  1.9869751708110014e-03  3.2801908405227639e-03  1.1645951185523019e-02  8.0631842467563108e-03  2.0707485895271873e-03  1.3594702226425627e-02  9.3506261995775185e-03  4.5471811770184381e-03  8.3679510033170933e-03  3.8007813873980972e-02  4.7841059516487469e-02  5.5311011462626149e-03  6.6228319789935174e-03  2.4847344116370180e-03  8.9877120717193448e-04  3.2069056177522198e-04  9.3714776189499262e-05  1.2037062152420224e-35  6.0185310762101120e-36  2.4298048888181257e-03  3.2860682504764773e-03  2.5056281377668389e-03  3.4141131377821050e-03  1.8675376622535014e-02  4.5271771961638889e-02  6.5290775159732705e-03  2.3362362638318077e-02  9.6953454223540052e-03  1.1352369281722226e-02  5.6568336282966196e-03  6.6982833183507886e-03  1.0932129165523661e-02  7.9229662364649223e-03  1.5963741161523323e-02  8.4005841861488242e-04  2.2016053327383829e-02  2.8034873130095648e-02  6.6011689434357076e-02  1.1139843633721889e-02  3.8998094293061459e-03  1.3589401779088885e-03  4.7379347082811312e-04  1.2863055327049812e-04  4.5138983071575840e-36  1.2037062152420224e-35  8.4729308502878959e-05  1.5935252647745215e-03  5.2157944984039858e-03  1.0185647559546387e-02  1.2557037944312227e-02  2.9356208183302538e-02  3.5931149852789307e-02  5.9193504454023733e-03  1.2546056841176793e-02  8.2413366468298364e-03  1.3834385360054833e-02  7.7732765402621631e-03  4.1732725759442832e-03  1.9274657836387193e-02  1.2598961431610265e-02  8.8008941124199085e-03  2.8453823240662968e-02  7.1597207905015767e-02  2.0739331496445908e-02  8.8245276811702109e-03  5.1177996079345735e-03  1.9724997516974191e-03  7.2946464210808489e-04  2.3572332076342878e-04  6.0185310762101120e-36  -1.5422776871795227e-20  4.4194253061389957e-04  2.2596245943140296e-04  2.6886106177412641e-04  2.7917079154288859e-03  1.3678665418698705e-02  4.4234236417947208e-02  1.9581707584802731e-02  1.4410313871524279e-02  2.1569487962137004e-02  7.8922667163848319e-03  1.8393586665683206e-02  7.0952468533932852e-03  1.1427036244504750e-02  1.5352705328891152e-02  1.2602501314454542e-03  1.3956192737394844e-02  1.6850433475647266e-02  3.9057756771737770e-02  1.1657248567266022e-01  3.0296921687657011e-03  5.2229996412592019e-03  2.1734650782020879e-03  8.2033891170035236e-04  2.8822661296169159e-04  -2.2569491535787920e-35  -1.2308831063789922e-20  7.0658379583546978e-04  1.2875799637568704e-03  2.0502426903973052e-03  2.8149682581648200e-03  4.2322791473750785e-03  9.5081582852542621e-03  3.1044914347631337e-02  1.9543431135322767e-02  1.3194684720578968e-02  1.6564218520082157e-02  1.0688006429715881e-02  2.1329604730659698e-02  1.2649554158302862e-02  1.8678739301028189e-03  4.8965825656077773e-02  2.6723830027090924e-02  2.8030519103648482e-02  3.2660047000947739e-02  1.9650864894573166e-02  5.8463477737880302e-03  4.1913644927669092e-03  2.0740652044643057e-03  7.1199553579482234e-04  2.3832313681063658e-04  9.0277966143151681e-36  -1.1957028812664657e-21  2.3330171126196395e-04  7.1496020927237574e-04  1.6908436463352649e-03  3.7159656475675255e-03  7.3375476556857252e-03  1.3420653800774807e-02  2.7016573257652211e-02  3.3562800678326628e-02  8.2863556754648147e-03  2.6517186677563070e-02  6.1456316534962607e-04  2.0365341806617514e-02  1.4715100436961518e-03  1.7388403825046143e-02  2.8595182396909870e-02  1.2304418726358287e-02  8.2994205977452939e-02  5.6885701422048220e-02  1.9485515958940332e-02  1.4462590116925095e-03  1.2831394826522634e-03  8.8067936557876126e-04  4.1823168216558127e-04  1.3966978131327071e-04  4.8900564994207160e-36  -5.6423728839469800e-37  4.7787898020217841e-05  1.8318634671019810e-04  5.4368680784443982e-04  1.5280151260715330e-03  4.0857439433267294e-03  1.0076531448624575e-02  2.1851852128621153e-02  1.9365402102861046e-02  3.5295710176406661e-02  3.5201443643368975e-02  3.5026212771698088e-02  1.8219503246784681e-02  1.5654427987452587e-02  1.1725989855757447e-02  3.3460792603576581e-02  7.4106626834082534e-02  1.9276456094495818e-02  1.6043241194387266e-02  1.8231245333215993e-02  1.4250262036376158e-04  1.5398180180977254e-03  5.7311404361644824e-04  3.2970204450013168e-04  1.0062717739816312e-04  1.7228045205651446e-34  -1.4105932209867450e-37  3.2670377487929265e-05  9.0056411723338995e-05  2.1803450383021161e-04  5.1600347554932920e-04  1.2412796766112834e-03  3.0692147232435798e-03  7.9105974832719139e-03  2.1432968581085562e-02  4.2631208450782172e-02  3.2899981750931166e-02  5.6445343425522473e-02  2.2390078714854735e-02  7.5339628217232626e-02  3.4207158216431520e-02  2.3868446194466115e-02  1.0534656498212341e-01  3.9536968962258147e-02  1.2572718246242417e-02  6.2798312104988471e-03  1.8201019778624891e-03  1.4070226445668686e-04  4.5032078699307020e-04  3.1208079842591599e-04  1.1178463315309077e-04  3.0092655381050560e-36  0.0000000000000000e+00  2.3936509949756521e-05  6.2832848002088401e-05  1.4869247366862883e-04  3.4161599773408554e-04  7.5774881921837124e-04  1.6014158606130998e-03  3.1212520820505115e-03  5.2228030794505475e-03  6.2580574160926820e-03  3.8716411864323230e-03  1.5222007855058986e-02  6.7192602141380675e-02  1.8592344270016083e-03  8.6273164075236983e-02  7.2763010686221458e-02  2.7695874993497203e-02  1.9497990175689848e-02  2.9528410176914139e-04  3.4112303765904027e-05  2.0997993780217661e-03  1.0811357486547994e-03  6.1147157855502229e-04  2.3671472079268737e-04  9.5702542474573169e-05  1.5046327690525280e-36  -4.7019774032891500e-38  1.4025207218894828e-05  3.6582779017631940e-05  8.2467566774754620e-05  1.8218496112899809e-04  3.9597548617668611e-04  8.4001119044772345e-04  1.7255904912105663e-03  3.4051691190559157e-03  6.3418836606568075e-03  9.3049627626856021e-03  2.8886052006990761e-03  1.2147816962947554e-02  7.1056902125008680e-03  1.0498485281748850e-02  1.2328316411318395e-02  1.0964808410503867e-02  1.5086463879825317e-03  9.1155654734043155e-04  1.6918142080758370e-03  1.4980950952576924e-03  7.6552338498989049e-04  4.5795097682332556e-04  2.3880677701323773e-04  8.7570069808230353e-05  1.3704678214189364e-20  1.1754943508222875e-38  8.2442882285512889e-06  2.1012541002443051e-05  4.5305499163907244e-05  9.5011446249378191e-05  1.9447792311599771e-04  3.8474025617272627e-04  7.2778636038326057e-04  1.3051753245918777e-03  2.2124733722762623e-03  3.5007397184193801e-03  3.2526809420070921e-03  3.4512741679207267e-04  5.5174375663330109e-03  4.2354163146750114e-03  5.9984269860218530e-03  1.1515708048291955e-03  1.3053810941114697e-04  2.3332773719601215e-03  1.0049201545861981e-03  7.7032585083577118e-04  5.8152272216262376e-04  2.9349101160898520e-04  1.4758643636613640e-04  5.7599252872244434e-05  7.5231638452626401e-37  -1.7632415262334313e-38  4.5948153754904482e-06  1.1508806916656583e-05  2.3902065688798994e-05  4.7998373067210523e-05  9.4239149910087602e-05  1.7951569793326909e-04  3.2898725750109541e-04  5.7604242149211803e-04  9.5664466252542849e-04  1.4945594472515619e-03  2.2018841912852054e-03  1.9747918093924455e-03  1.2226068643901666e-03  1.2779973749685002e-03  9.7827385187116507e-05  1.6186465359516928e-03  1.2464030253728068e-03  5.4918806468472290e-04  8.1644384079107546e-04  5.2045364562788865e-04  3.3625252340479411e-04  1.8127824338332130e-04  9.1269229481858656e-05  3.9021497369876687e-05  9.4039548065783001e-37  -2.3509887016445750e-38  2.3427238703725090e-06  5.9344123373613752e-06  1.1959363291542144e-05  2.3086443643273524e-05  4.3416989156709475e-05  7.9205807171355645e-05  1.3923540815257503e-04  2.3430733716142636e-04  3.7519664679216334e-04  5.6864207669754226e-04  8.0988689883039532e-04  1.0623270453662668e-03  1.0160338098240730e-03  1.1055934402421481e-03  6.9654054568586536e-04  7.1234020615815337e-04  6.6113113272930522e-04  5.9100073987306608e-04  4.1339700300881843e-04  2.9444058373094512e-04  1.7272471761610916e-04  1.0854330312354872e-04  5.3374666715246414e-05  2.1752120142149638e-05  1.1049646897729503e-35  -4.4081038155835782e-39  9.2235219761281169e-07  2.4715881405107828e-06  4.9713098158765070e-06  9.3968146435470404e-06  1.7172245814097356e-05  3.0384520971089709e-05  5.1852375699296351e-05  8.4913610573709056e-05  1.3282094503045970e-04  1.9796498637723658e-04  2.8173802992445486e-04  3.8331699218644870e-04  4.5459558406897945e-04  4.5344530761926352e-04  4.7527157284280741e-04  3.6781427052275437e-04  3.6021644691714333e-04  2.6162442631655038e-04  1.9471903389058187e-04  1.3864520331642214e-04  8.6170525840105085e-05  4.6857504593251252e-05  2.4884040899751391e-05  1.1509102719019159e-05  -4.6075824620289946e-22  0.0000000000000000e+00  7.0529661049337250e-38  2.8211864419734900e-37  4.7019774032891500e-37  4.2457220289720828e-23  7.5231638452626401e-37  7.5231638452626401e-37  9.4039548065783001e-36  -4.5138983071575840e-36  3.0092655381050560e-36  1.5610564978919978e-35  -6.0185310762101120e-36  9.0277966143151681e-36  2.4074124304840448e-35  4.0737352397065918e-20  1.2037062152420224e-35  1.0532429383367696e-35  1.5309638425109473e-34  2.2569491535787920e-36  3.3854237303681880e-36  1.1816045094740188e-20  -3.7615819226313200e-37  2.0688700574472260e-36  1.4905268368426606e-35  -4.6075824620289946e-22  -1.3777454692925306e-22  </DataArray> 
</PointData> 
</Piece>
</UnstructuredGrid>
</VTKFile>