<?xml version="1.0"?>
<VTKFile type="UnstructuredGrid"  version="0.1"  >
<UnstructuredGrid>
<Piece  NumberOfPoints="676" NumberOfCells="1250">
<Points>
<DataArray  type="Float64"  NumberOfComponents="3"  format="ascii">0 0 0  0.04 0 0  0.08 0 0  0.12 0 0  0.16 0 0  0.2 0 0  0.24 0 0  0.28 0 0  0.32 0 0  0.36 0 0  0.4 0 0  0.44 0 0  0.48 0 0  0.52 0 0  0.5600000000000001 0 0  0.6 0 0  0.64 0 0  0.68 0 0  0.72 0 0  0.76 0 0  0.8 0 0  0.84 0 0  0.88 0 0  0.92 0 0  0.96 0 0  1 0 0  0 0.04 0  0.04 0.04 0  0.08 0.04 0  0.12 0.04 0  0.16 0.04 0  0.2 0.04 0  0.24 0.04 0  0.28 0.04 0  0.32 0.04 0  0.36 0.04 0  0.4 0.04 0  0.44 0.04 0  0.48 0.04 0  0.52 0.04 0  0.5600000000000001 0.04 0  0.6 0.04 0  0.64 0.04 0  0.68 0.04 0  0.72 0.04 0  0.76 0.04 0  0.8 0.04 0  0.84 0.04 0  0.88 0.04 0  0.92 0.04 0  0.96 0.04 0  1 0.04 0  0 0.08 0  0.04 0.08 0  0.08 0.08 0  0.12 0.08 0  0.16 0.08 0  0.2 0.08 0  0.24 0.08 0  0.28 0.08 0  0.32 0.08 0  0.36 0.08 0  0.4 0.08 0  0.44 0.08 0  0.48 0.08 0  0.52 0.08 0  0.5600000000000001 0.08 0  0.6 0.08 0  0.64 0.08 0  0.68 0.08 0  0.72 0.08 0  0.76 0.08 0  0.8 0.08 0  0.84 0.08 0  0.88 0.08 0  0.92 0.08 0  0.96 0.08 0  1 0.08 0  0 0.12 0  0.04 0.12 0  0.08 0.12 0  0.12 0.12 0  0.16 0.12 0  0.2 0.12 0  0.24 0.12 0  0.28 0.12 0  0.32 0.12 0  0.36 0.12 0  0.4 0.12 0  0.44 0.12 0  0.48 0.12 0  0.52 0.12 0  0.5600000000000001 0.12 0  0.6 0.12 0  0.64 0.12 0  0.68 0.12 0  0.72 0.12 0  0.76 0.12 0  0.8 0.12 0  0.84 0.12 0  0.88 0.12 0  0.92 0.12 0  0.96 0.12 0  1 0.12 0  0 0.16 0  0.04 0.16 0  0.08 0.16 0  0.12 0.16 0  0.16 0.16 0  0.2 0.16 0  0.24 0.16 0  0.28 0.16 0  0.32 0.16 0  0.36 0.16 0  0.4 0.16 0  0.44 0.16 0  0.48 0.16 0  0.52 0.16 0  0.5600000000000001 0.16 0  0.6 0.16 0  0.64 0.16 0  0.68 0.16 0  0.72 0.16 0  0.76 0.16 0  0.8 0.16 0  0.84 0.16 0  0.88 0.16 0  0.92 0.16 0  0.96 0.16 0  1 0.16 0  0 0.2 0  0.04 0.2 0  0.08 0.2 0  0.12 0.2 0  0.16 0.2 0  0.2 0.2 0  0.24 0.2 0  0.28 0.2 0  0.32 0.2 0  0.36 0.2 0  0.4 0.2 0  0.44 0.2 0  0.48 0.2 0  0.52 0.2 0  0.5600000000000001 0.2 0  0.6 0.2 0  0.64 0.2 0  0.68 0.2 0  0.72 0.2 0  0.76 0.2 0  0.8 0.2 0  0.84 0.2 0  0.88 0.2 0  0.92 0.2 0  0.96 0.2 0  1 0.2 0  0 0.24 0  0.04 0.24 0  0.08 0.24 0  0.12 0.24 0  0.16 0.24 0  0.2 0.24 0  0.24 0.24 0  0.28 0.24 0  0.32 0.24 0  0.36 0.24 0  0.4 0.24 0  0.44 0.24 0  0.48 0.24 0  0.52 0.24 0  0.5600000000000001 0.24 0  0.6 0.24 0  0.64 0.24 0  0.68 0.24 0  0.72 0.24 0  0.76 0.24 0  0.8 0.24 0  0.84 0.24 0  0.88 0.24 0  0.92 0.24 0  0.96 0.24 0  1 0.24 0  0 0.28 0  0.04 0.28 0  0.08 0.28 0  0.12 0.28 0  0.16 0.28 0  0.2 0.28 0  0.24 0.28 0  0.28 0.28 0  0.32 0.28 0  0.36 0.28 0  0.4 0.28 0  0.44 0.28 0  0.48 0.28 0  0.52 0.28 0  0.5600000000000001 0.28 0  0.6 0.28 0  0.64 0.28 0  0.68 0.28 0  0.72 0.28 0  0.76 0.28 0  0.8 0.28 0  0.84 0.28 0  0.88 0.28 0  0.92 0.28 0  0.96 0.28 0  1 0.28 0  0 0.32 0  0.04 0.32 0  0.08 0.32 0  0.12 0.32 0  0.16 0.32 0  0.2 0.32 0  0.24 0.32 0  0.28 0.32 0  0.32 0.32 0  0.36 0.32 0  0.4 0.32 0  0.44 0.32 0  0.48 0.32 0  0.52 0.32 0  0.5600000000000001 0.32 0  0.6 0.32 0  0.64 0.32 0  0.68 0.32 0  0.72 0.32 0  0.76 0.32 0  0.8 0.32 0  0.84 0.32 0  0.88 0.32 0  0.92 0.32 0  0.96 0.32 0  1 0.32 0  0 0.36 0  0.04 0.36 0  0.08 0.36 0  0.12 0.36 0  0.16 0.36 0  0.2 0.36 0  0.24 0.36 0  0.28 0.36 0  0.32 0.36 0  0.36 0.36 0  0.4 0.36 0  0.44 0.36 0  0.48 0.36 0  0.52 0.36 0  0.5600000000000001 0.36 0  0.6 0.36 0  0.64 0.36 0  0.68 0.36 0  0.72 0.36 0  0.76 0.36 0  0.8 0.36 0  0.84 0.36 0  0.88 0.36 0  0.92 0.36 0  0.96 0.36 0  1 0.36 0  0 0.4 0  0.04 0.4 0  0.08 0.4 0  0.12 0.4 0  0.16 0.4 0  0.2 0.4 0  0.24 0.4 0  0.28 0.4 0  0.32 0.4 0  0.36 0.4 0  0.4 0.4 0  0.44 0.4 0  0.48 0.4 0  0.52 0.4 0  0.5600000000000001 0.4 0  0.6 0.4 0  0.64 0.4 0  0.68 0.4 0  0.72 0.4 0  0.76 0.4 0  0.8 0.4 0  0.84 0.4 0  0.88 0.4 0  0.92 0.4 0  0.96 0.4 0  1 0.4 0  0 0.44 0  0.04 0.44 0  0.08 0.44 0  0.12 0.44 0  0.16 0.44 0  0.2 0.44 0  0.24 0.44 0  0.28 0.44 0  0.32 0.44 0  0.36 0.44 0  0.4 0.44 0  0.44 0.44 0  0.48 0.44 0  0.52 0.44 0  0.5600000000000001 0.44 0  0.6 0.44 0  0.64 0.44 0  0.68 0.44 0  0.72 0.44 0  0.76 0.44 0  0.8 0.44 0  0.84 0.44 0  0.88 0.44 0  0.92 0.44 0  0.96 0.44 0  1 0.44 0  0 0.48 0  0.04 0.48 0  0.08 0.48 0  0.12 0.48 0  0.16 0.48 0  0.2 0.48 0  0.24 0.48 0  0.28 0.48 0  0.32 0.48 0  0.36 0.48 0  0.4 0.48 0  0.44 0.48 0  0.48 0.48 0  0.52 0.48 0  0.5600000000000001 0.48 0  0.6 0.48 0  0.64 0.48 0  0.68 0.48 0  0.72 0.48 0  0.76 0.48 0  0.8 0.48 0  0.84 0.48 0  0.88 0.48 0  0.92 0.48 0  0.96 0.48 0  1 0.48 0  0 0.52 0  0.04 0.52 0  0.08 0.52 0  0.12 0.52 0  0.16 0.52 0  0.2 0.52 0  0.24 0.52 0  0.28 0.52 0  0.32 0.52 0  0.36 0.52 0  0.4 0.52 0  0.44 0.52 0  0.48 0.52 0  0.52 0.52 0  0.5600000000000001 0.52 0  0.6 0.52 0  0.64 0.52 0  0.68 0.52 0  0.72 0.52 0  0.76 0.52 0  0.8 0.52 0  0.84 0.52 0  0.88 0.52 0  0.92 0.52 0  0.96 0.52 0  1 0.52 0  0 0.5600000000000001 0  0.04 0.5600000000000001 0  0.08 0.5600000000000001 0  0.12 0.5600000000000001 0  0.16 0.5600000000000001 0  0.2 0.5600000000000001 0  0.24 0.5600000000000001 0  0.28 0.5600000000000001 0  0.32 0.5600000000000001 0  0.36 0.5600000000000001 0  0.4 0.5600000000000001 0  0.44 0.5600000000000001 0  0.48 0.5600000000000001 0  0.52 0.5600000000000001 0  0.5600000000000001 0.5600000000000001 0  0.6 0.5600000000000001 0  0.64 0.5600000000000001 0  0.68 0.5600000000000001 0  0.72 0.5600000000000001 0  0.76 0.5600000000000001 0  0.8 0.5600000000000001 0  0.84 0.5600000000000001 0  0.88 0.5600000000000001 0  0.92 0.5600000000000001 0  0.96 0.5600000000000001 0  1 0.5600000000000001 0  0 0.6 0  0.04 0.6 0  0.08 0.6 0  0.12 0.6 0  0.16 0.6 0  0.2 0.6 0  0.24 0.6 0  0.28 0.6 0  0.32 0.6 0  0.36 0.6 0  0.4 0.6 0  0.44 0.6 0  0.48 0.6 0  0.52 0.6 0  0.5600000000000001 0.6 0  0.6 0.6 0  0.64 0.6 0  0.68 0.6 0  0.72 0.6 0  0.76 0.6 0  0.8 0.6 0  0.84 0.6 0  0.88 0.6 0  0.92 0.6 0  0.96 0.6 0  1 0.6 0  0 0.64 0  0.04 0.64 0  0.08 0.64 0  0.12 0.64 0  0.16 0.64 0  0.2 0.64 0  0.24 0.64 0  0.28 0.64 0  0.32 0.64 0  0.36 0.64 0  0.4 0.64 0  0.44 0.64 0  0.48 0.64 0  0.52 0.64 0  0.5600000000000001 0.64 0  0.6 0.64 0  0.64 0.64 0  0.68 0.64 0  0.72 0.64 0  0.76 0.64 0  0.8 0.64 0  0.84 0.64 0  0.88 0.64 0  0.92 0.64 0  0.96 0.64 0  1 0.64 0  0 0.68 0  0.04 0.68 0  0.08 0.68 0  0.12 0.68 0  0.16 0.68 0  0.2 0.68 0  0.24 0.68 0  0.28 0.68 0  0.32 0.68 0  0.36 0.68 0  0.4 0.68 0  0.44 0.68 0  0.48 0.68 0  0.52 0.68 0  0.5600000000000001 0.68 0  0.6 0.68 0  0.64 0.68 0  0.68 0.68 0  0.72 0.68 0  0.76 0.68 0  0.8 0.68 0  0.84 0.68 0  0.88 0.68 0  0.92 0.68 0  0.96 0.68 0  1 0.68 0  0 0.72 0  0.04 0.72 0  0.08 0.72 0  0.12 0.72 0  0.16 0.72 0  0.2 0.72 0  0.24 0.72 0  0.28 0.72 0  0.32 0.72 0  0.36 0.72 0  0.4 0.72 0  0.44 0.72 0  0.48 0.72 0  0.52 0.72 0  0.5600000000000001 0.72 0  0.6 0.72 0  0.64 0.72 0  0.68 0.72 0  0.72 0.72 0  0.76 0.72 0  0.8 0.72 0  0.84 0.72 0  0.88 0.72 0  0.92 0.72 0  0.96 0.72 0  1 0.72 0  0 0.76 0  0.04 0.76 0  0.08 0.76 0  0.12 0.76 0  0.16 0.76 0  0.2 0.76 0  0.24 0.76 0  0.28 0.76 0  0.32 0.76 0  0.36 0.76 0  0.4 0.76 0  0.44 0.76 0  0.48 0.76 0  0.52 0.76 0  0.5600000000000001 0.76 0  0.6 0.76 0  0.64 0.76 0  0.68 0.76 0  0.72 0.76 0  0.76 0.76 0  0.8 0.76 0  0.84 0.76 0  0.88 0.76 0  0.92 0.76 0  0.96 0.76 0  1 0.76 0  0 0.8 0  0.04 0.8 0  0.08 0.8 0  0.12 0.8 0  0.16 0.8 0  0.2 0.8 0  0.24 0.8 0  0.28 0.8 0  0.32 0.8 0  0.36 0.8 0  0.4 0.8 0  0.44 0.8 0  0.48 0.8 0  0.52 0.8 0  0.5600000000000001 0.8 0  0.6 0.8 0  0.64 0.8 0  0.68 0.8 0  0.72 0.8 0  0.76 0.8 0  0.8 0.8 0  0.84 0.8 0  0.88 0.8 0  0.92 0.8 0  0.96 0.8 0  1 0.8 0  0 0.84 0  0.04 0.84 0  0.08 0.84 0  0.12 0.84 0  0.16 0.84 0  0.2 0.84 0  0.24 0.84 0  0.28 0.84 0  0.32 0.84 0  0.36 0.84 0  0.4 0.84 0  0.44 0.84 0  0.48 0.84 0  0.52 0.84 0  0.5600000000000001 0.84 0  0.6 0.84 0  0.64 0.84 0  0.68 0.84 0  0.72 0.84 0  0.76 0.84 0  0.8 0.84 0  0.84 0.84 0  0.88 0.84 0  0.92 0.84 0  0.96 0.84 0  1 0.84 0  0 0.88 0  0.04 0.88 0  0.08 0.88 0  0.12 0.88 0  0.16 0.88 0  0.2 0.88 0  0.24 0.88 0  0.28 0.88 0  0.32 0.88 0  0.36 0.88 0  0.4 0.88 0  0.44 0.88 0  0.48 0.88 0  0.52 0.88 0  0.5600000000000001 0.88 0  0.6 0.88 0  0.64 0.88 0  0.68 0.88 0  0.72 0.88 0  0.76 0.88 0  0.8 0.88 0  0.84 0.88 0  0.88 0.88 0  0.92 0.88 0  0.96 0.88 0  1 0.88 0  0 0.92 0  0.04 0.92 0  0.08 0.92 0  0.12 0.92 0  0.16 0.92 0  0.2 0.92 0  0.24 0.92 0  0.28 0.92 0  0.32 0.92 0  0.36 0.92 0  0.4 0.92 0  0.44 0.92 0  0.48 0.92 0  0.52 0.92 0  0.5600000000000001 0.92 0  0.6 0.92 0  0.64 0.92 0  0.68 0.92 0  0.72 0.92 0  0.76 0.92 0  0.8 0.92 0  0.84 0.92 0  0.88 0.92 0  0.92 0.92 0  0.96 0.92 0  1 0.92 0  0 0.96 0  0.04 0.96 0  0.08 0.96 0  0.12 0.96 0  0.16 0.96 0  0.2 0.96 0  0.24 0.96 0  0.28 0.96 0  0.32 0.96 0  0.36 0.96 0  0.4 0.96 0  0.44 0.96 0  0.48 0.96 0  0.52 0.96 0  0.5600000000000001 0.96 0  0.6 0.96 0  0.64 0.96 0  0.68 0.96 0  0.72 0.96 0  0.76 0.96 0  0.8 0.96 0  0.84 0.96 0  0.88 0.96 0  0.92 0.96 0  0.96 0.96 0  1 0.96 0  0 1 0  0.04 1 0  0.08 1 0  0.12 1 0  0.16 1 0  0.2 1 0  0.24 1 0  0.28 1 0  0.32 1 0  0.36 1 0  0.4 1 0  0.44 1 0  0.48 1 0  0.52 1 0  0.5600000000000001 1 0  0.6 1 0  0.64 1 0  0.68 1 0  0.72 1 0  0.76 1 0  0.8 1 0  0.84 1 0  0.88 1 0  0.92 1 0  0.96 1 0  1 1 0  </DataArray>
</Points>
<Cells>
[...]
<PointData  Scalars="Indicator Function"> 
<DataArray  type="Float64"  Name="Indicator Function"  format="ascii">-3.2933545440454014e-20  -8.6413123300591565e-19  1.6790709066293049e-17  1.5978685972568179e-17  -3.6228648777599508e-19  -1.2592198457895918e-19  -6.8949188975994084e-20  -5.7876184702603962e-19  -8.9915491726682949e-18  -5.4739868603123492e-19  5.0985296867507886e-17  8.2072312126171508e-18  6.4578968562727880e-35  -3.4442116566788203e-34  2.6404153491929651e-17  -1.3453951783901642e-36  2.1526322854242627e-35  1.4938105297021505e-18  -5.3815807135606567e-36  -8.0723710703409850e-36  1.2854252870931495e-18  -2.0398592807475945e-21  -7.2882020958586856e-21  9.3128737461185117e-19  -2.0233152602467639e-21  -2.6907903567803283e-36  -2.0582414846507823e-21  5.9327801189447220e-04  3.5196467071628144e-03  1.5214239857735836e-02  4.7481014556664022e-04  4.5368176226204312e-03  2.4841563342381133e-03  1.2893836282414946e-02  8.3248093866796890e-03  1.5810851042884606e-02  1.9556325522911283e-03  1.5251102138709161e-02  8.1868496950388663e-03  1.9724930830557251e-03  1.5789575750132232e-03  1.4930629316645047e-03  9.4186017655347181e-04  7.1680289305042907e-04  3.3893537840592547e-04  2.0591419919653811e-04  8.2190243847728533e-05  1.0836618194350498e-04  1.5254134609038266e-04  5.5021903927248415e-05  7.2897614816802805e-05  2.0233152602467669e-21  -2.5873091620868354e-19  3.7077982333245188e-05  4.8640543097746735e-05  4.2197137771347636e-03  2.4451434539748042e-02  5.0465072795766557e-03  2.6815688417380950e-02  2.5304309593953231e-02  4.8111023914052670e-02  1.7174109718597931e-03  2.3164134318999489e-02  1.0855203640500778e-02  3.1709560654258430e-02  5.4827115047062838e-04  4.5993900229435343e-03  4.3542356208616448e-03  3.0555653978847777e-03  2.0189188047369916e-03  1.2459987908623315e-03  5.8114251720093593e-04  5.3156130340249405e-04  3.9526120495773990e-04  2.8819681996590323e-04  3.3225169748130545e-04  2.0456848016935341e-05  -4.8616484890289899e-20  -9.5362226958630821e-20  4.6608818313066177e-03  6.4746704611617200e-03  7.3987892768546063e-03  4.0362510797384697e-02  3.4406659813267953e-03  8.9093521697862690e-03  1.6130817852181678e-04  2.7598520616448480e-02  2.6919673332679320e-02  4.3628099220432544e-02  1.0485085826780526e-02  4.7244122278798775e-02  2.9089783005073616e-02  9.8220162036903019e-03  1.0302487043376801e-02  8.3515842738359561e-03  4.7022328636212628e-03  2.9844503173977175e-03  1.5325839767413570e-03  8.3641348202255440e-04  6.1398604918760664e-04  6.0083921151117092e-04  5.4708611824091263e-04  3.1972518544102840e-04  -4.4370782803647156e-20  -4.6096210460746055e-19  3.9033434852291677e-03  3.7756632440850875e-03  2.2054061041346909e-03  3.8281218779988546e-04  5.7940070973728552e-02  5.9112688523414022e-03  6.6184387351228072e-02  4.7500685127306361e-02  1.2279885152521292e-01  2.0989314793125231e-02  7.2736493657008197e-02  4.9834136741808831e-02  1.0090748464598723e-01  2.8844490194231239e-02  2.3564594442564639e-02  1.9996824318876335e-02  1.3201030893517202e-02  7.0997826612773677e-03  3.6646095802130574e-03  1.5382517687080022e-03  9.4136659714231337e-04  5.9205181002679620e-04  4.5167794616369361e-04  5.3271321755431981e-04  1.3307185792146495e-19  -1.0763161427121314e-34  9.6722192718964577e-03  8.2730198249184247e-03  5.2764206939855153e-03  6.5024963473057562e-03  7.9497843917381378e-02  2.6016592511473074e-02  2.0763712961886682e-02  1.9718002475064413e-02  9.4964967157635055e-02  1.0834105272430944e-01  1.8517211772629988e-01  1.0214299143930532e-01  1.6349893005428331e-01  1.1623825477989115e-01  6.4049133610732223e-02  4.5414277415054237e-02  3.0196623919043798e-02  1.5664782710899577e-02  7.8969298746520197e-03  3.4935936078032987e-03  1.4280840019404203e-03  7.1203615111161106e-04  4.2233062798709988e-04  2.8938754281669670e-04  -1.6064235653739720e-20  -7.8032920346629528e-35  1.4182671373834986e-02  9.2630979019676929e-03  7.9250774693454401e-03  6.0772599534296484e-03  3.0634532719032690e-02  1.7424471373260825e-01  2.2151097835768959e-02  1.9734646793958410e-01  1.5857690428451896e-02  3.6583703395234435e-01  1.2113179494726901e-01  2.1155545060543809e-01  2.2221761895071465e-01  2.7598252569424309e-01  1.2159493191866703e-01  6.6123750368641196e-02  4.7570529012723843e-02  3.1900047457831718e-02  1.6877097316833848e-02  7.7338991924762327e-03  2.9759038515322928e-03  1.2657262068221304e-03  4.9428811899113081e-04  8.7855243504890871e-05  -4.8769457086589648e-21  -6.6486832644317147e-22  9.7556341528868499e-03  3.5874715883666111e-03  2.1214371228517156e-02  3.7417100450888759e-02  3.0189708579338250e-02  1.3781098591398491e-01  1.2433074504415451e-03  1.7169826564556820e-01  1.2875676772300665e-01  6.8823445671832392e-02  3.6340540734433199e-02  4.0244843799443064e-01  4.0153404471806910e-03  3.8662032526984175e-01  4.9938407885175629e-01  7.0235923426934174e-03  4.9153428929654484e-02  5.6281060150474647e-02  3.3757758775569253e-02  1.6365890573656453e-02  6.7090530321020471e-03  2.6230647352476618e-03  9.3053147634329484e-04  2.9388268002985375e-04  -4.7088831243655748e-35  -2.1526322854242629e-34  1.8428140378066678e-02  1.7197456236562984e-02  5.5482171965568232e-03  1.4720975259279451e-02  5.6441748344604629e-02  9.2821051182070360e-02  1.4294402932975123e-01  2.0161726090956877e-01  3.0458884001019987e-01  1.1262015763245306e-01  1.9248890485570047e-01  3.5209012550925997e-02  1.2345524534735290e-01  1.0750716528552829e-02  8.4690114243012898e-02  7.2740805250994189e-02  1.7071734593263752e-02  7.4568886996053241e-02  5.2786293729975134e-02  2.9677825819893363e-02  1.3231991352576220e-02  5.0790537493546504e-03  2.2135862875461909e-03  7.1657494486007667e-04  6.4578968562727880e-35  -1.0900775600438038e-19  2.8718841907907819e-03  1.3540388502977015e-02  3.9201401262896438e-02  8.5911412105808924e-02  7.5621266909028387e-02  4.4521638935621624e-02  2.2379153799550433e-01  4.4184274693546038e-01  8.4756381133296602e-02  4.1273780206592350e-02  8.4590053346231420e-03  1.1168978941293806e-01  1.0083566457863923e-01  5.8281817275086190e-02  5.3993684311816753e-02  1.1400616443660799e-01  7.3334156823789964e-02  2.4412661646639841e-02  6.2141746138121672e-02  4.1691157341584704e-02  2.2015730980223944e-02  8.7782013895453381e-03  3.3401916842731700e-03  1.2567199434072528e-03  8.6105291416970507e-35  3.0136851995939680e-34  3.0366819747783863e-03  4.6627054280833002e-03  3.7907194193749836e-03  2.9577039994366231e-02  1.2314089730581013e-01  3.8044936387760159e-01  1.1683842628655287e-01  1.5257341232673155e-01  4.4480525054711048e-02  5.5352259454610163e-02  1.7971739155113478e-02  8.4791982622463125e-02  7.6689871722947389e-02  9.5438437081187599e-02  5.3957264104413732e-02  1.3679351849931834e-01  1.1598094803381262e-01  6.8023823047058937e-02  4.9944001815568725e-02  4.1684980087718794e-02  2.7696207860316503e-02  1.3774097699769077e-02  5.0650461938223741e-03  1.7599634037063934e-03  4.3590803779841319e-34  3.2289484281363940e-35  3.5217987909790457e-03  3.0732909162311232e-04  2.4353587534130687e-02  5.0429695645937703e-02  1.0395923979280003e-01  7.1022050148561000e-02  4.8863862742301073e-01  6.1830604600867319e-02  1.8296233160613448e-02  2.5575890090480568e-02  2.4467908444429559e-02  1.9827572929474159e-02  1.0574922221694347e-01  9.7318247380793269e-02  3.1546451091277815e-02  8.3753997650005102e-02  2.5843675140338651e-01  2.7371364018720928e-01  4.3847976061233473e-02  1.3801865132174481e-02  2.2989005991372657e-02  1.7008099089799170e-02  7.6989641161034133e-03  2.6751958146648555e-03  -6.0273703991879359e-34  -2.7192304116563313e-19  1.1521873830903398e-02  9.1790711886555673e-03  8.1697754070898382e-03  3.6263329222638759e-02  1.2834849021765943e-01  1.7553368120231819e-01  3.2354445508757178e-02  1.5716685615652656e-01  6.1409743987272759e-02  1.3518468497022819e-02  4.0948333781722981e-02  1.8546110747755834e-02  8.6784069014021289e-02  7.8842236015043754e-02  1.2153968205675755e-01  5.7909399294855474e-02  1.7284935025248299e-01  1.9714944961273942e-01  4.8146523127053314e-01  3.6891887943958014e-02  2.9967429562808958e-03  1.4400707863579965e-02  9.8823630572055961e-03  3.8685401033103774e-03  8.6105291416970507e-35  -1.1839477569833444e-34  4.8985300274679905e-03  1.5546137960497183e-02  3.1930563213419014e-02  6.6112714610758322e-02  9.5693309651581335e-02  1.3679452128505012e-01  2.5740233454888750e-01  8.0666893061704784e-02  9.6807702724622274e-02  3.4204072156581750e-02  8.7226518058886402e-03  1.6670049532816901e-02  2.1813926464551797e-02  1.1805200736336779e-01  1.0708519282382691e-01  3.4710284686067781e-03  2.2961450841043757e-01  4.9372167295540176e-01  3.6366577235297265e-02  6.5512481012256693e-02  4.0158449994127300e-02  2.4067152728369169e-03  9.6820033007380506e-03  4.9610917059036896e-03  8.6105291416970507e-35  -2.0242297454336092e-20  1.2192186876206895e-03  5.3785403586968364e-03  1.3147232790672930e-02  4.7605944730488348e-02  1.3594422581423346e-01  2.0662566212760244e-01  1.3186936452363685e-01  1.1171340163547758e-01  1.3433500384322986e-01  6.5797553342620704e-02  6.3409993535002526e-02  1.6306475735332591e-02  2.9158107067520675e-03  1.2015299066703462e-01  2.9193681376543289e-02  1.1044786237811710e-01  5.8432152508432207e-02  2.4914829929742391e-01  7.7941545409928592e-01  7.9703328176308430e-02  2.2780316404021398e-02  3.1838820876992767e-02  5.1496265698767829e-03  5.4586321154535865e-03  5.5107386506861124e-33  -4.8774678373350484e-20  7.9746257442517201e-03  7.4107638971324047e-03  1.7928921237773555e-02  3.0769053798194456e-02  5.8981810629180918e-02  8.3997448477356379e-02  2.8380625648941732e-01  1.3270101222718117e-01  9.6407442195243262e-02  1.2495150490371899e-01  7.4639424187601944e-02  8.6777728844563931e-02  2.4259214983998328e-02  4.9086043295121879e-03  3.1601761769921510e-01  2.3679612593983962e-01  1.4491344962626085e-01  1.2407392648920913e-01  9.4993772166122401e-03  1.2066671545458492e-01  3.0085717662950841e-02  3.8110790036470048e-02  2.0944720294805479e-02  5.4508840499919156e-03  2.1526322854242627e-35  -5.3815807135606567e-36  8.7864649338934714e-04  7.4406511854514280e-03  1.5247978475779871e-02  3.6633085936084837e-02  7.2820697296259534e-02  1.0031517816397278e-01  5.2510661449715716e-03  1.9118213161635766e-01  5.6855989562761659e-02  1.9522782164583585e-01  6.1180654160242744e-02  1.3901005285174464e-01  9.0951883325216740e-03  7.2769466157297583e-02  2.2982139700688634e-01  1.0514697827655178e-01  5.6029466900442593e-01  3.8458556292496926e-01  1.9038828245690306e-01  6.6318417731978552e-02  4.3898183165123221e-02  1.1868500447407565e-02  2.7002895359126321e-02  9.4956202264997406e-03  6.8884233133576405e-34  1.3453951783901643e-35  2.5320532545912802e-04  3.1900216488738352e-03  5.5884850029479056e-03  1.9321235120260270e-02  4.6390266447423979e-02  9.0925195805085249e-02  1.3770117261738241e-01  5.6328169361395310e-03  2.2600988007591113e-01  2.3707931612543362e-01  2.7845402720891976e-01  1.6693889972708742e-01  1.5071131568145230e-01  5.3277256484172003e-02  1.8549573785010362e-01  5.1745604173414017e-01  1.4060948143560872e-01  1.0869995336501925e-01  5.6954669147804900e-02  6.7084167493549174e-02  6.0415111958796917e-02  3.4919044441661148e-02  1.9233296201979139e-02  1.1760200235084959e-02  -2.4109481596751743e-32  -2.0929371451571611e-20  1.3148275773558656e-03  2.1726922712438462e-04  6.7351777413657294e-03  9.6592011959293622e-03  2.5031797240440870e-02  4.4787149826117041e-02  6.1381394468474848e-02  6.9278098946954289e-02  2.8111778986188601e-01  8.7079305198850238e-02  3.4912963579365625e-01  1.7542746465136586e-01  5.4825871697653727e-01  2.0707351878240493e-01  8.6392540540536883e-02  7.2494964455361177e-01  2.4377944170676119e-01  1.2511445147352188e-01  4.1406667034968939e-02  3.3478446065309996e-02  4.8188715653701669e-02  4.7032035939069683e-02  2.2093175595614994e-02  7.9113377025837421e-03  2.0665269940072922e-33  -3.9761254732255662e-20  1.2581859185895267e-03  1.6372800548763000e-03  2.7917092090193316e-03  8.1172191733299287e-03  1.6285987440856509e-02  3.1955969764904849e-02  4.4154329425724254e-02  3.9186665082657834e-02  6.7975137585280607e-02  1.6343701787976561e-02  4.4145605379732583e-02  5.3552324397359496e-01  3.0580218001989769e-02  6.2797960307483425e-01  4.7007369123008858e-01  7.5524311214270612e-02  9.0697523865022792e-02  8.0197282283765117e-02  7.6889744321764084e-02  2.5359079889738630e-02  4.6358334526582674e-02  3.9762791548015548e-02  3.5857637020586024e-02  3.1677385726777401e-03  -1.7584481496900241e-19  -5.1213602497966473e-20  1.1801609747214405e-03  2.1817385538564229e-03  1.3674282746544923e-03  6.3674986684446825e-03  9.2657154616899891e-03  2.0893332367088343e-02  3.3463561298261849e-02  3.8887080055967985e-02  1.7473827944393762e-02  1.9788799315231843e-02  2.4646374265250914e-02  1.4739290253231396e-01  3.0252480174077102e-02  1.3139152147856120e-01  2.1184094027160018e-02  1.1251573877543151e-01  2.8504087341553085e-02  6.5212710145300001e-02  6.6645743243411243e-02  4.3375506808888201e-02  3.0144885066036867e-02  2.8853157888335441e-02  2.4228053886958156e-02  1.7678698530745548e-02  -4.4774751536824665e-33  -2.6806727345196673e-20  9.2258224450457102e-04  1.6567294511901452e-03  2.7030904245577531e-03  2.5548313133038169e-03  7.9293059988368511e-03  1.1986120557681362e-02  2.2650533480672801e-02  3.0877675671240952e-02  3.3864654058004984e-02  2.2680309491561593e-02  3.4177320151876932e-02  2.8403469096977177e-02  7.8879211682534867e-02  2.3049283573879645e-02  7.2780624356595242e-02  2.7852788158663214e-02  2.6923517922232531e-02  1.3481554565768937e-03  5.8322560486325857e-02  4.7753639147675435e-02  2.0404538657536851e-02  2.3836475890148187e-02  1.1684825690865638e-02  6.4066737651799948e-03  0.0000000000000000e+00  -3.9663943571513630e-21  4.8290706913140115e-04  1.0531087042433139e-03  1.6499593059608024e-03  2.0309543833108195e-03  4.9439445699993676e-03  8.0070641974702341e-03  1.5170906153749985e-02  2.3396271178817978e-02  2.8870080722002551e-02  1.8966344485171618e-02  2.0708606050379427e-02  3.2471925334388460e-02  1.9592663705426439e-02  2.4105536166058560e-03  1.1515676573278240e-02  2.0245297803647359e-02  1.8437546768506941e-02  2.3341608355365931e-03  4.2485994130331620e-02  3.4617743399585607e-02  2.8598737274907419e-02  1.2337673719083377e-03  6.5351070633607386e-03  4.2224242501511427e-03  0.0000000000000000e+00  -4.7270444535518798e-21  7.1452208595485428e-05  4.3074602143701706e-04  8.0709793778343283e-04  1.4884799541958406e-03  1.5425899401860161e-03  5.4047897733736925e-03  8.1025085842139667e-03  1.6092394647000088e-02  2.4751436432251684e-02  3.4792040920880368e-02  6.1375865209495140e-03  1.1671779323405070e-02  2.2370242076448832e-02  2.4667711496825999e-02  2.6070964036282139e-02  1.2059367608436946e-03  1.3192604914689137e-04  8.7876909754356618e-03  3.2444297925893553e-03  1.9263782084240105e-02  1.4363900622689602e-02  1.5291224295456552e-02  4.5937933778520904e-03  9.8740700578408029e-04  2.7406049812398563e-20  -7.5678478784446739e-37  1.0568967515897663e-04  2.0548526921392024e-04  3.5451676303620457e-04  5.5618168733403452e-04  9.9445925358457939e-04  1.9261102085600965e-03  3.6843482947719352e-03  6.9713657305555095e-03  1.2438843521501203e-02  2.2022271590966754e-02  2.6834483861114602e-02  7.1550608013221783e-03  5.2483941097269280e-03  1.1678750717396127e-02  7.3334985784919583e-03  2.2239130514752896e-02  9.2709805331293270e-03  2.5234411146861672e-03  6.4629592135723992e-03  2.0792491450931142e-03  4.2535399192754090e-03  1.0749419008328411e-03  6.0826785562952514e-03  9.7059525675728779e-03  -5.3878860082195217e-19  -4.2043599324692634e-37  2.9334777706662022e-21  5.1330257348083725e-20  -4.9199084117296866e-20  5.6109570757788082e-20  3.4980274638144270e-35  -1.0692059507544904e-19  -1.6144742140681970e-35  1.4637899540884987e-33  3.8747381137636730e-34  -1.8622695500417724e-18  7.4480654591350541e-19  -3.9718566221103602e-19  8.2661079760291687e-33  1.3118501026982278e-17  -4.0709094864488260e-19  -1.2345197372561283e-18  2.5732140121818901e-19  -1.4007912134052129e-19  1.3776846626715281e-33  2.2050237404023117e-17  -2.3611889772708958e-19  2.7553693253430562e-33  -2.6176008590759036e-32  -5.3878860082195150e-19  6.0659738583194323e-18  </DataArray> 
</PointData> 
</Piece>
</UnstructuredGrid>
</VTKFile>