<?xml version="1.0"?>
<VTKFile type="UnstructuredGrid"  version="0.1"  >
<UnstructuredGrid>
<Piece  NumberOfPoints="676" NumberOfCells="1250">
<Points>
<DataArray  type="Float64"  NumberOfComponents="3"  format="ascii">0 0 0  0.04 0 0  0.08 0 0  0.12 0 0  0.16 0 0  0.2 0 0  0.24 0 0  0.28 0 0  0.32 0 0  0.36 0 0  0.4 0 0  0.44 0 0  0.48 0 0  0.52 0 0  0.5600000000000001 0 0  0.6 0 0  0.64 0 0  0.68 0 0  0.72 0 0  0.76 0 0  0.8 0 0  0.84 0 0  0.88 0 0  0.92 0 0  0.96 0 0  1 0 0  0 0.04 0  0.04 0.04 0  0.08 0.04 0  0.12 0.04 0  0.16 0.04 0  0.2 0.04 0  0.24 0.04 0  0.28 0.04 0  0.32 0.04 0  0.36 0.04 0  0.4 0.04 0  0.44 0.04 0  0.48 0.04 0  0.52 0.04 0  0.5600000000000001 0.04 0  0.6 0.04 0  0.64 0.04 0  0.68 0.04 0  0.72 0.04 0  0.76 0.04 0  0.8 0.04 0  0.84 0.04 0  0.88 0.04 0  0.92 0.04 0  0.96 0.04 0  1 0.04 0  0 0.08 0  0.04 0.08 0  0.08 0.08 0  0.12 0.08 0  0.16 0.08 0  0.2 0.08 0  0.24 0.08 0  0.28 0.08 0  0.32 0.08 0  0.36 0.08 0  0.4 0.08 0  0.44 0.08 0  0.48 0.08 0  0.52 0.08 0  0.5600000000000001 0.08 0  0.6 0.08 0  0.64 0.08 0  0.68 0.08 0  0.72 0.08 0  0.76 0.08 0  0.8 0.08 0  0.84 0.08 0  0.88 0.08 0  0.92 0.08 0  0.96 0.08 0  1 0.08 0  0 0.12 0  0.04 0.12 0  0.08 0.12 0  0.12 0.12 0  0.16 0.12 0  0.2 0.12 0  0.24 0.12 0  0.28 0.12 0  0.32 0.12 0  0.36 0.12 0  0.4 0.12 0  0.44 0.12 0  0.48 0.12 0  0.52 0.12 0  0.5600000000000001 0.12 0  0.6 0.12 0  0.64 0.12 0  0.68 0.12 0  0.72 0.12 0  0.76 0.12 0  0.8 0.12 0  0.84 0.12 0  0.88 0.12 0  0.92 0.12 0  0.96 0.12 0  1 0.12 0  0 0.16 0  0.04 0.16 0  0.08 0.16 0  0.12 0.16 0  0.16 0.16 0  0.2 0.16 0  0.24 0.16 0  0.28 0.16 0  0.32 0.16 0  0.36 0.16 0  0.4 0.16 0  0.44 0.16 0  0.48 0.16 0  0.52 0.16 0  0.5600000000000001 0.16 0  0.6 0.16 0  0.64 0.16 0  0.68 0.16 0  0.72 0.16 0  0.76 0.16 0  0.8 0.16 0  0.84 0.16 0  0.88 0.16 0  0.92 0.16 0  0.96 0.16 0  1 0.16 0  0 0.2 0  0.04 0.2 0  0.08 0.2 0  0.12 0.2 0  0.16 0.2 0  0.2 0.2 0  0.24 0.2 0  0.28 0.2 0  0.32 0.2 0  0.36 0.2 0  0.4 0.2 0  0.44 0.2 0  0.48 0.2 0  0.52 0.2 0  0.5600000000000001 0.2 0  0.6 0.2 0  0.64 0.2 0  0.68 0.2 0  0.72 0.2 0  0.76 0.2 0  0.8 0.2 0  0.84 0.2 0  0.88 0.2 0  0.92 0.2 0  0.96 0.2 0  1 0.2 0  0 0.24 0  0.04 0.24 0  0.08 0.24 0  0.12 0.24 0  0.16 0.24 0  0.2 0.24 0  0.24 0.24 0  0.28 0.24 0  0.32 0.24 0  0.36 0.24 0  0.4 0.24 0  0.44 0.24 0  0.48 0.24 0  0.52 0.24 0  0.5600000000000001 0.24 0  0.6 0.24 0  0.64 0.24 0  0.68 0.24 0  0.72 0.24 0  0.76 0.24 0  0.8 0.24 0  0.84 0.24 0  0.88 0.24 0  0.92 0.24 0  0.96 0.24 0  1 0.24 0  0 0.28 0  0.04 0.28 0  0.08 0.28 0  0.12 0.28 0  0.16 0.28 0  0.2 0.28 0  0.24 0.28 0  0.28 0.28 0  0.32 0.28 0  0.36 0.28 0  0.4 0.28 0  0.44 0.28 0  0.48 0.28 0  0.52 0.28 0  0.5600000000000001 0.28 0  0.6 0.28 0  0.64 0.28 0  0.68 0.28 0  0.72 0.28 0  0.76 0.28 0  0.8 0.28 0  0.84 0.28 0  0.88 0.28 0  0.92 0.28 0  0.96 0.28 0  1 0.28 0  0 0.32 0  0.04 0.32 0  0.08 0.32 0  0.12 0.32 0  0.16 0.32 0  0.2 0.32 0  0.24 0.32 0  0.28 0.32 0  0.32 0.32 0  0.36 0.32 0  0.4 0.32 0  0.44 0.32 0  0.48 0.32 0  0.52 0.32 0  0.5600000000000001 0.32 0  0.6 0.32 0  0.64 0.32 0  0.68 0.32 0  0.72 0.32 0  0.76 0.32 0  0.8 0.32 0  0.84 0.32 0  0.88 0.32 0  0.92 0.32 0  0.96 0.32 0  1 0.32 0  0 0.36 0  0.04 0.36 0  0.08 0.36 0  0.12 0.36 0  0.16 0.36 0  0.2 0.36 0  0.24 0.36 0  0.28 0.36 0  0.32 0.36 0  0.36 0.36 0  0.4 0.36 0  0.44 0.36 0  0.48 0.36 0  0.52 0.36 0  0.5600000000000001 0.36 0  0.6 0.36 0  0.64 0.36 0  0.68 0.36 0  0.72 0.36 0  0.76 0.36 0  0.8 0.36 0  0.84 0.36 0  0.88 0.36 0  0.92 0.36 0  0.96 0.36 0  1 0.36 0  0 0.4 0  0.04 0.4 0  0.08 0.4 0  0.12 0.4 0  0.16 0.4 0  0.2 0.4 0  0.24 0.4 0  0.28 0.4 0  0.32 0.4 0  0.36 0.4 0  0.4 0.4 0  0.44 0.4 0  0.48 0.4 0  0.52 0.4 0  0.5600000000000001 0.4 0  0.6 0.4 0  0.64 0.4 0  0.68 0.4 0  0.72 0.4 0  0.76 0.4 0  0.8 0.4 0  0.84 0.4 0  0.88 0.4 0  0.92 0.4 0  0.96 0.4 0  1 0.4 0  0 0.44 0  0.04 0.44 0  0.08 0.44 0  0.12 0.44 0  0.16 0.44 0  0.2 0.44 0  0.24 0.44 0  0.28 0.44 0  0.32 0.44 0  0.36 0.44 0  0.4 0.44 0  0.44 0.44 0  0.48 0.44 0  0.52 0.44 0  0.5600000000000001 0.44 0  0.6 0.44 0  0.64 0.44 0  0.68 0.44 0  0.72 0.44 0  0.76 0.44 0  0.8 0.44 0  0.84 0.44 0  0.88 0.44 0  0.92 0.44 0  0.96 0.44 0  1 0.44 0  0 0.48 0  0.04 0.48 0  0.08 0.48 0  0.12 0.48 0  0.16 0.48 0  0.2 0.48 0  0.24 0.48 0  0.28 0.48 0  0.32 0.48 0  0.36 0.48 0  0.4 0.48 0  0.44 0.48 0  0.48 0.48 0  0.52 0.48 0  0.5600000000000001 0.48 0  0.6 0.48 0  0.64 0.48 0  0.68 0.48 0  0.72 0.48 0  0.76 0.48 0  0.8 0.48 0  0.84 0.48 0  0.88 0.48 0  0.92 0.48 0  0.96 0.48 0  1 0.48 0  0 0.52 0  0.04 0.52 0  0.08 0.52 0  0.12 0.52 0  0.16 0.52 0  0.2 0.52 0  0.24 0.52 0  0.28 0.52 0  0.32 0.52 0  0.36 0.52 0  0.4 0.52 0  0.44 0.52 0  0.48 0.52 0  0.52 0.52 0  0.5600000000000001 0.52 0  0.6 0.52 0  0.64 0.52 0  0.68 0.52 0  0.72 0.52 0  0.76 0.52 0  0.8 0.52 0  0.84 0.52 0  0.88 0.52 0  0.92 0.52 0  0.96 0.52 0  1 0.52 0  0 0.5600000000000001 0  0.04 0.5600000000000001 0  0.08 0.5600000000000001 0  0.12 0.5600000000000001 0  0.16 0.5600000000000001 0  0.2 0.5600000000000001 0  0.24 0.5600000000000001 0  0.28 0.5600000000000001 0  0.32 0.5600000000000001 0  0.36 0.5600000000000001 0  0.4 0.5600000000000001 0  0.44 0.5600000000000001 0  0.48 0.5600000000000001 0  0.52 0.5600000000000001 0  0.5600000000000001 0.5600000000000001 0  0.6 0.5600000000000001 0  0.64 0.5600000000000001 0  0.68 0.5600000000000001 0  0.72 0.5600000000000001 0  0.76 0.5600000000000001 0  0.8 0.5600000000000001 0  0.84 0.5600000000000001 0  0.88 0.5600000000000001 0  0.92 0.5600000000000001 0  0.96 0.5600000000000001 0  1 0.5600000000000001 0  0 0.6 0  0.04 0.6 0  0.08 0.6 0  0.12 0.6 0  0.16 0.6 0  0.2 0.6 0  0.24 0.6 0  0.28 0.6 0  0.32 0.6 0  0.36 0.6 0  0.4 0.6 0  0.44 0.6 0  0.48 0.6 0  0.52 0.6 0  0.5600000000000001 0.6 0  0.6 0.6 0  0.64 0.6 0  0.68 0.6 0  0.72 0.6 0  0.76 0.6 0  0.8 0.6 0  0.84 0.6 0  0.88 0.6 0  0.92 0.6 0  0.96 0.6 0  1 0.6 0  0 0.64 0  0.04 0.64 0  0.08 0.64 0  0.12 0.64 0  0.16 0.64 0  0.2 0.64 0  0.24 0.64 0  0.28 0.64 0  0.32 0.64 0  0.36 0.64 0  0.4 0.64 0  0.44 0.64 0  0.48 0.64 0  0.52 0.64 0  0.5600000000000001 0.64 0  0.6 0.64 0  0.64 0.64 0  0.68 0.64 0  0.72 0.64 0  0.76 0.64 0  0.8 0.64 0  0.84 0.64 0  0.88 0.64 0  0.92 0.64 0  0.96 0.64 0  1 0.64 0  0 0.68 0  0.04 0.68 0  0.08 0.68 0  0.12 0.68 0  0.16 0.68 0  0.2 0.68 0  0.24 0.68 0  0.28 0.68 0  0.32 0.68 0  0.36 0.68 0  0.4 0.68 0  0.44 0.68 0  0.48 0.68 0  0.52 0.68 0  0.5600000000000001 0.68 0  0.6 0.68 0  0.64 0.68 0  0.68 0.68 0  0.72 0.68 0  0.76 0.68 0  0.8 0.68 0  0.84 0.68 0  0.88 0.68 0  0.92 0.68 0  0.96 0.68 0  1 0.68 0  0 0.72 0  0.04 0.72 0  0.08 0.72 0  0.12 0.72 0  0.16 0.72 0  0.2 0.72 0  0.24 0.72 0  0.28 0.72 0  0.32 0.72 0  0.36 0.72 0  0.4 0.72 0  0.44 0.72 0  0.48 0.72 0  0.52 0.72 0  0.5600000000000001 0.72 0  0.6 0.72 0  0.64 0.72 0  0.68 0.72 0  0.72 0.72 0  0.76 0.72 0  0.8 0.72 0  0.84 0.72 0  0.88 0.72 0  0.92 0.72 0  0.96 0.72 0  1 0.72 0  0 0.76 0  0.04 0.76 0  0.08 0.76 0  0.12 0.76 0  0.16 0.76 0  0.2 0.76 0  0.24 0.76 0  0.28 0.76 0  0.32 0.76 0  0.36 0.76 0  0.4 0.76 0  0.44 0.76 0  0.48 0.76 0  0.52 0.76 0  0.5600000000000001 0.76 0  0.6 0.76 0  0.64 0.76 0  0.68 0.76 0  0.72 0.76 0  0.76 0.76 0  0.8 0.76 0  0.84 0.76 0  0.88 0.76 0  0.92 0.76 0  0.96 0.76 0  1 0.76 0  0 0.8 0  0.04 0.8 0  0.08 0.8 0  0.12 0.8 0  0.16 0.8 0  0.2 0.8 0  0.24 0.8 0  0.28 0.8 0  0.32 0.8 0  0.36 0.8 0  0.4 0.8 0  0.44 0.8 0  0.48 0.8 0  0.52 0.8 0  0.5600000000000001 0.8 0  0.6 0.8 0  0.64 0.8 0  0.68 0.8 0  0.72 0.8 0  0.76 0.8 0  0.8 0.8 0  0.84 0.8 0  0.88 0.8 0  0.92 0.8 0  0.96 0.8 0  1 0.8 0  0 0.84 0  0.04 0.84 0  0.08 0.84 0  0.12 0.84 0  0.16 0.84 0  0.2 0.84 0  0.24 0.84 0  0.28 0.84 0  0.32 0.84 0  0.36 0.84 0  0.4 0.84 0  0.44 0.84 0  0.48 0.84 0  0.52 0.84 0  0.5600000000000001 0.84 0  0.6 0.84 0  0.64 0.84 0  0.68 0.84 0  0.72 0.84 0  0.76 0.84 0  0.8 0.84 0  0.84 0.84 0  0.88 0.84 0  0.92 0.84 0  0.96 0.84 0  1 0.84 0  0 0.88 0  0.04 0.88 0  0.08 0.88 0  0.12 0.88 0  0.16 0.88 0  0.2 0.88 0  0.24 0.88 0  0.28 0.88 0  0.32 0.88 0  0.36 0.88 0  0.4 0.88 0  0.44 0.88 0  0.48 0.88 0  0.52 0.88 0  0.5600000000000001 0.88 0  0.6 0.88 0  0.64 0.88 0  0.68 0.88 0  0.72 0.88 0  0.76 0.88 0  0.8 0.88 0  0.84 0.88 0  0.88 0.88 0  0.92 0.88 0  0.96 0.88 0  1 0.88 0  0 0.92 0  0.04 0.92 0  0.08 0.92 0  0.12 0.92 0  0.16 0.92 0  0.2 0.92 0  0.24 0.92 0  0.28 0.92 0  0.32 0.92 0  0.36 0.92 0  0.4 0.92 0  0.44 0.92 0  0.48 0.92 0  0.52 0.92 0  0.5600000000000001 0.92 0  0.6 0.92 0  0.64 0.92 0  0.68 0.92 0  0.72 0.92 0  0.76 0.92 0  0.8 0.92 0  0.84 0.92 0  0.88 0.92 0  0.92 0.92 0  0.96 0.92 0  1 0.92 0  0 0.96 0  0.04 0.96 0  0.08 0.96 0  0.12 0.96 0  0.16 0.96 0  0.2 0.96 0  0.24 0.96 0  0.28 0.96 0  0.32 0.96 0  0.36 0.96 0  0.4 0.96 0  0.44 0.96 0  0.48 0.96 0  0.52 0.96 0  0.5600000000000001 0.96 0  0.6 0.96 0  0.64 0.96 0  0.68 0.96 0  0.72 0.96 0  0.76 0.96 0  0.8 0.96 0  0.84 0.96 0  0.88 0.96 0  0.92 0.96 0  0.96 0.96 0  1 0.96 0  0 1 0  0.04 1 0  0.08 1 0  0.12 1 0  0.16 1 0  0.2 1 0  0.24 1 0  0.28 1 0  0.32 1 0  0.36 1 0  0.4 1 0  0.44 1 0  0.48 1 0  0.52 1 0  0.5600000000000001 1 0  0.6 1 0  0.64 1 0  0.68 1 0  0.72 1 0  0.76 1 0  0.8 1 0  0.84 1 0  0.88 1 0  0.92 1 0  0.96 1 0  1 1 0  </DataArray>
</Points>
<Cells>
[...]
<PointData  Scalars="Indicator Function"> 
<DataArray  type="Float64"  Name="Indicator Function"  format="ascii">-2.8211184386952977e-20  -8.7011305424218996e-19  1.6873015026088641e-17  1.5954216985604059e-17  -4.8496886701740663e-19  -1.2637608556216781e-19  -7.3907153836366594e-20  -9.2860889760439489e-19  -9.1754401370244569e-18  -5.3992359231447095e-19  5.1762096826833361e-17  8.1751165943552101e-18  7.3953722979204678e-35  -3.3279175340642104e-34  2.5615255049329193e-17  -6.9331615293004392e-36  1.8488430744801169e-35  4.4767115489250208e-18  6.9331615293004392e-36  0.0000000000000000e+00  4.1545889911901958e-19  -3.6784259289167763e-21  -9.3787362349276529e-21  3.8016111860957095e-19  -2.2734948455172725e-21  -2.3110538431001462e-36  -2.3916631557239423e-21  5.0820751797104723e-04  3.4188776585906328e-03  1.5144191070886298e-02  3.3883587901488692e-04  4.5531783347705608e-03  2.6627858438196370e-03  1.2958123993292591e-02  8.1213607955698420e-03  1.5747128137810193e-02  1.8528346877188214e-03  1.5157965813440311e-02  8.1273801721444151e-03  2.0591084720910759e-03  1.6787053596916753e-03  1.5203139228819229e-03  9.5722630290650840e-04  7.4428285993640992e-04  3.3888480581442416e-04  2.7212979200394894e-04  1.8605846333748645e-04  9.4235728409716463e-05  1.7016504399210058e-04  8.3869770055254445e-05  8.1911284312802545e-05  2.2734948455172886e-21  -2.6140957622346194e-19  4.3084373187654467e-05  1.4982139766918303e-04  4.4349895597525207e-03  2.4239815482541293e-02  4.8915732709103850e-03  2.6648821696738333e-02  2.5310058906729768e-02  4.8057931821274970e-02  1.3590798032852836e-03  2.2939746732849639e-02  1.0957520860438509e-02  3.1506784230218708e-02  4.2618843934066729e-04  4.8015252715416321e-03  4.4835997326095134e-03  3.1072756898380119e-03  2.0800482026587970e-03  1.1859866770079829e-03  6.4718685226486427e-04  5.5293402943178648e-04  3.5570097488850827e-04  4.1099138164993554e-04  3.4473548306214143e-04  3.7288960483743314e-05  -5.4362064034720594e-20  -9.2890117986000931e-20  4.7091362802842507e-03  6.4306442888947659e-03  7.2866010406284409e-03  4.0401189599830405e-02  3.7343778280132041e-03  9.0542882354564466e-03  1.8272070494347429e-04  2.7778814180485011e-02  2.6682356152056465e-02  4.3483365341750381e-02  1.0302092107265659e-02  4.7330302040472269e-02  2.9108566692573969e-02  9.8940407324634196e-03  1.0610710485061244e-02  8.5086869221629655e-03  4.8012560406992576e-03  3.0951975862191774e-03  1.4549590444500986e-03  1.0062833609185710e-03  6.6628828970640764e-04  4.0078607579541344e-04  6.0041569379256103e-04  4.1011479367820101e-04  -5.6914860835116804e-20  -4.6527782839251418e-19  3.9731653630924102e-03  3.7705839064007853e-03  2.0836339548687510e-03  1.4780505211313367e-04  5.7856681235960036e-02  5.6539232672356598e-03  6.6180656267915583e-02  4.7598638125588524e-02  1.2295390854698636e-01  2.0661943045235238e-02  7.2723840229625025e-02  5.0177471226293471e-02  1.0115524712364890e-01  2.9128444836171288e-02  2.3983757157172825e-02  2.0399271893055782e-02  1.3445032425375059e-02  7.3152664969456807e-03  3.6984855652068809e-03  1.6177923456032880e-03  1.0849096461095675e-03  5.4483080075496489e-04  4.2152790913093079e-04  4.3130517303565567e-04  1.0465861458094420e-19  -2.2186116893761405e-34  9.6046356465472986e-03  8.3524193209838296e-03  5.3457728606927726e-03  6.6159995619525843e-03  7.9564156793403631e-02  2.6174553799192760e-02  2.1049589038917012e-02  1.9533606909577724e-02  9.5285997644129261e-02  1.0851401919981729e-01  1.8511535897548898e-01  1.0230643006564354e-01  1.6385573359880157e-01  1.1708507461435023e-01  6.4442099798064409e-02  4.6121309779157703e-02  3.0785599238633936e-02  1.6072829894550472e-02  8.2303473114254261e-03  3.4974883487424923e-03  1.6788874233369738e-03  8.4117168318254281e-04  3.2293105254438225e-04  3.0248441723471634e-04  -1.6791258230215215e-20  -5.0843184548203217e-35  1.4491530741340922e-02  9.3516845752096081e-03  7.9328619794746379e-03  6.1971492838001317e-03  3.0763618565008352e-02  1.7408956368342640e-01  2.1962730922223700e-02  1.9747180461874256e-01  1.5748713400443023e-02  3.6578842953482721e-01  1.2006622834803631e-01  2.1018229271521796e-01  2.2145349036885698e-01  2.7486475482824763e-01  1.2222710618804219e-01  6.6879181956942188e-02  4.8334986817898710e-02  3.2584387684770365e-02  1.7492128683070946e-02  8.0120041293148172e-03  3.1167749608270951e-03  1.5399655303886034e-03  5.0258686354089609e-04  2.1083911552886780e-04  -1.1703922027587609e-20  5.1825382431520776e-34  9.9013141778084759e-03  3.4059697100400797e-03  2.1271429843321591e-02  3.7512779220489234e-02  3.0302900558730361e-02  1.3766911700713969e-01  1.4152329417307773e-03  1.7117300995556300e-01  1.2988317340219349e-01  6.7664798558306080e-02  3.6734613479489295e-02  4.0321931070224937e-01  3.9460647533311874e-03  3.8693522079942544e-01  4.9978702401598329e-01  7.6540098781018888e-03  4.9300715329551617e-02  5.7034969808651512e-02  3.4565754261098723e-02  1.7045125445674374e-02  6.8212075488688316e-03  2.7894867908814470e-03  1.1695526801552651e-03  2.4744759206320557e-04  -1.3635217674290863e-34  -2.9581489191681871e-34  1.8618389583141246e-02  1.7405431800834103e-02  5.6910661035587118e-03  1.4736862765769484e-02  5.6376928154003490e-02  9.3098809222251125e-02  1.4245082619338181e-01  2.0083418628987049e-01  3.0406773803574533e-01  1.1301589175143613e-01  1.9358340205194793e-01  3.6679614312261688e-02  1.2479669841476330e-01  1.0243500548267141e-02  8.5131378327365115e-02  7.3109650702147241e-02  1.4520495006501537e-02  7.4401331199591039e-02  5.3385993972782916e-02  3.0773823357283597e-02  1.3833571677258799e-02  5.2193517475299551e-03  2.2118213982178008e-03  6.7397982329631709e-04  -2.9581489191681871e-34  -1.0596435010260477e-19  3.0135700964180976e-03  1.3612213900452278e-02  3.9485315912762803e-02  8.6259442414351281e-02  7.5990969039325340e-02  4.4759488784903455e-02  2.2505440457624332e-01  4.4160629893199216e-01  8.6239820063182593e-02  4.0649291687182759e-02  7.1611922247358500e-03  1.1332177065830040e-01  1.0304852125457892e-01  6.0236347048293996e-02  5.4794142124135310e-02  1.1431683373241006e-01  7.2275499887410694e-02  2.1428831062095595e-02  6.1880393692363179e-02  4.2525910301394028e-02  2.3349729911541051e-02  9.4590252248935424e-03  3.7315515139998393e-03  1.2999845067143947e-03  3.6976861489602339e-35  2.8657067654441814e-34  2.7938101873913770e-03  4.5252904191489833e-03  3.8479127566399454e-03  2.9723158530176579e-02  1.2343387165869152e-01  3.8040365326530257e-01  1.1648558801937978e-01  1.5269737977339023e-01  4.6323601847541238e-02  5.7441021880614895e-02  1.7138788944559048e-02  8.7046450633628619e-02  7.9326669009818968e-02  9.7861204306381441e-02  5.5986099515878157e-02  1.3782230293303047e-01  1.1571898927569368e-01  6.5427110689390069e-02  4.6639412384793216e-02  4.1527029876522792e-02  2.9005096581445285e-02  1.4956732219595953e-02  5.9541228759938999e-03  2.2396614213252039e-03  4.4372233787522811e-34  -8.3197938351605260e-35  3.5215578012300821e-03  5.5926678575056704e-04  2.4438355433913029e-02  5.0690024180053722e-02  1.0415678132711942e-01  7.0022713698001740e-02  4.8828993104859919e-01  6.1948217981248527e-02  1.9668400635183343e-02  2.8979259987665679e-02  2.7458878206606325e-02  2.1899147244189510e-02  1.0828201425713477e-01  1.0007131931176974e-01  3.3971909099195494e-02  8.5613824464296218e-02  2.5939376328122488e-01  2.7214539260116433e-01  4.6909818446487006e-02  9.9270297934904977e-03  2.2786702497798066e-02  1.8205502830228142e-02  8.6978708633442814e-03  3.4497183437677574e-03  -4.4372233787522811e-34  -2.7335077324604472e-19  1.1652694635088086e-02  9.1633985308055815e-03  8.0444529159108512e-03  3.6897288921908473e-02  1.2860976494958978e-01  1.7373519020422074e-01  3.3482754172426091e-02  1.5800170445086495e-01  6.2378191624493276e-02  1.5915925461972614e-02  4.3994844427815955e-02  2.4207577265326470e-02  8.9242290119153592e-02  8.1452023105162821e-02  1.2417946320681644e-01  5.9927643050985378e-02  1.7459734818150108e-01  1.9697716857902009e-01  4.8222795375083422e-01  4.0755672491990594e-02  9.2037109572193885e-04  1.4842365615923909e-02  1.0705238113464440e-02  4.7891879248162248e-03  1.4790744595840936e-34  -4.6221076862002926e-35  4.9242497621292984e-03  1.5749567678084365e-02  3.2158991026843685e-02  6.6381523392148326e-02  9.6260064763486447e-02  1.3609556831349209e-01  2.5835517411035935e-01  8.1868314749364665e-02  9.8289793602487283e-02  3.2919519252026186e-02  5.1296799466257975e-03  1.9836280852553064e-02  2.3172539119478974e-02  1.2046061387202671e-01  1.0972354989982328e-01  9.5723456465624901e-04  2.3103545728792937e-01  4.9401263246990768e-01  3.9558887987043621e-02  6.5783168332890010e-02  4.5043220452799286e-02  6.7109965620074520e-04  1.0259833806547608e-02  5.6953993046314497e-03  3.6976861489602341e-34  -2.7178366389220857e-20  1.5198209742757790e-03  5.5651593577636937e-03  1.3448683229709766e-02  4.8503722270747153e-02  1.3744645838709676e-01  2.0500378497842717e-01  1.3227654479814735e-01  1.1291419925197065e-01  1.3588169269899211e-01  6.7471212458145455e-02  6.0625066973536895e-02  1.9953906159984425e-02  4.1256602833140334e-03  1.2173925151577865e-01  3.1985359236058192e-02  1.1314482206676210e-01  5.6903493166309167e-02  2.4897338937115920e-01  7.8127051456036600e-01  8.2750131288189907e-02  2.6608679402503978e-02  3.7216838501734087e-02  5.0845802231208473e-03  6.2170194288178118e-03  5.7868788231227660e-33  -4.7409062734883427e-20  8.0450721042458762e-03  7.2832854138401475e-03  1.8298575355627050e-02  3.1413426137444939e-02  5.9801714958012578e-02  8.5619413603186756e-02  2.8479516191665044e-01  1.3360734192710585e-01  9.7786891049614535e-02  1.2670729236973449e-01  7.4811258745019732e-02  8.4201132677515764e-02  2.1394079049210039e-02  7.3074459499042291e-03  3.1782868999677638e-01  2.3986750184648994e-01  1.4256706447434736e-01  1.2261705613415717e-01  1.2028437046226572e-02  1.2496684800953856e-01  3.4923781761725843e-02  4.1095217228248576e-02  2.5280800470181993e-02  7.8565562040550044e-03  -4.3612647960017515e-19  0.0000000000000000e+00  8.5404574906722134e-04  7.3973709432761338e-03  1.5592997969110246e-02  3.7401706537028359e-02  7.4146594737638127e-02  1.0117997691681245e-01  9.0090975861946421e-04  1.9176160583089089e-01  5.7863044366992349e-02  1.9651418021335523e-01  6.3064956580811557e-02  1.3778184726174411e-01  1.1465507730302924e-02  6.8520960179520238e-02  2.3028613693786576e-01  1.0756100842978475e-01  5.6135316419281633e-01  3.8355336498011011e-01  1.9232877543364646e-01  7.0539005977528463e-02  5.0365481505863452e-02  1.2840216653663937e-02  2.8391818514879773e-02  1.0602144798448721e-02  0.0000000000000000e+00  -1.3283655249268508e-20  4.2970498499546317e-04  3.1907002818971691e-03  5.6979452651708725e-03  2.0255431674198531e-02  4.7886298585876584e-02  9.2464169936372867e-02  1.3869517481484550e-01  3.9763956460645671e-03  2.2644734606766678e-01  2.3733990790300016e-01  2.8012263977451685e-01  1.6795125730490576e-01  1.4965762362283158e-01  5.5735696665351463e-02  1.8673015429649220e-01  5.1731287963819661e-01  1.4262497407068941e-01  1.1144372188488443e-01  5.6497887759231369e-02  7.1071705348264028e-02  6.6349448855275536e-02  4.2115601174564074e-02  2.0119972659395701e-02  1.1949877769290469e-02  -3.7864306165352795e-32  -6.2256753041247145e-20  1.4302880420336635e-03  1.6614520984709809e-04  6.7058528967629920e-03  1.0226216938141552e-02  2.6429125216284152e-02  4.7135949738188937e-02  6.3641404378811703e-02  6.5512033613118525e-02  2.7873603458004309e-01  8.5428521475173158e-02  3.4817542194785733e-01  1.7730471016713134e-01  5.4853226688704715e-01  2.0554990539408780e-01  8.3845658626839001e-02  7.2319785861517039e-01  2.4737109912665450e-01  1.2833691134543759e-01  3.9634401465708805e-02  3.7344713309214426e-02  5.4152422735430840e-02  5.3522386879995866e-02  2.4790818508199176e-02  9.5471577904718084e-03  2.3665191353345497e-33  -8.2145555892474679e-20  1.3302883411651406e-03  1.6434476808872001e-03  2.9617327172624728e-03  8.4525844884365698e-03  1.7429011193316569e-02  3.3598284132994191e-02  4.6190620422248023e-02  4.4213143266058214e-02  7.2947418346696921e-02  1.7351746649966946e-02  4.2187253483579684e-02  5.3634258426000581e-01  3.0575789108094446e-02  6.2813023403648849e-01  4.7145284438138013e-01  7.4394694202442449e-02  8.6431711564081512e-02  8.5794021503403844e-02  7.9782427743424325e-02  2.6679980653375148e-02  5.1834135672221754e-02  4.7256299277656379e-02  4.3041807925299443e-02  1.5849298799681185e-05  2.3665191353345497e-33  -8.0561768234693225e-20  1.5058269742880110e-03  2.4119572132668640e-03  1.4647300544294388e-03  6.5141535384873892e-03  1.0379408393549385e-02  2.2820003517067186e-02  3.6177552837546791e-02  4.1577007345945459e-02  1.0976561973694584e-02  2.3966027844831761e-02  2.4354820628351537e-02  1.4933143113656144e-01  2.4981666528405465e-02  1.3184475535211013e-01  2.1147009137704901e-02  1.1276153597142879e-01  3.0454752276189882e-02  7.4963375985221806e-02  7.1949674891319704e-02  4.6456184771292375e-02  3.3907790935286237e-02  3.4724104466568921e-02  3.1714675200939811e-02  2.5240070556562327e-02  3.8515963838623211e-18  -3.3456819579974455e-20  1.4512717976082926e-03  2.1680907302300198e-03  3.0276038599442025e-03  3.0357842456447143e-03  8.3751227483601833e-03  1.3591066913768213e-02  2.5142808695701142e-02  3.5004893137367411e-02  4.2808470014801953e-02  2.8570530691843520e-02  3.6836656805584934e-02  2.5535916828599587e-02  7.8726332338192803e-02  2.0885867330083671e-02  7.1472811485791571e-02  2.7898197616436343e-02  2.7179964506604416e-02  6.4096029763360853e-03  6.7598052449997573e-02  5.2091814360344046e-02  2.2488916587582886e-02  2.7014737278279480e-02  1.5220573218218987e-02  9.0095618411793945e-03  1.1832595676672748e-33  -9.3175064975829788e-21  6.0270448077349981e-04  1.5713805865749965e-03  2.1824161180173788e-03  2.4562471663248956e-03  5.5440512312833218e-03  9.4300256954997531e-03  1.7350124537353965e-02  2.6710806313254547e-02  3.4355891521321347e-02  1.6480944284680936e-02  2.3351036644905277e-02  3.4555915383749476e-02  2.3542268729359325e-02  2.0276178492352743e-03  1.0035384586177467e-02  1.8221962786324368e-02  1.6927716966750758e-02  1.8274410970356948e-03  5.4340892364193476e-02  4.0570941843134228e-02  3.2238323207897990e-02  1.4455557681739494e-03  9.3863609963998652e-03  5.1865640600107970e-03  3.5497787030018249e-33  -7.4034141050875691e-21  1.6784927516214762e-04  7.5828973575256065e-04  1.1744764126064347e-03  1.8267678151813887e-03  2.1020454296650742e-03  6.0271044619056623e-03  1.0156399990529754e-02  1.9496760377217284e-02  3.0564958985273102e-02  4.1896890382669270e-02  4.2206514834335030e-03  1.3522550799674384e-02  2.4905762799869734e-02  2.4367833773222405e-02  2.6687797161102773e-02  1.9367727853331197e-03  1.6659097593839187e-03  6.8672382146059679e-03  1.7919174824873923e-03  3.0216307107359584e-02  1.8015122559769649e-02  1.7092147704502608e-02  6.5064455596719048e-03  9.3897597170222328e-05  -3.9343380624936888e-32  -1.4444086519375914e-36  1.9610220144526921e-04  3.0516995685449683e-04  6.3084600394776563e-04  7.9671373839990936e-04  1.1476660802427804e-03  2.3525584394627169e-03  4.4868185914211699e-03  8.6432223340231068e-03  1.6278661709535912e-02  3.1020500819516031e-02  2.7898565197157364e-02  5.6055521276018724e-03  7.6165296948353493e-03  1.4128893495995321e-02  1.2607544702034360e-02  2.3806731796945976e-02  1.0777828521619296e-02  2.7058271456281181e-03  7.0855691572440102e-03  4.6253100950230334e-03  3.6020030478827974e-03  2.0210295298352205e-03  6.3846882901224446e-03  8.4832901034098043e-03  -4.7091719986901161e-19  -1.1555269215500731e-36  5.4429294806054008e-21  7.6231510317839339e-20  -8.7547469821947692e-20  1.9901923569152171e-19  -1.8104340283812989e-21  -1.3059322731338684e-19  6.4709507606804096e-35  1.6269819055425030e-33  -3.5250847411358630e-19  -3.9034524933865963e-18  7.7434073589720170e-19  -3.1117065189000565e-19  2.3665191353345497e-33  1.4591530355047526e-17  -6.9985932060947215e-19  -1.3215390891022663e-18  2.9914483450395698e-19  -1.5020357988660068e-19  0.0000000000000000e+00  3.5833055152330384e-17  -1.9995133592646934e-19  2.3665191353345497e-33  -2.3665191353345498e-32  -4.7091719986901045e-19  6.4504144618685768e-18  </DataArray> 
</PointData> 
</Piece>
</UnstructuredGrid>
</VTKFile>