<?xml version="1.0"?>
<VTKFile type="UnstructuredGrid"  version="0.1"  >
<UnstructuredGrid>
<Piece  NumberOfPoints="40401" NumberOfCells="80000">
<Points>
<DataArray  type="Float64"  NumberOfComponents="3"  format="ascii">0 0 0  0.005 0 0  0.01 0 0  0.015 0 0  0.02 0 0  0.025 0 0  0.03 0 0  0.035 0 0  0.04 0 0  0.045 0 0  0.05 0 0  0.055 0 0  0.06 0 0  0.065 0 0  0.07000000000000001 0 0  0.075 0 0  0.08 0 0  0.08500000000000001 0 0  0.09 0 0  0.095 0 0  0.1 0 0  0.105 0 0  0.11 0 0  0.115 0 0  0.12 0 0  0.125 0 0  0.13 0 0  0.135 0 0  0.14 0 0  0.145 0 0  0.15 0 0  0.155 0 0  0.16 0 0  0.165 0 0  0.17 0 0  0.175 0 0  0.18 0 0  0.185 0 0  0.19 0 0  0.195 0 0  0.2 0 0  0.205 0 0  0.21 0 0  0.215 0 0  0.22 0 0  0.225 0 0  0.23 0 0  0.235 0 0  0.24 0 0  0.245 0 0  0.25 0 0  0.255 0 0  0.26 0 0  0.265 0 0  0.27 0 0  0.275 0 0  0.28 0 0  0.285 0 0  0.29 0 0  0.295 0 0  0.3 0 0  0.305 0 0  0.31 0 0  0.315 0 0  0.32 0 0  0.325 0 0  0.33 0 0  0.335 0 0  0.34 0 0  0.345 0 0  0.35 0 0  0.355 0 0  0.36 0 0  0.365 0 0  0.37 0 0  0.375 0 0  0.38 0 0  0.385 0 0  0.39 0 0  0.395 0 0  0.4 0 0  0.405 0 0  0.41 0 0  0.415 0 0  0.42 0 0  0.425 0 0  0.43 0 0  0.435 0 0  0.44 0 0  0.445 0 0  0.45 0 0  0.455 0 0  0.46 0 0  0.465 0 0  0.47 0 0  0.475 0 0  0.48 0 0  0.485 0 0  0.49 0 0  0.495 0 0  0.5 0 0  0.505 0 0  0.51 0 0  0.515 0 0  0.52 0 0  0.525 0 0  0.53 0 0  0.535 0 0  0.54 0 0  0.545 0 0  0.55 0 0  0.555 0 0  0.5600000000000001 0 0  0.5649999999999999 0 0  0.57 0 0  0.575 0 0  0.58 0 0  0.585 0 0  0.59 0 0  0.595 0 0  0.6 0 0  0.605 0 0  0.61 0 0  0.615 0 0  0.62 0 0  0.625 0 0  0.63 0 0  0.635 0 0  0.64 0 0  0.645 0 0  0.65 0 0  0.655 0 0  0.66 0 0  0.665 0 0  0.67 0 0  0.675 0 0  0.68 0 0  0.6850000000000001 0 0  0.6899999999999999 0 0  0.695 0 0  0.7 0 0  0.705 0 0  0.71 0 0  0.715 0 0  0.72 0 0  0.725 0 0  0.73 0 0  0.735 0 0  0.74 0 0  0.745 0 0  0.75 0 0  0.755 0 0  0.76 0 0  0.765 0 0  0.77 0 0  0.775 0 0  0.78 0 0  0.785 0 0  0.79 0 0  0.795 0 0  0.8 0 0  0.805 0 0  0.8100000000000001 0 0  0.8149999999999999 0 0  0.82 0 0  0.825 0 0  0.83 0 0  0.835 0 0  0.84 0 0  0.845 0 0  0.85 0 0  0.855 0 0  0.86 0 0  0.865 0 0  0.87 0 0  0.875 0 0  0.88 0 0  0.885 0 0  0.89 0 0  0.895 0 0  0.9 0 0  0.905 0 0  0.91 0 0  0.915 0 0  0.92 0 0  0.925 0 0  0.93 0 0  0.9350000000000001 0 0  0.9399999999999999 0 0  0.945 0 0  0.95 0 0  0.955 0 0  0.96 0 0  0.965 0 0  0.97 0 0  0.975 0 0  0.98 0 0  0.985 0 0  0.99 0 0  0.995 0 0  1 0 0  0 0.005 0  0.005 0.005 0  0.01 0.005 0  0.015 0.005 0  0.02 0.005 0  0.025 0.005 0  0.03 0.005 0  0.035 0.005 0  0.04 0.005 0  0.045 0.005 0  0.05 0.005 0  0.055 0.005 0  0.06 0.005 0  0.065 0.005 0  0.07000000000000001 0.005 0  0.075 0.005 0  0.08 0.005 0  0.08500000000000001 0.005 0  0.09 0.005 0  0.095 0.005 0  0.1 0.005 0  0.105 0.005 0  0.11 0.005 0  0.115 0.005 0  0.12 0.005 0  0.125 0.005 0  0.13 0.005 0  0.135 0.005 0  0.14 0.005 0  0.145 0.005 0  0.15 0.005 0  0.155 0.005 0  0.16 0.005 0  0.165 0.005 0  0.17 0.005 0  0.175 0.005 0  0.18 0.005 0  0.185 0.005 0  0.19 0.005 0  0.195 0.005 0  0.2 0.005 0  0.205 0.005 0  0.21 0.005 0  0.215 0.005 0  0.22 0.005 0  0.225 0.005 0  0.23 0.005 0  0.235 0.005 0  0.24 0.005 0  0.245 0.005 0  0.25 0.005 0  0.255 0.005 0  0.26 0.005 0  0.265 0.005 0  0.27 0.005 0  0.275 0.005 0  0.28 0.005 0  0.285 0.005 0  0.29 0.005 0  0.295 0.005 0  0.3 0.005 0  0.305 0.005 0  0.31 0.005 0  0.315 0.005 0  0.32 0.005 0  0.325 0.005 0  0.33 0.005 0  0.335 0.005 0  0.34 0.005 0  0.345 0.005 0  0.35 0.005 0  0.355 0.005 0  0.36 0.005 0  0.365 0.005 0  0.37 0.005 0  0.375 0.005 0  0.38 0.005 0  0.385 0.005 0  0.39 0.005 0  0.395 0.005 0  0.4 0.005 0  0.405 0.005 0  0.41 0.005 0  0.415 0.005 0  0.42 0.005 0  0.425 0.005 0  0.43 0.005 0  0.435 0.005 0  0.44 0.005 0  0.445 0.005 0  0.45 0.005 0  0.455 0.005 0  0.46 0.005 0  0.465 0.005 0  0.47 0.005 0  0.475 0.005 0  0.48 0.005 0  0.485 0.005 0  0.49 0.005 0  0.495 0.005 0  0.5 0.005 0  0.505 0.005 0  0.51 0.005 0  0.515 0.005 0  0.52 0.005 0  0.525 0.005 0  0.53 0.005 0  0.535 0.005 0  0.54 0.005 0  0.545 0.005 0  0.55 0.005 0  0.555 0.005 0  0.5600000000000001 0.005 0  0.5649999999999999 0.005 0  0.57 0.005 0  0.575 0.005 0  0.58 0.005 0  0.585 0.005 0  0.59 0.005 0  0.595 0.005 0  0.6 0.005 0  0.605 0.005 0  0.61 0.005 0  0.615 0.005 0  0.62 0.005 0  0.625 0.005 0  0.63 0.005 0  0.635 0.005 0  0.64 0.005 0  0.645 0.005 0  0.65 0.005 0  0.655 0.005 0  0.66 0.005 0  0.665 0.005 0  0.67 0.005 0  0.675 0.005 0  0.68 0.005 0  0.6850000000000001 0.005 0  0.6899999999999999 0.005 0  0.695 0.005 0  0.7 0.005 0  0.705 0.005 0  0.71 0.005 0  0.715 0.005 0  0.72 0.005 0  0.725 0.005 0  0.73 0.005 0  0.735 0.005 0  0.74 0.005 0  0.745 0.005 0  0.75 0.005 0  0.755 0.005 0  0.76 0.005 0  0.765 0.005 0  0.77 0.005 0  0.775 0.005 0  0.78 0.005 0  0.785 0.005 0  0.79 0.005 0  0.795 0.005 0  0.8 0.005 0  0.805 0.005 0  0.8100000000000001 0.005 0  0.8149999999999999 0.005 0  0.82 0.005 0  0.825 0.005 0  0.83 0.005 0  0.835 0.005 0  0.84 0.005 0  0.845 0.005 0  0.85 0.005 0  0.855 0.005 0  0.86 0.005 0  0.865 0.005 0  0.87 0.005 0  0.875 0.005 0  0.88 0.005 0  0.885 0.005 0  0.89 0.005 0  0.895 0.005 0  0.9 0.005 0  0.905 0.005 0  0.91 0.005 0  0.915 0.005 0  0.92 0.005 0  0.925 0.005 0  0.93 0.005 0  0.9350000000000001 0.005 0  0.9399999999999999 0.005 0  0.945 0.005 0  0.95 0.005 0  0.955 0.005 0  0.96 0.005 0  0.965 0.005 0  0.97 0.005 0  0.975 0.005 0  0.98 0.005 0  0.985 0.005 0  0.99 0.005 0  0.995 0.005 0  1 0.005 0  0 0.01 0  0.005 0.01 0  0.01 0.01 0  0.015 0.01 0  0.02 0.01 0  0.025 0.01 0  0.03 0.01 0  0.035 0.01 0  0.04 0.01 0  0.045 0.01 0  0.05 0.01 0  0.055 0.01 0  0.06 0.01 0  0.065 0.01 0  0.07000000000000001 0.01 0  0.075 0.01 0  0.08 0.01 0  0.08500000000000001 0.01 0  0.09 0.01 0  0.095 0.01 0  0.1 0.01 0  0.105 0.01 0  0.11 0.01 0  0.115 0.01 0  0.12 0.01 0  0.125 0.01 0  0.13 0.01 0  0.135 0.01 0  0.14 0.01 0  0.145 0.01 0  0.15 0.01 0  0.155 0.01 0  0.16 0.01 0  0.165 0.01 0  0.17 0.01 0  0.175 0.01 0  0.18 0.01 0  0.185 0.01 0  0.19 0.01 0  0.195 0.01 0  0.2 0.01 0  0.205 0.01 0  0.21 0.01 0  0.215 0.01 0  0.22 0.01 0  0.225 0.01 0  0.23 0.01 0  0.235 0.01 0  0.24 0.01 0  0.245 0.01 0  0.25 0.01 0  0.255 0.01 0  0.26 0.01 0  0.265 0.01 0  0.27 0.01 0  0.275 0.01 0  0.28 0.01 0  0.285 0.01 0  0.29 0.01 0  0.295 0.01 0  0.3 0.01 0  0.305 0.01 0  0.31 0.01 0  0.315 0.01 0  0.32 0.01 0  0.325 0.01 0  0.33 0.01 0  0.335 0.01 0  0.34 0.01 0  0.345 0.01 0  0.35 0.01 0  0.355 0.01 0  0.36 0.01 0  0.365 0.01 0  0.37 0.01 0  0.375 0.01 0  0.38 0.01 0  0.385 0.01 0  0.39 0.01 0  0.395 0.01 0  0.4 0.01 0  0.405 0.01 0  0.41 0.01 0  0.415 0.01 0  0.42 0.01 0  0.425 0.01 0  0.43 0.01 0  0.435 0.01 0  0.44 0.01 0  0.445 0.01 0  0.45 0.01 0  0.455 0.01 0  0.46 0.01 0  0.465 0.01 0  0.47 0.01 0  0.475 0.01 0  0.48 0.01 0  0.485 0.01 0  0.49 0.01 0  0.495 0.01 0  0.5 0.01 0  0.505 0.01 0  0.51 0.01 0  0.515 0.01 0  0.52 0.01 0  0.525 0.01 0  0.53 0.01 0  0.535 0.01 0  0.54 0.01 0  0.545 0.01 0  0.55 0.01 0  0.555 0.01 0  0.5600000000000001 0.01 0  0.5649999999999999 0.01 0  0.57 0.01 0  0.575 0.01 0  0.58 0.01 0  0.585 0.01 0  0.59 0.01 0  0.595 0.01 0  0.6 0.01 0  0.605 0.01 0  0.61 0.01 0  0.615 0.01 0  0.62 0.01 0  0.625 0.01 0  0.63 0.01 0  0.635 0.01 0  0.64 0.01 0  0.645 0.01 0  0.65 0.01 0  0.655 0.01 0  0.66 0.01 0  0.665 0.01 0  0.67 0.01 0  0.675 0.01 0  0.68 0.01 0  0.6850000000000001 0.01 0  0.6899999999999999 0.01 0  0.695 0.01 0  0.7 0.01 0  0.705 0.01 0  0.71 0.01 0  0.715 0.01 0  0.72 0.01 0  0.725 0.01 0  0.73 0.01 0  0.735 0.01 0  0.74 0.01 0  0.745 0.01 0  0.75 0.01 0  0.755 0.01 0  0.76 0.01 0  0.765 0.01 0  0.77 0.01 0  0.775 0.01 0  0.78 0.01 0  0.785 0.01 0  0.79 0.01 0  0.795 0.01 0  0.8 0.01 0  0.805 0.01 0  0.8100000000000001 0.01 0  0.8149999999999999 0.01 0  0.82 0.01 0  0.825 0.01 0  0.83 0.01 0  0.835 0.01 0  0.84 0.01 0  0.845 0.01 0  0.85 0.01 0  0.855 0.01 0  0.86 0.01 0  0.865 0.01 0  0.87 0.01 0  0.875 0.01 0  0.88 0.01 0  0.885 0.01 0  0.89 0.01 0  0.895 0.01 0  0.9 0.01 0  0.905 0.01 0  0.91 0.01 0  0.915 0.01 0  0.92 0.01 0  0.925 0.01 0  0.93 0.01 0  0.9350000000000001 0.01 0  0.9399999999999999 0.01 0  0.945 0.01 0  0.95 0.01 0  0.955 0.01 0  0.96 0.01 0  0.965 0.01 0  0.97 0.01 0  0.975 0.01 0  0.98 0.01 0  0.985 0.01 0  0.99 0.01 0  0.995 0.01 0  1 0.01 0  0 0.015 0  0.005 0.015 0  0.01 0.015 0  0.015 0.015 0  0.02 0.015 0  0.025 0.015 0  0.03 0.015 0  0.035 0.015 0  0.04 0.015 0  0.045 0.015 0  0.05 0.015 0  0.055 0.015 0  0.06 0.015 0  0.065 0.015 0  0.07000000000000001 0.015 0  0.075 0.015 0  0.08 0.015 0  0.08500000000000001 0.015 0  0.09 0.015 0  0.095 0.015 0  0.1 0.015 0  0.105 0.015 0  0.11 0.015 0  0.115 0.015 0  0.12 0.015 0  0.125 0.015 0  0.13 0.015 0  0.135 0.015 0  0.14 0.015 0  0.145 0.015 0  0.15 0.015 0  0.155 0.015 0  0.16 0.015 0  0.165 0.015 0  0.17 0.015 0  0.175 0.015 0  0.18 0.015 0  0.185 0.015 0  0.19 0.015 0  0.195 0.015 0  0.2 0.015 0  0.205 0.015 0  0.21 0.015 0  0.215 0.015 0  0.22 0.015 0  0.225 0.015 0  0.23 0.015 0  0.235 0.015 0  0.24 0.015 0  0.245 0.015 0  0.25 0.015 0  0.255 0.015 0  0.26 0.015 0  0.265 0.015 0  0.27 0.015 0  0.275 0.015 0  0.28 0.015 0  0.285 0.015 0  0.29 0.015 0  0.295 0.015 0  0.3 0.015 0  0.305 0.015 0  0.31 0.015 0  0.315 0.015 0  0.32 0.015 0  0.325 0.015 0  0.33 0.015 0  0.335 0.015 0  0.34 0.015 0  0.345 0.015 0  0.35 0.015 0  0.355 0.015 0  0.36 0.015 0  0.365 0.015 0  0.37 0.015 0  0.375 0.015 0  0.38 0.015 0  0.385 0.015 0  0.39 0.015 0  0.395 0.015 0  0.4 0.015 0  0.405 0.015 0  0.41 0.015 0  0.415 0.015 0  0.42 0.015 0  0.425 0.015 0  0.43 0.015 0  0.435 0.015 0  0.44 0.015 0  0.445 0.015 0  0.45 0.015 0  0.455 0.015 0  0.46 0.015 0  0.465 0.015 0  0.47 0.015 0  0.475 0.015 0  0.48 0.015 0  0.485 0.015 0  0.49 0.015 0  0.495 0.015 0  0.5 0.015 0  0.505 0.015 0  0.51 0.015 0  0.515 0.015 0  0.52 0.015 0  0.525 0.015 0  0.53 0.015 0  0.535 0.015 0  0.54 0.015 0  0.545 0.015 0  0.55 0.015 0  0.555 0.015 0  0.5600000000000001 0.015 0  0.
[...]
<PointData  Scalars="Indicator Function"> 
<DataArray  type="Float64"  Name="Indicator Function"  format="ascii">-1.5742202443356152e-23  -3.0125964068454752e-23  8.8362080998217240e-22  2.4269757945309756e-21  1.3600413124303329e-21  -2.9349326000105021e-23  -1.2032415760107856e-22  1.1340131801452197e-20  3.7969131624550440e-20  -1.2503888684742289e-22  -2.7376094839229404e-21  9.3048008161299087e-20  -1.0868880079083334e-22  -4.7185206316118116e-22  1.7172448049478073e-19  -2.8516909873972382e-22  -2.8477897735859685e-22  1.6229617644534145e-19  9.4039548065783001e-38  -4.1293656643146002e-23  -6.4477704736228359e-21  -1.9489934490853597e-22  -3.8668240249247884e-22  8.7224992924105886e-20  0.0000000000000000e+00  -4.8808572959191673e-22  -3.9201564746215905e-22  -1.8075120066438641e-22  -4.2063742883655810e-21  -7.3674223157381520e-23  -8.5834229927719812e-22  -4.2522764696691472e-23  -4.0002605586091004e-22  1.9936384189945996e-35  3.5446441708407269e-19  -4.0064739809142477e-22  -9.8328964004275945e-22  -2.0036947415601597e-21  -5.7755433754397439e-22  -1.2863919120479832e-21  1.1342407268878487e-18  3.7615819226313200e-37  -2.4336709816645887e-22  -8.8839443659934209e-22  -2.5461667325518210e-22  -9.4779580578354282e-22  3.7051441955628321e-18  -4.4041334325916524e-21  -4.0222595593914042e-21  -2.2424733372537121e-21  -2.3160539736186184e-21  -1.3989486078963918e-21  -3.9933377455290526e-21  -6.0515470999824756e-21  -3.0257735499912389e-21  -2.8389275398161094e-21  1.0714131217153047e-17  -3.0548072749046135e-21  -5.7585886518647851e-21  -5.0004790914236459e-21  -3.5754367348616954e-21  -9.6995335876362054e-21  -4.6166310438881841e-21  -6.9194405770891346e-21  -6.5843130080984287e-21  -6.2044961674521710e-21  -1.3811019754966153e-20  -4.3638687922083932e-21  7.5524264600437862e-19  -1.0209429502229059e-20  -9.7254610685271907e-21  -3.8689429741736039e-21  -5.7037762996948191e-21  -1.5899120863130241e-20  -2.2652035623102995e-20  -2.5646919967055979e-20  -2.6353543774163006e-20  -2.5269889793595699e-20  -2.3455502783761544e-20  -1.8240719216744364e-20  -9.4654381349009395e-21  2.2334315894937514e-18  -7.6939241946056897e-21  -1.0765730779288451e-20  -6.7490566903492236e-21  -6.7567935178563701e-21  -6.6959820152533286e-21  -5.0054597712562014e-21  -3.5111765594947026e-21  -4.9316841029142076e-21  -2.4658420514571046e-21  -2.2341990135674134e-21  -1.3657611927924356e-21  1.3873487198847207e-18  -5.5272172619744220e-22  -3.2951052597503172e-22  -2.7133629117992280e-22  -2.3518986476737066e-22  -1.7197160592303900e-22  -4.2874027348139640e-22  1.5354271896986103e-18  2.4063906786877870e-18  2.9360985808765122e-19  8.4994945652008242e-19  2.1161680867364450e-19  -3.3083721214736184e-21  2.8392097008551687e-19  6.4845828171404334e-19  3.7648066870967670e-19  5.5376238729175104e-19  7.1178389705683868e-20  5.5764910973953145e-20  -3.9031485207346350e-25  8.0920542461434437e-21  4.0187660560319501e-23  3.8849278801378077e-21  -9.4105586749162646e-23  3.5989510668845040e-21  -1.1123311961207103e-22  3.7951418873479706e-21  -8.1730960343201748e-23  4.0380020950182614e-21  -5.0434748043532566e-23  4.2872824635121290e-21  -2.6235026152788756e-23  4.5415755453945230e-21  -8.2625551062555595e-24  4.7997530376436855e-21  4.3754784612929534e-24  5.0591204016161367e-21  1.3578736106951753e-23  5.3191402219407833e-21  2.0369671952289322e-23  5.5764009019809077e-21  2.5361434814623286e-23  5.8273165198402271e-21  2.9036375171388215e-23  -9.6213130438274136e-25  6.1834080511386791e-21  3.2385994859669442e-23  6.4018979394964734e-21  3.4154373305148031e-23  6.6001750653994011e-21  3.4875561356934758e-23  6.7704668137360748e-21  3.4250033435290840e-23  6.9104459895190796e-21  3.5543327440266918e-23  7.0167121214037094e-21  3.2183170746611584e-23  7.0663140204280229e-21  2.9870759351927407e-23  7.0702672866360740e-21  2.1921473767457581e-23  7.0272561003743885e-21  2.1743527293937945e-23  6.9483302696143059e-21  1.7653522789824683e-23  6.7863157828256943e-21  1.1747318020795480e-23  6.5619425057584746e-21  4.7591572202543492e-24  -3.3169835652508203e-24  6.1008378873076439e-21  -7.4062919418626027e-24  5.6955458734762735e-21  -1.8274274321160932e-23  5.2463212802048058e-21  -2.2629951971011859e-23  4.7505122547167866e-21  -2.9351177831425221e-23  4.1783975185094770e-21  -3.8364219631384092e-23  3.5594541407563320e-21  -4.6884573259775915e-23  2.9129345203970700e-21  -5.4142521132967618e-23  2.2537890854382898e-21  -5.9937658610893521e-23  1.6016890167235004e-21  -6.3880884317008671e-23  9.8103511674415115e-22  -6.5367838325707620e-23  4.2006120548611380e-22  -2.4228331200242418e-23  1.0344350287236130e-36  2.9993507502338346e-22  2.7091471366607407e-39  3.7494218929456449e-22  3.7922390203090654e-23  6.1433624774078118e-22  1.5869416860701796e-23  5.3081366630820870e-22  -1.3131595096554563e-23  2.8527613521336269e-22  -4.4411840081320618e-23  5.7381304015392223e-23  1.3630275841441294e-22  8.0679640995632949e-23  5.8014151073391243e-24  -2.1810930337522913e-39  -6.9563175809219099e-23  2.8358630823155961e-07  7.3906321921372423e-07  3.5607356006133253e-07  8.4858475208523478e-07  6.3566813019397734e-07  2.1087638945360425e-07  2.1675673253435453e-06  4.5163154241962805e-08  4.5050006737029690e-06  3.0589056375705818e-06  1.3065968403698278e-06  4.1933381036100543e-06  1.9579633709637728e-06  9.4282712795510692e-06  2.4918909205225998e-06  5.1371497872872015e-06  5.1301219852605302e-06  2.9101635952321907e-06  1.4877607733665989e-06  2.1928120859592450e-06  3.6754896669867783e-06  1.7152666191198791e-06  6.1082175855434995e-06  1.2899963476646142e-06  7.6635597795750389e-07  1.4123852190671861e-05  1.0344253312399922e-05  3.2561241598355786e-06  2.6543936316671543e-06  3.0200677820097738e-06  2.1086175708106974e-05  7.6602202897113251e-07  7.2062287844547372e-06  1.7984362033497066e-05  1.4434843782011983e-05  3.5426742851950718e-05  1.8839824963150825e-05  3.6095355565818222e-05  1.0404293997397030e-05  2.3173576543006702e-05  8.0013240765763014e-06  3.8733053374853965e-06  2.4474592217241141e-06  1.6003891414507275e-05  4.5867662191774155e-06  1.7073971351000442e-05  4.5402049667058996e-05  7.9337814743638823e-05  8.0793616688352697e-05  8.3444638500470103e-05  5.0402435433861341e-05  8.8152604473247019e-06  6.7529947307254338e-05  1.0901498105798433e-04  9.6654269498155969e-05  2.8144372927120734e-06  1.1006103123959274e-04  1.1603277282305927e-04  4.5721124415343199e-05  1.2881868437447929e-04  1.6799201224177962e-05  1.6633166279169509e-04  3.9891620655120405e-05  1.0470374969080346e-04  6.6260563593649417e-05  1.8314454151285191e-04  1.5722494293186253e-04  4.2802370103435686e-05  1.1238678038243926e-04  1.2772334141639689e-04  1.1133666066870280e-04  1.4028350212872349e-05  1.1580224979344712e-04  2.2851197428212374e-04  2.9380680962449746e-04  3.1511043201508821e-04  3.1718802367730609e-04  3.0520696388678395e-04  2.6993329244355243e-04  1.9362893884822277e-04  7.3699705204842411e-05  4.8868649383029955e-05  1.1416709185185711e-04  1.3685461857796958e-04  5.3152887494051626e-05  1.2171957107694934e-04  5.9764302896623018e-05  9.0170347042589746e-05  1.8166560258594575e-05  8.8841322752773697e-05  8.0495502759789822e-05  4.9206732791494174e-05  3.1345632556103220e-05  1.9913898881139021e-05  7.2611773502428488e-06  5.9359339279832360e-06  4.8879600793999674e-06  4.2368039493105897e-06  3.0979650414132165e-06  7.7234981435584738e-06  1.2736339162024603e-05  1.1580212370413646e-05  9.7456440127173438e-08  9.5987540781903190e-06  1.4918231242591412e-07  3.5959288617625903e-08  2.9372703290110327e-06  4.2653492283657606e-06  3.2582418606375259e-06  2.5222380027764669e-07  2.2630328834816220e-07  9.7788723447699255e-08  3.4203380626894816e-08  3.5056032747073064e-08  3.6822104037388038e-08  3.5029899167886709e-08  3.0747972939760704e-08  2.5579460142379490e-08  2.0537991456843162e-08  1.6091001362594369e-08  1.2390052385432218e-08  9.4299273031767084e-09  7.1467607690977897e-09  5.4511727085434141e-09  4.2628382026042197e-09  3.5156691545320472e-09  3.1391621671165862e-09  3.0710691453902320e-09  3.2642843406417086e-09  3.6804895911549241e-09  4.2874208878851350e-09  5.0579639888118592e-09  5.9690100039709031e-09  6.9999243227155580e-09  8.1333519011244301e-09  9.3544329466132914e-09  1.0650421989455389e-08  1.2007005740871518e-08  1.3409325178564432e-08  1.4851099065917256e-08  1.6336426448685464e-08  1.7854182144531896e-08  1.9389887194606942e-08  2.0936305486934083e-08  2.2466144446392918e-08  2.3980546144007204e-08  2.5527979702703531e-08  2.7096798890236597e-08  2.8604128026977146e-08  3.0017774024770399e-08  3.1406736511553068e-08  3.2712737497786475e-08  3.3799116788937989e-08  3.4744123303864070e-08  3.5685480306435860e-08  3.6620114870246338e-08  3.7482020161867544e-08  3.8230211623251994e-08  3.8847782572018179e-08  3.9328275014419861e-08  3.9662692832848081e-08  3.9827447853649707e-08  3.9839739867006683e-08  3.9698783551408573e-08  3.9315610335679456e-08  3.8647301019523158e-08  3.7775991743021643e-08  3.6798318293165242e-08  3.5733157962663116e-08  3.4540939453490761e-08  3.3175903743733426e-08  3.1612258096472363e-08  2.9844971921493146e-08  2.7881652037584585e-08  2.5735306505919465e-08  2.3420618651384310e-08  2.0952980498079612e-08  1.8348865536973838e-08  1.5626577285199973e-08  1.2806965522817761e-08  9.9140175478539197e-09  6.9753596572347492e-09  4.0227347344074747e-09  1.0925126744950230e-09  1.7737274457234326e-09  4.5285270474181288e-09  7.1178122868231073e-09  9.4801884834310678e-09  1.1546481458677484e-08  1.3239920980730797e-08  1.4477606112527534e-08  1.5174204103491858e-08  1.5249153321559315e-08  1.4638697412071699e-08  1.3313139556806157e-08  1.1296366667949838e-08  8.6754132345227957e-09  5.5531857108457207e-09  1.8873365830030712e-09  4.2278631313069931e-26  -3.9984773907083201e-23  1.2531387706124291e-06  4.2113246107277235e-07  5.4082620102493945e-07  7.3469992949094632e-07  3.2625539158507551e-08  1.4032954155786442e-06  3.0800412029596044e-06  1.9080647259069587e-06  4.4148884682216659e-06  2.3896880068902597e-06  7.8725200951407542e-06  1.2396200145654662e-05  4.3687876318869334e-06  6.6043335687620978e-06  4.4917690707230050e-06  7.4879401507388856e-06  1.1522428784463125e-05  1.0015097897094333e-05  8.5360522456392564e-06  1.1190031716175462e-05  8.2373959190483980e-06  5.1675665904075868e-06  1.1536885380455936e-05  4.5698156125748984e-06  4.0750046618931977e-06  4.6738336997435996e-06  4.2446271028995603e-06  3.2694112270849288e-06  1.8363073048221298e-05  2.1804712295621645e-05  5.6312433017099617e-06  7.9890215797860837e-07  3.7314240577617332e-05  2.5345743664999534e-05  4.1983741918903565e-05  1.1438853475645095e-05  1.6577835626628684e-05  2.9304586222689962e-05  1.7469850082080562e-05  5.9955586311663673e-05  5.3856990124524410e-05  7.0828266984406107e-05  1.0423384250783291e-04  1.1229810279751746e-04  8.4606134759701400e-05  9.8124877811972156e-05  1.1523085828219351e-04  1.0512722455688055e-04  4.1662206929888672e-05  2.0341059808145426e-05  1.0863932153950860e-04  1.6000950211907079e-04  1.8065576385495550e-04  9.7116004446735023e-05  4.2666955469800245e-05  1.8124664472596156e-04  1.8164291139857269e-04  7.2934211971490948e-06  1.8841920355242565e-04  7.5432439521586748e-05  1.9957069826890970e-04  2.5408821616225121e-04  8.4653672206059754e-05  1.2910820052808802e-04  1.8340325099427596e-04  8.8959692652733238e-05  3.3528538547328112e-04  5.9380094480492688e-05  1.5918698584195122e-04  1.7447959240050260e-04  1.8702021257393969e-04  1.0591513636024974e-04  7.6590008769650069e-05  2.5929002918403395e-04  3.8292188837032786e-04  4.3932330728588693e-04  4.5141859807767233e-04  4.4208384585236430e-04  4.1557958969497082e-04  3.3299568437651492e-04  1.9160655047377424e-04  1.1384940712413059e-05  1.4652449327613441e-04  1.6907315524027650e-04  1.8220058452387476e-04  7.6634093331221520e-05  1.9678976176231984e-04  5.2713178950617950e-05  1.4450665090825248e-04  1.2657091424082126e-04  1.2089711379394328e-05  4.5291271130195447e-05  3.9308716726152505e-05  2.3115293299978639e-05  1.2157392869229335e-05  6.5114271799773367e-06  1.2660404891273013e-05  1.4310816370930870e-05  1.4367205232910200e-05  1.8136979335038446e-05  1.3468018112574687e-05  1.3074670474154190e-06  1.7538376441851077e-05  1.4841761123707401e-05  6.1038388298271726e-06  8.2602431907661797e-07  3.1300604485302443e-06  9.7366306736476207e-08  8.3793611013118945e-06  1.2480567015452708e-06  5.1146659234351784e-08  3.4352667525703407e-07  1.2487794506083743e-07  8.1312793425248615e-08  7.9705216283861441e-08  7.6911774632241666e-08  7.1150117148381272e-08  6.3661415457674877e-08  5.5960718502092726e-08  4.8912652515440470e-08  4.2870512601262861e-08  3.7899398345453992e-08  3.3935304068478547e-08  3.0865771396074700e-08  2.8563237665693843e-08  2.6930612688526253e-08  2.5872036215629803e-08  2.5288753815969883e-08  2.5104924502673480e-08  2.5262293632613170e-08  2.5711274015655424e-08  2.6410132271434956e-08  2.7323972380521086e-08  2.8422053399945560e-08  2.9677745729671825e-08  3.1068665712007783e-08  3.2576047885702481e-08  3.4181781467514079e-08  3.5864402396358796e-08  3.7606918172437347e-08  3.9411979522862446e-08  4.1279749537025862e-08  4.3182968665520298e-08  4.5112077482731325e-08  4.7045058887502395e-08  4.8945371552723940e-08  5.0865452494905308e-08  5.2852958731139772e-08  5.4819426659916189e-08  5.6649759610812194e-08  5.8400100901923917e-08  6.0132680669385631e-08  6.1626284145812470e-08  6.2816424836518768e-08  6.3946089235003164e-08  6.5113103994629297e-08  6.6224780347729877e-08  6.7195263885885119e-08  6.7994955237725597e-08  6.8609046339036819e-08  6.9033275678165559e-08  6.9236228655027643e-08  6.9203518630772453e-08  6.8977080815911681e-08  6.8481630769834403e-08  6.7581576524032166e-08  6.6320646354352410e-08  6.4862688388113312e-08  6.3288509116426344e-08  6.1561089114983382e-08  5.9606876550151459e-08  5.7374253940653195e-08  5.4844063925449909e-08  5.2019411652389083e-08  4.8914082644821702e-08  4.5545591329082314e-08  4.1932665554561773e-08  3.8095262666901725e-08  3.4055513449088919e-08  2.9838789879114620e-08  2.5474642459554079e-08  2.0997600834390079e-08  1.6447918163334786e-08  1.1872344306207685e-08  7.3249875654947923e-09  2.8682929732343052e-09  1.4258748664638781e-09  5.4751213188367579e-09  9.1855841855358223e-09  1.2451597701386903e-08  1.5156746875922359e-08  1.7177545852044941e-08  1.8391306915304419e-08  1.8689553542436727e-08  1.7996827999822441e-08  1.6290861987547685e-08  1.3611988513245924e-08  1.0027619316015184e-08  5.4122875468736533e-09  1.3519904063470561e-24  -5.4534322015672494e-23  7.2030165147373543e-07  2.4111837115116119e-06  8.9866648828013694e-07  1.0356162306263524e-06  2.0262243743660532e-06  1.3481905651829757e-06  8.3254710662648787e-07  4.9521206358868350e-06  3.3239736891982460e-07  9.2340689135697089e-06  6.4057011878708266e-06  6.9405742391190163e-09  1.0742330917231264e-05  7.0844125856072317e-06  1.8745798209472387e-05  8.6899778734691897e-06  1.4086934171824147e-05  1.6061149668699842e-05  1.0710218801606503e-05  1.9080458421313370e-06  1.5268976411107076e-06  5.5832337580303933e-06  6.0630671191617541e-07  1.3738241153577260e-05  6.7805319111667452e-06  5.5750038295160284e-07  2.6506162484811328e-05  2.5029996284795813e-05  1.4013047449635307e-05  4.9494832094783485e-06  2.1270846299950926e-06  4.2258976243895755e-05  1.6399589839205825e-05  2.6515218197939835e-05  1.8194618353353593e-05  2.2850029912423764e-05  6.6983762368135098e-05  4.9974478429320507e-05  8.3787178052962283e-05  4.5918647003399353e-05  6.7394883694618416e-05  4.6061527196560927e-05  2.5510903864935922e-05  4.2138399989787029e-05  6.6891615881134361e-05  4.6505627526040648e-05  6.8687805031046451e-05  1.3223836806575199e-04  1.9598433794364205e-04  1.9054919595608424e-04  1.6677548504951854e-04  8.0800179570183957e-05  2.7051507859749872e-05  1.7793552848752734e-04  2.5154569892325542e-04  1.8974997400914739e-04  3.3681651266358684e-05  2.5731337650409852e-04  2.3838362547813085e-04  9.4874749271105542e-05  2.5975678480319914e-04  3.5385495099829119e-07  3.5536238555958802e-04  1.0856916589053264e-04  1.9550599733079662e-04  1.3772423378628247e-04  3.4740594195247545e-04  2.8735488180401075e-04  1.2188597013995832e-04  2.1814873947367724e-04  2.1312753953911347e-04  1.8825773847543773e-04  1.8244487018060534e-05  2.0449031800014883e-04  3.8911317764631445e-04  4.8631260030408148e-04  5.1149907455810795e-04  5.1243780327944017e-04  4.9219863197627102e-04  4.3664477822835196e-04  3.0743273029019313e-04  1.0546293777901116e-04  9.4580499240010232e-05  1.9976675529987843e-04  2.1983316083746475e-04  9.2262890774775561e-05  2.4293421215981141e-04  1.1406145749779704e-04  1.9107418320664265e-04  4.5559086424608344e-05  2.0701064246024279e-04  1.8394472510712559e-04  1.0779907267476031e-04  6.5047462917532258e-05  4.2557852456488197e-05  1.9239284984274704e-05  1.6928492624286379e-05  1.6265346379149498e-05  1.5152940407637587e-05  1.3180106417038131e-05  2.1727419732910928e-05  2.9998800422429075e-05  2.4100284785753041e-05  1.8667573390217867e-06  2.1483317224324822e-05  2.7338110819221913e-06  1.2717746523144730e-07  6.2158947398105035e-06  8.3695082754127411e-06  6.4282515005127461e-06  9.2680663351940091e-07  2.1005549702529967e-07  3.4597253368341302e-07  1.5899599154714204e-07  1.3219854907751962e-07  1.2227812574656884e-07  1.1308247015015077e-07  1.0308611893003474e-07  9.3037883150242669e-08  8.3784936189639770e-08  7.5745743310238419e-08  6.9025678623707465e-08  6.3555304693950198e-08  5.9207069370230247e-08  5.5822923045515244e-08  5.3266300460376851e-08  5.1431670983946480e-08  5.0199344377471441e-08  4.9464953085045001e-08  4.9154154133896216e-08  4.9205667183942337e-08  4.9566812475457126e-08  5.0193546679035966e-08  5.1048750695697696e-08  5.2099003420219782e-08  5.3316723997447279e-08  5.4678368202923643e-08  5.6164241962661137e-08  5.7751542160978002e-08  5.9415933907733879e-08  6.1148256701679832e-08  6.2960201648360381e-08  6.4832060703590975e-08  6.6735965657666015e-08  6.8666917077941277e-08  7.0576786114926319e-08  7.2465090935109064e-08  7.4430240498799553e-08  7.6448281004541497e-08  7.8359571870786438e-08  8.0110916839442971e-08  8.1858038880906268e-08  8.3498099207139246e-08  8.4747258269662806e-08  8.5778019165559212e-08  8.6868400861226773e-08  8.7974132893942075e-08  8.8952653845029252e-08  8.9744474937438426e-08  9.0336089183630259e-08  9.0719639860097023e-08  9.0881781917542848e-08  9.0773449979190670e-08  9.0427659197737103e-08  8.9854159918412228e-08  8.8881270451288712e-08  8.7431058050382521e-08  8.5671824189349488e-08  8.3773113150193438e-08  8.1739543063124534e-08  7.9482385933632488e-08  7.6923199887611649e-08  7.4025724160634553e-08  7.0785556128681973e-08  6.7214131217342230e-08  6.3328632471740242e-08  5.9147891074890646e-08  5.4691846708516963e-08  4.9982450390320553e-08  4.5044864957014286e-08  3.9908570302503191e-08  3.4608316719114987e-08  2.9184991696951702e-08  2.3686494916276398e-08  1.8168700533097499e-08  1.2696557668477506e-08  7.3453388462792451e-09  2.2019754239292115e-09  2.6336987499045944e-09  7.0481573294963459e-09  1.0914483569969487e-08  1.4094803787140857e-08  1.6446368960966325e-08  1.7833024394902175e-08  1.8142785680140864e-08  1.7307792613001170e-08  1.5311111994711057e-08  1.2135643038014700e-08  7.5023880980258470e-09  -1.0411655007628083e-24  -3.6596492067806296e-23  9.8240300923474260e-07  1.7813336322040458e-06  1.4761264876138255e-06  5.7305573212970870e-07  1.5314750497811661e-07  1.1065058632393537e-07  2.2147745435556164e-06  3.7905153770043929e-06  2.9090098499915495e-06  5.8656101590734957e-06  4.2993050849601888e-06  1.2306488568276063e-05  1.7490609079253654e-05  6.3748614835294624e-06  7.2133938221269280e-06  9.0957178239449499e-06  5.9025853549697037e-06  1.3608180114158074e-05  1.1891359186358242e-05  1.