<?xml version="1.0"?>
<VTKFile type="UnstructuredGrid"  version="0.1"  >
<UnstructuredGrid>
<Piece  NumberOfPoints="40401" NumberOfCells="80000">
<Points>
<DataArray  type="Float64"  NumberOfComponents="3"  format="ascii">0 0 0  0.005 0 0  0.01 0 0  0.015 0 0  0.02 0 0  0.025 0 0  0.03 0 0  0.035 0 0  0.04 0 0  0.045 0 0  0.05 0 0  0.055 0 0  0.06 0 0  0.065 0 0  0.07000000000000001 0 0  0.075 0 0  0.08 0 0  0.08500000000000001 0 0  0.09 0 0  0.095 0 0  0.1 0 0  0.105 0 0  0.11 0 0  0.115 0 0  0.12 0 0  0.125 0 0  0.13 0 0  0.135 0 0  0.14 0 0  0.145 0 0  0.15 0 0  0.155 0 0  0.16 0 0  0.165 0 0  0.17 0 0  0.175 0 0  0.18 0 0  0.185 0 0  0.19 0 0  0.195 0 0  0.2 0 0  0.205 0 0  0.21 0 0  0.215 0 0  0.22 0 0  0.225 0 0  0.23 0 0  0.235 0 0  0.24 0 0  0.245 0 0  0.25 0 0  0.255 0 0  0.26 0 0  0.265 0 0  0.27 0 0  0.275 0 0  0.28 0 0  0.285 0 0  0.29 0 0  0.295 0 0  0.3 0 0  0.305 0 0  0.31 0 0  0.315 0 0  0.32 0 0  0.325 0 0  0.33 0 0  0.335 0 0  0.34 0 0  0.345 0 0  0.35 0 0  0.355 0 0  0.36 0 0  0.365 0 0  0.37 0 0  0.375 0 0  0.38 0 0  0.385 0 0  0.39 0 0  0.395 0 0  0.4 0 0  0.405 0 0  0.41 0 0  0.415 0 0  0.42 0 0  0.425 0 0  0.43 0 0  0.435 0 0  0.44 0 0  0.445 0 0  0.45 0 0  0.455 0 0  0.46 0 0  0.465 0 0  0.47 0 0  0.475 0 0  0.48 0 0  0.485 0 0  0.49 0 0  0.495 0 0  0.5 0 0  0.505 0 0  0.51 0 0  0.515 0 0  0.52 0 0  0.525 0 0  0.53 0 0  0.535 0 0  0.54 0 0  0.545 0 0  0.55 0 0  0.555 0 0  0.5600000000000001 0 0  0.5649999999999999 0 0  0.57 0 0  0.575 0 0  0.58 0 0  0.585 0 0  0.59 0 0  0.595 0 0  0.6 0 0  0.605 0 0  0.61 0 0  0.615 0 0  0.62 0 0  0.625 0 0  0.63 0 0  0.635 0 0  0.64 0 0  0.645 0 0  0.65 0 0  0.655 0 0  0.66 0 0  0.665 0 0  0.67 0 0  0.675 0 0  0.68 0 0  0.6850000000000001 0 0  0.6899999999999999 0 0  0.695 0 0  0.7 0 0  0.705 0 0  0.71 0 0  0.715 0 0  0.72 0 0  0.725 0 0  0.73 0 0  0.735 0 0  0.74 0 0  0.745 0 0  0.75 0 0  0.755 0 0  0.76 0 0  0.765 0 0  0.77 0 0  0.775 0 0  0.78 0 0  0.785 0 0  0.79 0 0  0.795 0 0  0.8 0 0  0.805 0 0  0.8100000000000001 0 0  0.8149999999999999 0 0  0.82 0 0  0.825 0 0  0.83 0 0  0.835 0 0  0.84 0 0  0.845 0 0  0.85 0 0  0.855 0 0  0.86 0 0  0.865 0 0  0.87 0 0  0.875 0 0  0.88 0 0  0.885 0 0  0.89 0 0  0.895 0 0  0.9 0 0  0.905 0 0  0.91 0 0  0.915 0 0  0.92 0 0  0.925 0 0  0.93 0 0  0.9350000000000001 0 0  0.9399999999999999 0 0  0.945 0 0  0.95 0 0  0.955 0 0  0.96 0 0  0.965 0 0  0.97 0 0  0.975 0 0  0.98 0 0  0.985 0 0  0.99 0 0  0.995 0 0  1 0 0  0 0.005 0  0.005 0.005 0  0.01 0.005 0  0.015 0.005 0  0.02 0.005 0  0.025 0.005 0  0.03 0.005 0  0.035 0.005 0  0.04 0.005 0  0.045 0.005 0  0.05 0.005 0  0.055 0.005 0  0.06 0.005 0  0.065 0.005 0  0.07000000000000001 0.005 0  0.075 0.005 0  0.08 0.005 0  0.08500000000000001 0.005 0  0.09 0.005 0  0.095 0.005 0  0.1 0.005 0  0.105 0.005 0  0.11 0.005 0  0.115 0.005 0  0.12 0.005 0  0.125 0.005 0  0.13 0.005 0  0.135 0.005 0  0.14 0.005 0  0.145 0.005 0  0.15 0.005 0  0.155 0.005 0  0.16 0.005 0  0.165 0.005 0  0.17 0.005 0  0.175 0.005 0  0.18 0.005 0  0.185 0.005 0  0.19 0.005 0  0.195 0.005 0  0.2 0.005 0  0.205 0.005 0  0.21 0.005 0  0.215 0.005 0  0.22 0.005 0  0.225 0.005 0  0.23 0.005 0  0.235 0.005 0  0.24 0.005 0  0.245 0.005 0  0.25 0.005 0  0.255 0.005 0  0.26 0.005 0  0.265 0.005 0  0.27 0.005 0  0.275 0.005 0  0.28 0.005 0  0.285 0.005 0  0.29 0.005 0  0.295 0.005 0  0.3 0.005 0  0.305 0.005 0  0.31 0.005 0  0.315 0.005 0  0.32 0.005 0  0.325 0.005 0  0.33 0.005 0  0.335 0.005 0  0.34 0.005 0  0.345 0.005 0  0.35 0.005 0  0.355 0.005 0  0.36 0.005 0  0.365 0.005 0  0.37 0.005 0  0.375 0.005 0  0.38 0.005 0  0.385 0.005 0  0.39 0.005 0  0.395 0.005 0  0.4 0.005 0  0.405 0.005 0  0.41 0.005 0  0.415 0.005 0  0.42 0.005 0  0.425 0.005 0  0.43 0.005 0  0.435 0.005 0  0.44 0.005 0  0.445 0.005 0  0.45 0.005 0  0.455 0.005 0  0.46 0.005 0  0.465 0.005 0  0.47 0.005 0  0.475 0.005 0  0.48 0.005 0  0.485 0.005 0  0.49 0.005 0  0.495 0.005 0  0.5 0.005 0  0.505 0.005 0  0.51 0.005 0  0.515 0.005 0  0.52 0.005 0  0.525 0.005 0  0.53 0.005 0  0.535 0.005 0  0.54 0.005 0  0.545 0.005 0  0.55 0.005 0  0.555 0.005 0  0.5600000000000001 0.005 0  0.5649999999999999 0.005 0  0.57 0.005 0  0.575 0.005 0  0.58 0.005 0  0.585 0.005 0  0.59 0.005 0  0.595 0.005 0  0.6 0.005 0  0.605 0.005 0  0.61 0.005 0  0.615 0.005 0  0.62 0.005 0  0.625 0.005 0  0.63 0.005 0  0.635 0.005 0  0.64 0.005 0  0.645 0.005 0  0.65 0.005 0  0.655 0.005 0  0.66 0.005 0  0.665 0.005 0  0.67 0.005 0  0.675 0.005 0  0.68 0.005 0  0.6850000000000001 0.005 0  0.6899999999999999 0.005 0  0.695 0.005 0  0.7 0.005 0  0.705 0.005 0  0.71 0.005 0  0.715 0.005 0  0.72 0.005 0  0.725 0.005 0  0.73 0.005 0  0.735 0.005 0  0.74 0.005 0  0.745 0.005 0  0.75 0.005 0  0.755 0.005 0  0.76 0.005 0  0.765 0.005 0  0.77 0.005 0  0.775 0.005 0  0.78 0.005 0  0.785 0.005 0  0.79 0.005 0  0.795 0.005 0  0.8 0.005 0  0.805 0.005 0  0.8100000000000001 0.005 0  0.8149999999999999 0.005 0  0.82 0.005 0  0.825 0.005 0  0.83 0.005 0  0.835 0.005 0  0.84 0.005 0  0.845 0.005 0  0.85 0.005 0  0.855 0.005 0  0.86 0.005 0  0.865 0.005 0  0.87 0.005 0  0.875 0.005 0  0.88 0.005 0  0.885 0.005 0  0.89 0.005 0  0.895 0.005 0  0.9 0.005 0  0.905 0.005 0  0.91 0.005 0  0.915 0.005 0  0.92 0.005 0  0.925 0.005 0  0.93 0.005 0  0.9350000000000001 0.005 0  0.9399999999999999 0.005 0  0.945 0.005 0  0.95 0.005 0  0.955 0.005 0  0.96 0.005 0  0.965 0.005 0  0.97 0.005 0  0.975 0.005 0  0.98 0.005 0  0.985 0.005 0  0.99 0.005 0  0.995 0.005 0  1 0.005 0  0 0.01 0  0.005 0.01 0  0.01 0.01 0  0.015 0.01 0  0.02 0.01 0  0.025 0.01 0  0.03 0.01 0  0.035 0.01 0  0.04 0.01 0  0.045 0.01 0  0.05 0.01 0  0.055 0.01 0  0.06 0.01 0  0.065 0.01 0  0.07000000000000001 0.01 0  0.075 0.01 0  0.08 0.01 0  0.08500000000000001 0.01 0  0.09 0.01 0  0.095 0.01 0  0.1 0.01 0  0.105 0.01 0  0.11 0.01 0  0.115 0.01 0  0.12 0.01 0  0.125 0.01 0  0.13 0.01 0  0.135 0.01 0  0.14 0.01 0  0.145 0.01 0  0.15 0.01 0  0.155 0.01 0  0.16 0.01 0  0.165 0.01 0  0.17 0.01 0  0.175 0.01 0  0.18 0.01 0  0.185 0.01 0  0.19 0.01 0  0.195 0.01 0  0.2 0.01 0  0.205 0.01 0  0.21 0.01 0  0.215 0.01 0  0.22 0.01 0  0.225 0.01 0  0.23 0.01 0  0.235 0.01 0  0.24 0.01 0  0.245 0.01 0  0.25 0.01 0  0.255 0.01 0  0.26 0.01 0  0.265 0.01 0  0.27 0.01 0  0.275 0.01 0  0.28 0.01 0  0.285 0.01 0  0.29 0.01 0  0.295 0.01 0  0.3 0.01 0  0.305 0.01 0  0.31 0.01 0  0.315 0.01 0  0.32 0.01 0  0.325 0.01 0  0.33 0.01 0  0.335 0.01 0  0.34 0.01 0  0.345 0.01 0  0.35 0.01 0  0.355 0.01 0  0.36 0.01 0  0.365 0.01 0  0.37 0.01 0  0.375 0.01 0  0.38 0.01 0  0.385 0.01 0  0.39 0.01 0  0.395 0.01 0  0.4 0.01 0  0.405 0.01 0  0.41 0.01 0  0.415 0.01 0  0.42 0.01 0  0.425 0.01 0  0.43 0.01 0  0.435 0.01 0  0.44 0.01 0  0.445 0.01 0  0.45 0.01 0  0.455 0.01 0  0.46 0.01 0  0.465 0.01 0  0.47 0.01 0  0.475 0.01 0  0.48 0.01 0  0.485 0.01 0  0.49 0.01 0  0.495 0.01 0  0.5 0.01 0  0.505 0.01 0  0.51 0.01 0  0.515 0.01 0  0.52 0.01 0  0.525 0.01 0  0.53 0.01 0  0.535 0.01 0  0.54 0.01 0  0.545 0.01 0  0.55 0.01 0  0.555 0.01 0  0.5600000000000001 0.01 0  0.5649999999999999 0.01 0  0.57 0.01 0  0.575 0.01 0  0.58 0.01 0  0.585 0.01 0  0.59 0.01 0  0.595 0.01 0  0.6 0.01 0  0.605 0.01 0  0.61 0.01 0  0.615 0.01 0  0.62 0.01 0  0.625 0.01 0  0.63 0.01 0  0.635 0.01 0  0.64 0.01 0  0.645 0.01 0  0.65 0.01 0  0.655 0.01 0  0.66 0.01 0  0.665 0.01 0  0.67 0.01 0  0.675 0.01 0  0.68 0.01 0  0.6850000000000001 0.01 0  0.6899999999999999 0.01 0  0.695 0.01 0  0.7 0.01 0  0.705 0.01 0  0.71 0.01 0  0.715 0.01 0  0.72 0.01 0  0.725 0.01 0  0.73 0.01 0  0.735 0.01 0  0.74 0.01 0  0.745 0.01 0  0.75 0.01 0  0.755 0.01 0  0.76 0.01 0  0.765 0.01 0  0.77 0.01 0  0.775 0.01 0  0.78 0.01 0  0.785 0.01 0  0.79 0.01 0  0.795 0.01 0  0.8 0.01 0  0.805 0.01 0  0.8100000000000001 0.01 0  0.8149999999999999 0.01 0  0.82 0.01 0  0.825 0.01 0  0.83 0.01 0  0.835 0.01 0  0.84 0.01 0  0.845 0.01 0  0.85 0.01 0  0.855 0.01 0  0.86 0.01 0  0.865 0.01 0  0.87 0.01 0  0.875 0.01 0  0.88 0.01 0  0.885 0.01 0  0.89 0.01 0  0.895 0.01 0  0.9 0.01 0  0.905 0.01 0  0.91 0.01 0  0.915 0.01 0  0.92 0.01 0  0.925 0.01 0  0.93 0.01 0  0.9350000000000001 0.01 0  0.9399999999999999 0.01 0  0.945 0.01 0  0.95 0.01 0  0.955 0.01 0  0.96 0.01 0  0.965 0.01 0  0.97 0.01 0  0.975 0.01 0  0.98 0.01 0  0.985 0.01 0  0.99 0.01 0  0.995 0.01 0  1 0.01 0  0 0.015 0  0.005 0.015 0  0.01 0.015 0  0.015 0.015 0  0.02 0.015 0  0.025 0.015 0  0.03 0.015 0  0.035 0.015 0  0.04 0.015 0  0.045 0.015 0  0.05 0.015 0  0.055 0.015 0  0.06 0.015 0  0.065 0.015 0  0.07000000000000001 0.015 0  0.075 0.015 0  0.08 0.015 0  0.08500000000000001 0.015 0  0.09 0.015 0  0.095 0.015 0  0.1 0.015 0  0.105 0.015 0  0.11 0.015 0  0.115 0.015 0  0.12 0.015 0  0.125 0.015 0  0.13 0.015 0  0.135 0.015 0  0.14 0.015 0  0.145 0.015 0  0.15 0.015 0  0.155 0.015 0  0.16 0.015 0  0.165 0.015 0  0.17 0.015 0  0.175 0.015 0  0.18 0.015 0  0.185 0.015 0  0.19 0.015 0  0.195 0.015 0  0.2 0.015 0  0.205 0.015 0  0.21 0.015 0  0.215 0.015 0  0.22 0.015 0  0.225 0.015 0  0.23 0.015 0  0.235 0.015 0  0.24 0.015 0  0.245 0.015 0  0.25 0.015 0  0.255 0.015 0  0.26 0.015 0  0.265 0.015 0  0.27 0.015 0  0.275 0.015 0  0.28 0.015 0  0.285 0.015 0  0.29 0.015 0  0.295 0.015 0  0.3 0.015 0  0.305 0.015 0  0.31 0.015 0  0.315 0.015 0  0.32 0.015 0  0.325 0.015 0  0.33 0.015 0  0.335 0.015 0  0.34 0.015 0  0.345 0.015 0  0.35 0.015 0  0.355 0.015 0  0.36 0.015 0  0.365 0.015 0  0.37 0.015 0  0.375 0.015 0  0.38 0.015 0  0.385 0.015 0  0.39 0.015 0  0.395 0.015 0  0.4 0.015 0  0.405 0.015 0  0.41 0.015 0  0.415 0.015 0  0.42 0.015 0  0.425 0.015 0  0.43 0.015 0  0.435 0.015 0  0.44 0.015 0  0.445 0.015 0  0.45 0.015 0  0.455 0.015 0  0.46 0.015 0  0.465 0.015 0  0.47 0.015 0  0.475 0.015 0  0.48 0.015 0  0.485 0.015 0  0.49 0.015 0  0.495 0.015 0  0.5 0.015 0  0.505 0.015 0  0.51 0.015 0  0.515 0.015 0  0.52 0.015 0  0.525 0.015 0  0.53 0.015 0  0.535 0.015 0  0.54 0.015 0  0.545 0.015 0  0.55 0.015 0  0.555 0.015 0  0.5600000000000001 0.015 0  0.
[...]
<PointData  Scalars="Indicator Function"> 
<DataArray  type="Float64"  Name="Indicator Function"  format="ascii">1.4444474582904269e-34  2.4339100256930791e-18  9.2767234610453222e-19  2.2923657326071602e-17  1.2172848259830183e-17  -1.7429700238915267e-19  -1.1113223255578570e-19  1.1165554303407333e-18  7.1066083260441863e-17  -1.1363655534867067e-20  4.8505630224893934e-18  9.4671742157786630e-17  3.0092655381050560e-36  -4.1407493804325571e-33  7.4685108883321861e-17  -2.9372021389430481e-19  -1.4573749849248981e-19  7.1411374261322195e-18  -1.5021954899661352e-19  -3.3703774026776627e-33  -1.8983867543340255e-17  -1.8437943167329781e-19  -4.2882225877919787e-19  8.0099815436328230e-18  -2.4203801429371277e-19  -1.8612527015230719e-19  -6.6225685838726110e-19  -8.2819437888911990e-19  -8.6479891531190847e-18  7.2222372914521344e-35  -7.9634787395346929e-19  -8.6149568559127929e-19  -4.8148248609680896e-35  -3.8083768685743439e-19  5.1255428785585815e-16  -3.9689746790417241e-19  -5.9894394376038404e-19  -8.5347508192647398e-19  -8.6262410120719326e-20  -5.3926038442842604e-33  -1.6863510456831878e-17  3.8518598887744717e-34  -2.0670650423388786e-19  -3.2451629389273330e-19  -3.1982933039802622e-19  -1.8071139054030057e-19  7.4982642395820253e-16  -3.9552115737912637e-19  -7.4897367863365068e-19  -3.7448683931682549e-19  -6.0753199435482953e-19  -6.6947455109799666e-19  -6.0463157186460935e-19  -1.0856539919488175e-18  -5.4282699597440922e-19  -5.8509538628847641e-19  2.3724751557722435e-15  -3.1507904390902138e-19  -5.7520151518141171e-19  -8.9428172175249604e-19  -5.0402052333491000e-19  -1.2099666026262194e-18  -4.1429157205716028e-19  -9.2983140789951430e-19  -5.4008392995745163e-19  -1.1385020097164546e-18  -1.2403953646168634e-18  -2.5401333730440488e-19  8.1447477203353918e-17  -1.5649497298340866e-18  -1.6319295670754858e-18  -7.4119759900345668e-19  -6.8062769828119388e-19  -1.5910989206009030e-18  -2.4983841303149157e-18  -3.1655254529946938e-18  -3.4666345223892921e-18  -3.5086532459458587e-18  -3.1565025277747021e-18  -2.5096990320638230e-18  -1.1962073906967432e-18  9.1720902481532268e-16  -1.0649952589972089e-18  -1.5047746397913855e-18  -1.0685482562596083e-18  -7.5502540237176180e-19  -3.9639822705036894e-19  -8.2359566856402248e-19  -5.3077115453338337e-19  -6.1058921839245348e-19  -3.0529460919622703e-19  -5.3140826333952451e-19  -3.2252625616119127e-19  8.1991765228411199e-16  -1.9746387474101172e-19  -2.5051895938685969e-20  0.0000000000000000e+00  -1.4896858438004104e-20  -9.2866452806739773e-20  -1.2144490251630455e-19  5.4572350102223178e-16  1.0412401108881370e-15  1.0100815194373441e-16  -4.7647287099743640e-17  4.7507347239502442e-16  2.4942311122965296e-16  3.0497398069537761e-16  3.0289028757510274e-16  3.5282402456811260e-17  1.8497004706990541e-16  7.9880035353562044e-17  7.3796104849423337e-17  -2.6323862257228206e-21  2.0462230848613636e-17  7.3260044983558670e-18  1.7131590446925526e-17  -2.1131693656830992e-17  -7.6448312604805642e-18  2.5503173978576284e-18  2.2202211333008275e-17  -1.5174785560361141e-17  7.9080077568092335e-18  1.9507905859696420e-18  4.8836527056072592e-17  -5.9873761573005766e-18  6.8024120136424685e-18  2.2811529152807727e-19  -4.1199627441631863e-19  1.2933934701828846e-17  1.3769937884955255e-18  -1.7526821288055632e-19  1.7138820074341398e-18  -1.3481509610710651e-32  7.2701033528257509e-18  1.1520247099463136e-17  2.2121717003615068e-19  -4.3283725018526410e-21  -1.5353234108209685e-21  7.9681222761720008e-19  7.0618679297832778e-19  1.9974241771530464e-18  7.0450745172041046e-19  1.6158007298066826e-19  1.7548289251729607e-18  6.6387563150412556e-19  4.0373281665017531e-18  6.8442464270052850e-19  7.1891949525809558e-18  1.4100110102322355e-17  1.0394009340728530e-18  1.8660550911148105e-18  2.7065038563101430e-17  1.4986675317148956e-17  1.3299373260425552e-18  -5.2406988431922067e-19  2.0067485076709101e-18  3.2797805778070563e-19  1.4050006504255714e-18  2.7292964322649090e-19  -2.7329845326652632e-19  4.6792523206257570e-19  -5.4994944315278436e-20  -2.8703220738752866e-21  8.8227118019301565e-20  1.0904594662460488e-18  8.6263937829773334e-18  4.5153160574887847e-19  2.5332871851710309e-19  5.8891853576527764e-18  5.8427378473940602e-19  3.1197622470816681e-18  4.3338498196251816e-19  1.6456317998964016e-18  1.5752137104451689e-19  4.5551135133259824e-19  6.6798735399723478e-19  1.3403902821229468e-18  3.5054208039443079e-19  1.7629706944040010e-18  5.8741368166187994e-19  4.2134508474685675e-20  4.1713163389940685e-20  -7.7762940498413888e-21  3.9375611648475075e-20  2.9218370792904780e-20  9.1069344316944984e-21  3.9492017371911544e-19  -8.3460098908382413e-37  1.6694517464187067e-19  1.7230914941343415e-19  7.9005866996802204e-20  3.6111186457260672e-34  4.6504777050062824e-20  -5.6722871846706567e-21  -4.5236688247165277e-21  4.2935244998663222e-20  2.6691374602903693e-21  5.1575510571635822e-20  7.8733128720844130e-21  2.1183571319551053e-20  -9.2864053714960713e-37  1.0833355937178202e-34  1.2516110937044942e-03  1.2271631616362952e-04  2.4144206883752414e-03  3.1428987220182033e-03  2.9154295400772171e-03  3.1398556600463292e-03  2.0019803245083377e-03  2.6019933104530343e-03  1.9985597750832758e-03  1.5523863510731964e-05  1.3375782111811020e-03  1.2568936667989276e-04  6.7565147296880571e-04  9.7011705979900952e-03  7.6831326381146163e-03  5.2911929833822932e-03  2.6253733756188033e-03  5.4122296390792983e-03  3.6460800385579540e-03  6.4938565999144108e-03  6.6429691182291811e-03  4.2780338455368121e-03  7.7249750593847378e-03  7.4894094365556916e-03  6.1546452565279389e-04  8.1770639243955601e-03  1.6117614628117297e-02  7.2308547855528408e-03  6.7797400123807234e-03  2.4762844294030504e-02  1.9643058065612648e-03  1.4537173691160067e-02  1.3721123716958846e-02  7.3135857676047324e-03  1.4299738308460189e-02  2.1579229775480643e-02  7.1059172223834760e-03  1.5374840243736284e-02  1.5539654323030116e-03  5.3713329163397883e-03  3.4883094559196464e-03  7.4473866835423775e-03  1.1691931682007745e-02  1.1523066025621660e-02  9.4828368093645844e-04  2.7812651639275623e-03  8.6544991429535255e-04  7.1250757479591241e-03  1.3492310320019274e-02  2.1888646907136506e-02  2.4120362710871760e-02  1.5988273565190895e-02  2.8979373043881295e-03  1.9557403654375943e-02  2.1080282909320829e-02  8.2345599515332851e-03  1.1351918917927356e-02  2.0723818635471604e-02  2.4495597581943962e-03  1.8159253128625440e-02  1.3740787213115684e-02  1.4926426956314898e-02  1.0546019796282792e-02  1.1477343630393147e-02  3.9906153276241156e-03  2.6386362875346233e-02  9.1517949698492682e-03  5.7603350417827284e-03  1.3261301604242832e-02  2.1560977278415980e-02  1.8617740921496217e-02  4.0433584619713860e-03  1.2261098593428893e-02  2.2532140726996858e-02  3.3740816989760024e-02  4.0154628507274866e-02  4.2372021519411003e-02  4.2020267044350697e-02  3.5852360909345349e-02  2.7284538047786227e-02  7.9066876121055858e-03  5.2108593981407079e-03  1.6579819307214343e-02  1.8817700374557048e-02  9.8404039275941310e-03  1.3601328483106899e-02  3.4021138898401724e-04  1.4836580584195545e-02  2.1432328030044304e-03  1.0999397505714784e-02  1.9146000454059876e-02  1.1620233016517361e-02  8.3731902578666108e-03  4.0652154912762060e-03  3.5571929308110192e-03  4.5129483685756245e-04  5.3671588888308888e-04  3.3458665780452261e-03  2.1198585821965146e-03  1.1278275797757869e-03  3.8821916443613357e-03  4.5825395785354973e-03  2.1485287051580195e-03  1.6006007468221475e-03  1.6212587171045336e-04  9.7106626110938653e-04  2.6452986744011594e-04  1.8369178022607873e-03  2.3750736250370877e-04  5.7928464139454404e-04  3.7920654313444279e-04  9.4841709002114785e-05  1.1425829250322421e-04  4.4996009795489697e-04  7.7933155912161226e-04  1.5069599318242688e-03  5.5338935512335558e-04  8.9626293764465017e-04  1.0099986937993711e-03  1.2676862499386419e-03  5.8269005617554302e-04  2.2287127243707122e-04  1.6921341742951249e-05  5.7963731897758266e-04  3.0926532201940650e-04  1.7036086160134343e-04  1.8042130994357826e-04  1.9885557987808100e-04  1.6485973499975927e-04  1.0239781097842327e-04  9.4376435132514675e-05  1.6716327754692931e-05  6.0499705585033784e-05  3.2636890275419951e-05  1.0063369338818228e-05  3.4226645799626660e-05  3.3988929924509298e-05  1.0663462801210736e-05  1.5197224672372665e-05  4.6982053918645046e-05  6.8930903449792129e-05  7.0778635543560683e-05  6.3432592493037500e-05  5.6587799387931093e-05  2.6529128320429484e-05  7.3891756953418718e-06  2.8596990878299397e-05  1.4871123273287168e-04  2.7567679634349037e-04  3.2214265694185327e-04  2.3760229070894840e-04  8.9430043670758188e-05  2.3073881978949781e-05  8.2940092086392225e-05  1.0660469577780250e-04  1.0601055923959244e-04  9.1112600302257953e-05  7.2523119424987474e-05  6.0137260756249049e-05  4.7753821057384152e-05  4.2842393284118387e-05  4.0312088185258794e-05  3.1551081596722817e-05  3.7182015893402423e-05  8.6245466832020332e-05  1.4776709928827648e-04  1.6791756612813508e-04  1.5640237917788260e-04  1.3353332639998993e-04  1.0706221806836298e-04  8.2932013306369581e-05  6.3310077598377894e-05  4.9986050150168312e-05  4.2862660112436206e-05  4.4311498095243019e-05  4.7901935752215509e-05  3.4776855237012517e-05  1.8901083426646157e-05  8.2339055232714079e-06  1.4621073655106428e-06  1.8975695666604161e-06  3.5065146418250357e-07  5.4312370981668489e-07  5.1330431160616605e-06  6.4425052503197481e-06  6.0245854063715964e-06  3.5726761627658019e-06  3.0746028202612845e-06  3.4023483068357497e-06  1.5780456295365566e-06  5.7471172976678597e-09  2.8298360598825304e-07  1.0208906595694267e-06  7.6415744173280475e-07  9.6697362416406695e-07  7.3414910208963611e-07  6.1138093823094372e-07  4.2620968960306611e-07  6.9291509265210994e-08  -3.7374991823001144e-24  1.3240768367662246e-34  3.7734069872833939e-03  5.4567539587754149e-03  1.7384066018892453e-03  4.0847017479824135e-03  5.8121974976614839e-03  3.7010553124728062e-04  1.1090802106833615e-02  3.6784742815459427e-04  8.9810105688651089e-03  6.6686757349850986e-03  6.5539858323195397e-03  1.4431332158905699e-02  7.0659573050779840e-03  3.4288062666727676e-03  1.1140903839317625e-02  1.3623625105911485e-02  2.4616764513322377e-02  8.7937363490869971e-03  3.8143501029798193e-03  9.6551985707102727e-03  2.8605816096362285e-02  1.1167247971902277e-02  1.8284447515927109e-02  7.9365406862873505e-03  1.6378683109931035e-02  1.4161552426788010e-03  1.0016999419826533e-02  3.4665746478837662e-03  3.5457082895142163e-02  1.3272592422354079e-03  1.9405973779342136e-02  3.3998205232244297e-02  1.2022669709645795e-02  3.2731588071187402e-02  1.9269401201689417e-02  2.8980328303081296e-03  2.6418521432154950e-04  2.7609530353722374e-02  1.3388219710994704e-02  1.9120942375896371e-02  3.9471049052835321e-02  3.0468621652026316e-02  3.6988442892390755e-02  4.4549033359427385e-02  4.5820506848247823e-02  3.0208557397211313e-02  2.7850661164214259e-02  4.5057363624474323e-02  4.4827035479141832e-02  2.5563374559667288e-02  1.0227299555249389e-02  4.4223925537240950e-02  6.1869376679529846e-02  5.3387689097683551e-02  2.5805325529291354e-02  8.4765552078564597e-03  3.3734958885440411e-02  2.3082661713069174e-02  1.8266955814169861e-02  2.1224187969513541e-02  2.2330153542140477e-02  5.1342591245735945e-02  9.0664914117527771e-03  1.5977957777506289e-02  2.2537223127452814e-02  2.6982598287874537e-02  3.7735776352505364e-02  9.3348596012700624e-03  2.2638445895294564e-02  2.0023035542018661e-02  2.7397660374679680e-02  1.2462626689542419e-02  7.5147807773118880e-03  2.5888979165314026e-02  4.5183146540856353e-02  4.7875481337385936e-02  6.0651280736323601e-02  5.4053359857226785e-02  5.8301797407549122e-02  3.9630915545672191e-02  2.2563460356782649e-02  3.0911283682080741e-03  1.5482656598170828e-02  2.4177768898425548e-02  2.5354098358401061e-02  1.1584461290142987e-02  1.8759550804450138e-02  2.6522820404178606e-02  1.2799988252726376e-02  1.9479277477840558e-02  1.5932204362514892e-02  3.1686413735893877e-04  3.1388134962080203e-03  6.2178203867795968e-03  1.0142141001044963e-02  6.1529396117831750e-03  4.8960455289042311e-03  2.7240394055312567e-03  6.8812677228339853e-03  9.9636052653641859e-03  8.2361036958256955e-03  2.4654368036768075e-03  3.8788249036177743e-03  4.1635367467796839e-03  4.5469393275811261e-03  1.6553843540372854e-03  2.8263365360856789e-03  2.5874248315939348e-03  1.5985000882117609e-03  4.3463082199765796e-04  1.3056674427249690e-03  2.0374743092824423e-04  8.3773785898734693e-05  7.1617871238875683e-05  1.4927173117879452e-03  7.4150510594497409e-04  2.4119059637315423e-03  2.4833558697921206e-04  2.3052328457208414e-03  7.1880514033981907e-04  1.9216794590184625e-03  1.2735546168579528e-04  2.3674652052633872e-04  4.6347436171261615e-04  7.9507844930651436e-04  1.8072183978246512e-04  3.3304399512787809e-04  1.8356900954587780e-04  2.4657591494679863e-04  1.5197206919339147e-04  1.4990760338066250e-04  7.2848255230254796e-05  2.9083519153531937e-05  1.0812129909581122e-04  1.9968389436109716e-05  1.3672130334136872e-05  6.7401186685369827e-05  2.3249333634658478e-05  1.0654303681541943e-05  5.0107003202631241e-05  8.6703542593313392e-05  9.9711687231376347e-05  8.7257953017248459e-05  8.1523904523159524e-05  6.1016719462596087e-05  6.0310628257824398e-06  4.9885751472093151e-06  1.3986923030825940e-04  3.2786864937420094e-04  4.3882046102736313e-04  3.8238846942745594e-04  1.8344018797162795e-04  7.8529395713762142e-06  8.3221281505362025e-05  1.2816826367244137e-04  1.4376794181747310e-04  1.3415034691538594e-04  1.1027631824633978e-04  9.0128756271143313e-05  7.5588225541122164e-05  6.0435788368243334e-05  6.0794011467236511e-05  5.1552468027929675e-05  4.4648277575481118e-05  8.5664097960937415e-05  1.8040942931770763e-04  2.3222453604162895e-04  2.1955102091251433e-04  1.9202339221150889e-04  1.6063323931376713e-04  1.2717026428426542e-04  9.8950705484774786e-05  7.5630713521794891e-05  6.3572546697732203e-05  5.7979388345503184e-05  6.6430535470937934e-05  5.7518125704881577e-05  3.1339627318298693e-05  1.4729753113584256e-05  5.6897296894069506e-06  1.3898070865974798e-06  1.4639729208780982e-06  1.1914821433217669e-06  5.1428307522425842e-06  1.0234352890776373e-05  8.3792317430991357e-06  7.1231181496235680e-06  2.9372962465123177e-06  5.7932632043263178e-06  3.7204729949711621e-06  4.1297116842921052e-07  1.4290220978865476e-07  8.4867310301276786e-09  1.6795939344366828e-06  1.0042553286334703e-06  1.1269234187680098e-06  9.2445548944627138e-07  8.6373470811417125e-07  6.2283469772276799e-07  1.5558421993814035e-22  -2.4981181289201964e-20  1.3988156036200531e-03  1.2660454112724310e-03  6.8273642089559510e-06  3.3406214623592436e-03  1.3052185187249234e-02  7.4984302727942995e-04  1.2019873493977044e-02  1.1840284503798352e-02  6.3972252725472039e-03  1.1021182460480393e-02  3.5397022898493603e-03  8.2851614755258436e-03  8.9064948574960976e-03  1.7625155859762580e-04  1.2492316024300107e-02  2.1906659193844009e-02  2.7234865789112345e-02  1.7624010339273716e-02  1.2155479216127522e-02  1.2489625054170554e-02  3.8219285457499611e-04  7.2802200953946891e-03  1.3042605529892847e-02  2.5608663181177920e-02  2.8921988171694631e-03  1.9019805406847632e-04  1.5851933878260907e-02  4.0957540734839017e-02  4.0519453712247258e-03  2.0382496503878012e-02  3.9740167619587756e-02  1.4352993418803058e-02  4.1489357586407871e-02  7.4696403394306629e-03  1.0029243247144985e-02  2.5517827616676297e-02  5.0615490749827852e-02  3.5882952021640900e-02  4.4907555569625314e-02  2.1841327802933526e-02  3.2588953048589271e-03  1.9133413258113942e-02  6.7599722972072358e-03  7.4890566246236436e-03  9.7085988404576398e-03  1.0092314760744818e-02  2.1292278386022916e-02  2.1853821602707553e-02  3.6830020807423342e-02  5.1579149372700486e-02  6.1202302160193199e-02  5.2953034796264307e-02  2.4046861030820897e-02  2.4621295060660880e-02  6.6042889979776601e-02  6.7459377718397079e-02  2.4054005962157274e-02  3.4276726702095854e-02  5.7639015488642226e-02  1.1907431826690395e-02  3.9460727991796479e-02  2.8961589575972994e-02  3.7869095588721507e-02  3.8011010379182218e-02  1.4710052862548374e-02  4.7412884614026598e-03  5.9072388559115965e-02  6.7005056988558862e-03  2.3623861718117593e-02  2.4552438870821092e-02  3.0542089950009069e-02  2.3323970522846089e-02  4.6085130372120562e-03  2.6284243099201219e-02  3.4841980771873331e-02  5.5773881849849924e-02  6.0068883332951253e-02  6.5368350729930080e-02  6.0173897527374801e-02  5.3197414625805503e-02  3.7062633602226204e-02  4.0358146880335967e-03  1.2479954968556488e-02  2.5503526826255733e-02  2.4279444500169237e-02  1.2576832787957940e-02  3.4641946183111720e-02  4.5190700118812599e-03  4.1008727896727583e-02  3.3538401350641503e-03  3.4098632836937093e-02  5.3943146188167666e-02  3.7143524700486437e-02  2.6001589571298767e-02  1.6525516120699371e-02  1.4319352007800067e-02  6.2598103867231815e-03  1.2798873409521835e-03  5.1816115340645296e-03  2.9487720596508490e-03  5.3693155194028839e-03  1.2341330584919697e-02  1.2567254685314588e-02  5.5449408362744758e-03  2.0693119087329252e-03  1.3482942050207451e-03  5.4288985710955419e-04  1.0659185975154756e-03  4.5327753223012215e-03  6.3262124814546120e-04  3.3641978505261077e-04  9.6580811110960586e-04  4.7435901001751740e-04  3.7574244653750129e-04  6.5989294520513620e-04  1.6794616763502019e-03  3.6137907625630153e-03  7.0042495954175058e-04  5.7922838840288569e-04  2.1656143319634773e-03  3.2474954983215528e-03  6.4594300358213020e-04  4.6981034114546184e-04  2.8997371874823423e-05  1.0328953575766476e-03  3.0006583899871991e-04  6.7996270803971897e-04  2.3920236981564110e-04  1.6888859769267103e-04  2.0746639599836115e-04  1.2293761633190502e-04  1.7101280007991506e-04  4.3633944506627630e-07  1.1108387490310101e-04  6.6506492436184592e-05  5.4633121974535036e-05  7.4125085284945026e-05  6.2389129776959390e-05  4.2960362559378153e-06  3.9945743237999714e-05  8.3908281009923064e-05  1.1010667263870926e-04  1.0274628867960855e-04  8.6683823656301241e-05  8.4047753839787499e-05  3.5069153527919658e-05  1.7883811579267120e-05  7.1509695330564728e-05  2.9553227045260995e-04  4.7385126448965903e-04  4.8372287710449089e-04  2.8653857395607719e-04  4.4239623335772519e-05  7.3427499972421320e-05  1.1476878783568170e-04  1.4047222126352792e-04  1.4641403987581043e-04  1.2996071175961911e-04  1.0550589972039274e-04  9.2752681553945885e-05  7.4681015473991756e-05  6.7665500364511553e-05  6.7334379982987108e-05  5.0637127840056578e-05  6.3295839967007946e-05  1.5684225285021101e-04  2.5747344054667274e-04  2.5762877977819192e-04  2.1716023608605252e-04  1.8578146841741514e-04  1.5428943987234124e-04  1.2256950096707303e-04  9.5527908145075886e-05  7.6273418854346667e-05  6.7325565938779384e-05  6.9646625641456370e-05  7.6066102320870364e-05  4.6143260270877701e-05  1.9130819191301322e-05  8.8459181452320069e-06  2.5101976587691401e-06  2.6902549829698513e-06  2.1677042589895166e-06  9.8766520114826249e-07  1.1361854663569900e-05  1.1541781318267363e-05  8.4805872455494906e-06  4.7177864831652266e-06  4.2689371489542669e-06  6.7824097301505804e-06  2.2865617662695058e-06  6.7051259748216200e-07  1.1311161939300369e-06  1.4375543131332982e-06  9.2246540861665083e-07  1.2794062537412319e-06  9.0274701290890195e-07  8.1609071163464831e-07  6.0756255629266527e-07  -1.0697400261915293e-23  -3.8518598887744717e-34  4.5002095498130115e-04  2.7330705698740349e-03  1.1038082922383067e-02  2.6514840822816068e-04  7.5016824430301744e-04  3.8069745466747938e-03  6.4651905990746232e-03  9.7191088826294545e-03  3.2108799419757776e-03  8.6248556123538697e-03  9.5722586508450499e-03  6.7684737152887194e-03  1.7767475426232318e-02  1.3635113880214636e-02  1.6488361365592629e-03  2.5792592365789836e-02  1.6742505818069103e-03  2.9968391898290377e-02  1.7152651368146563e-02  1.2419118