<?xml version="1.0"?>
<VTKFile type="UnstructuredGrid"  version="0.1"  >
<UnstructuredGrid>
<Piece  NumberOfPoints="40401" NumberOfCells="80000">
<Points>
<DataArray  type="Float64"  NumberOfComponents="3"  format="ascii">0 0 0  0.005 0 0  0.01 0 0  0.015 0 0  0.02 0 0  0.025 0 0  0.03 0 0  0.035 0 0  0.04 0 0  0.045 0 0  0.05 0 0  0.055 0 0  0.06 0 0  0.065 0 0  0.07000000000000001 0 0  0.075 0 0  0.08 0 0  0.08500000000000001 0 0  0.09 0 0  0.095 0 0  0.1 0 0  0.105 0 0  0.11 0 0  0.115 0 0  0.12 0 0  0.125 0 0  0.13 0 0  0.135 0 0  0.14 0 0  0.145 0 0  0.15 0 0  0.155 0 0  0.16 0 0  0.165 0 0  0.17 0 0  0.175 0 0  0.18 0 0  0.185 0 0  0.19 0 0  0.195 0 0  0.2 0 0  0.205 0 0  0.21 0 0  0.215 0 0  0.22 0 0  0.225 0 0  0.23 0 0  0.235 0 0  0.24 0 0  0.245 0 0  0.25 0 0  0.255 0 0  0.26 0 0  0.265 0 0  0.27 0 0  0.275 0 0  0.28 0 0  0.285 0 0  0.29 0 0  0.295 0 0  0.3 0 0  0.305 0 0  0.31 0 0  0.315 0 0  0.32 0 0  0.325 0 0  0.33 0 0  0.335 0 0  0.34 0 0  0.345 0 0  0.35 0 0  0.355 0 0  0.36 0 0  0.365 0 0  0.37 0 0  0.375 0 0  0.38 0 0  0.385 0 0  0.39 0 0  0.395 0 0  0.4 0 0  0.405 0 0  0.41 0 0  0.415 0 0  0.42 0 0  0.425 0 0  0.43 0 0  0.435 0 0  0.44 0 0  0.445 0 0  0.45 0 0  0.455 0 0  0.46 0 0  0.465 0 0  0.47 0 0  0.475 0 0  0.48 0 0  0.485 0 0  0.49 0 0  0.495 0 0  0.5 0 0  0.505 0 0  0.51 0 0  0.515 0 0  0.52 0 0  0.525 0 0  0.53 0 0  0.535 0 0  0.54 0 0  0.545 0 0  0.55 0 0  0.555 0 0  0.5600000000000001 0 0  0.5649999999999999 0 0  0.57 0 0  0.575 0 0  0.58 0 0  0.585 0 0  0.59 0 0  0.595 0 0  0.6 0 0  0.605 0 0  0.61 0 0  0.615 0 0  0.62 0 0  0.625 0 0  0.63 0 0  0.635 0 0  0.64 0 0  0.645 0 0  0.65 0 0  0.655 0 0  0.66 0 0  0.665 0 0  0.67 0 0  0.675 0 0  0.68 0 0  0.6850000000000001 0 0  0.6899999999999999 0 0  0.695 0 0  0.7 0 0  0.705 0 0  0.71 0 0  0.715 0 0  0.72 0 0  0.725 0 0  0.73 0 0  0.735 0 0  0.74 0 0  0.745 0 0  0.75 0 0  0.755 0 0  0.76 0 0  0.765 0 0  0.77 0 0  0.775 0 0  0.78 0 0  0.785 0 0  0.79 0 0  0.795 0 0  0.8 0 0  0.805 0 0  0.8100000000000001 0 0  0.8149999999999999 0 0  0.82 0 0  0.825 0 0  0.83 0 0  0.835 0 0  0.84 0 0  0.845 0 0  0.85 0 0  0.855 0 0  0.86 0 0  0.865 0 0  0.87 0 0  0.875 0 0  0.88 0 0  0.885 0 0  0.89 0 0  0.895 0 0  0.9 0 0  0.905 0 0  0.91 0 0  0.915 0 0  0.92 0 0  0.925 0 0  0.93 0 0  0.9350000000000001 0 0  0.9399999999999999 0 0  0.945 0 0  0.95 0 0  0.955 0 0  0.96 0 0  0.965 0 0  0.97 0 0  0.975 0 0  0.98 0 0  0.985 0 0  0.99 0 0  0.995 0 0  1 0 0  0 0.005 0  0.005 0.005 0  0.01 0.005 0  0.015 0.005 0  0.02 0.005 0  0.025 0.005 0  0.03 0.005 0  0.035 0.005 0  0.04 0.005 0  0.045 0.005 0  0.05 0.005 0  0.055 0.005 0  0.06 0.005 0  0.065 0.005 0  0.07000000000000001 0.005 0  0.075 0.005 0  0.08 0.005 0  0.08500000000000001 0.005 0  0.09 0.005 0  0.095 0.005 0  0.1 0.005 0  0.105 0.005 0  0.11 0.005 0  0.115 0.005 0  0.12 0.005 0  0.125 0.005 0  0.13 0.005 0  0.135 0.005 0  0.14 0.005 0  0.145 0.005 0  0.15 0.005 0  0.155 0.005 0  0.16 0.005 0  0.165 0.005 0  0.17 0.005 0  0.175 0.005 0  0.18 0.005 0  0.185 0.005 0  0.19 0.005 0  0.195 0.005 0  0.2 0.005 0  0.205 0.005 0  0.21 0.005 0  0.215 0.005 0  0.22 0.005 0  0.225 0.005 0  0.23 0.005 0  0.235 0.005 0  0.24 0.005 0  0.245 0.005 0  0.25 0.005 0  0.255 0.005 0  0.26 0.005 0  0.265 0.005 0  0.27 0.005 0  0.275 0.005 0  0.28 0.005 0  0.285 0.005 0  0.29 0.005 0  0.295 0.005 0  0.3 0.005 0  0.305 0.005 0  0.31 0.005 0  0.315 0.005 0  0.32 0.005 0  0.325 0.005 0  0.33 0.005 0  0.335 0.005 0  0.34 0.005 0  0.345 0.005 0  0.35 0.005 0  0.355 0.005 0  0.36 0.005 0  0.365 0.005 0  0.37 0.005 0  0.375 0.005 0  0.38 0.005 0  0.385 0.005 0  0.39 0.005 0  0.395 0.005 0  0.4 0.005 0  0.405 0.005 0  0.41 0.005 0  0.415 0.005 0  0.42 0.005 0  0.425 0.005 0  0.43 0.005 0  0.435 0.005 0  0.44 0.005 0  0.445 0.005 0  0.45 0.005 0  0.455 0.005 0  0.46 0.005 0  0.465 0.005 0  0.47 0.005 0  0.475 0.005 0  0.48 0.005 0  0.485 0.005 0  0.49 0.005 0  0.495 0.005 0  0.5 0.005 0  0.505 0.005 0  0.51 0.005 0  0.515 0.005 0  0.52 0.005 0  0.525 0.005 0  0.53 0.005 0  0.535 0.005 0  0.54 0.005 0  0.545 0.005 0  0.55 0.005 0  0.555 0.005 0  0.5600000000000001 0.005 0  0.5649999999999999 0.005 0  0.57 0.005 0  0.575 0.005 0  0.58 0.005 0  0.585 0.005 0  0.59 0.005 0  0.595 0.005 0  0.6 0.005 0  0.605 0.005 0  0.61 0.005 0  0.615 0.005 0  0.62 0.005 0  0.625 0.005 0  0.63 0.005 0  0.635 0.005 0  0.64 0.005 0  0.645 0.005 0  0.65 0.005 0  0.655 0.005 0  0.66 0.005 0  0.665 0.005 0  0.67 0.005 0  0.675 0.005 0  0.68 0.005 0  0.6850000000000001 0.005 0  0.6899999999999999 0.005 0  0.695 0.005 0  0.7 0.005 0  0.705 0.005 0  0.71 0.005 0  0.715 0.005 0  0.72 0.005 0  0.725 0.005 0  0.73 0.005 0  0.735 0.005 0  0.74 0.005 0  0.745 0.005 0  0.75 0.005 0  0.755 0.005 0  0.76 0.005 0  0.765 0.005 0  0.77 0.005 0  0.775 0.005 0  0.78 0.005 0  0.785 0.005 0  0.79 0.005 0  0.795 0.005 0  0.8 0.005 0  0.805 0.005 0  0.8100000000000001 0.005 0  0.8149999999999999 0.005 0  0.82 0.005 0  0.825 0.005 0  0.83 0.005 0  0.835 0.005 0  0.84 0.005 0  0.845 0.005 0  0.85 0.005 0  0.855 0.005 0  0.86 0.005 0  0.865 0.005 0  0.87 0.005 0  0.875 0.005 0  0.88 0.005 0  0.885 0.005 0  0.89 0.005 0  0.895 0.005 0  0.9 0.005 0  0.905 0.005 0  0.91 0.005 0  0.915 0.005 0  0.92 0.005 0  0.925 0.005 0  0.93 0.005 0  0.9350000000000001 0.005 0  0.9399999999999999 0.005 0  0.945 0.005 0  0.95 0.005 0  0.955 0.005 0  0.96 0.005 0  0.965 0.005 0  0.97 0.005 0  0.975 0.005 0  0.98 0.005 0  0.985 0.005 0  0.99 0.005 0  0.995 0.005 0  1 0.005 0  0 0.01 0  0.005 0.01 0  0.01 0.01 0  0.015 0.01 0  0.02 0.01 0  0.025 0.01 0  0.03 0.01 0  0.035 0.01 0  0.04 0.01 0  0.045 0.01 0  0.05 0.01 0  0.055 0.01 0  0.06 0.01 0  0.065 0.01 0  0.07000000000000001 0.01 0  0.075 0.01 0  0.08 0.01 0  0.08500000000000001 0.01 0  0.09 0.01 0  0.095 0.01 0  0.1 0.01 0  0.105 0.01 0  0.11 0.01 0  0.115 0.01 0  0.12 0.01 0  0.125 0.01 0  0.13 0.01 0  0.135 0.01 0  0.14 0.01 0  0.145 0.01 0  0.15 0.01 0  0.155 0.01 0  0.16 0.01 0  0.165 0.01 0  0.17 0.01 0  0.175 0.01 0  0.18 0.01 0  0.185 0.01 0  0.19 0.01 0  0.195 0.01 0  0.2 0.01 0  0.205 0.01 0  0.21 0.01 0  0.215 0.01 0  0.22 0.01 0  0.225 0.01 0  0.23 0.01 0  0.235 0.01 0  0.24 0.01 0  0.245 0.01 0  0.25 0.01 0  0.255 0.01 0  0.26 0.01 0  0.265 0.01 0  0.27 0.01 0  0.275 0.01 0  0.28 0.01 0  0.285 0.01 0  0.29 0.01 0  0.295 0.01 0  0.3 0.01 0  0.305 0.01 0  0.31 0.01 0  0.315 0.01 0  0.32 0.01 0  0.325 0.01 0  0.33 0.01 0  0.335 0.01 0  0.34 0.01 0  0.345 0.01 0  0.35 0.01 0  0.355 0.01 0  0.36 0.01 0  0.365 0.01 0  0.37 0.01 0  0.375 0.01 0  0.38 0.01 0  0.385 0.01 0  0.39 0.01 0  0.395 0.01 0  0.4 0.01 0  0.405 0.01 0  0.41 0.01 0  0.415 0.01 0  0.42 0.01 0  0.425 0.01 0  0.43 0.01 0  0.435 0.01 0  0.44 0.01 0  0.445 0.01 0  0.45 0.01 0  0.455 0.01 0  0.46 0.01 0  0.465 0.01 0  0.47 0.01 0  0.475 0.01 0  0.48 0.01 0  0.485 0.01 0  0.49 0.01 0  0.495 0.01 0  0.5 0.01 0  0.505 0.01 0  0.51 0.01 0  0.515 0.01 0  0.52 0.01 0  0.525 0.01 0  0.53 0.01 0  0.535 0.01 0  0.54 0.01 0  0.545 0.01 0  0.55 0.01 0  0.555 0.01 0  0.5600000000000001 0.01 0  0.5649999999999999 0.01 0  0.57 0.01 0  0.575 0.01 0  0.58 0.01 0  0.585 0.01 0  0.59 0.01 0  0.595 0.01 0  0.6 0.01 0  0.605 0.01 0  0.61 0.01 0  0.615 0.01 0  0.62 0.01 0  0.625 0.01 0  0.63 0.01 0  0.635 0.01 0  0.64 0.01 0  0.645 0.01 0  0.65 0.01 0  0.655 0.01 0  0.66 0.01 0  0.665 0.01 0  0.67 0.01 0  0.675 0.01 0  0.68 0.01 0  0.6850000000000001 0.01 0  0.6899999999999999 0.01 0  0.695 0.01 0  0.7 0.01 0  0.705 0.01 0  0.71 0.01 0  0.715 0.01 0  0.72 0.01 0  0.725 0.01 0  0.73 0.01 0  0.735 0.01 0  0.74 0.01 0  0.745 0.01 0  0.75 0.01 0  0.755 0.01 0  0.76 0.01 0  0.765 0.01 0  0.77 0.01 0  0.775 0.01 0  0.78 0.01 0  0.785 0.01 0  0.79 0.01 0  0.795 0.01 0  0.8 0.01 0  0.805 0.01 0  0.8100000000000001 0.01 0  0.8149999999999999 0.01 0  0.82 0.01 0  0.825 0.01 0  0.83 0.01 0  0.835 0.01 0  0.84 0.01 0  0.845 0.01 0  0.85 0.01 0  0.855 0.01 0  0.86 0.01 0  0.865 0.01 0  0.87 0.01 0  0.875 0.01 0  0.88 0.01 0  0.885 0.01 0  0.89 0.01 0  0.895 0.01 0  0.9 0.01 0  0.905 0.01 0  0.91 0.01 0  0.915 0.01 0  0.92 0.01 0  0.925 0.01 0  0.93 0.01 0  0.9350000000000001 0.01 0  0.9399999999999999 0.01 0  0.945 0.01 0  0.95 0.01 0  0.955 0.01 0  0.96 0.01 0  0.965 0.01 0  0.97 0.01 0  0.975 0.01 0  0.98 0.01 0  0.985 0.01 0  0.99 0.01 0  0.995 0.01 0  1 0.01 0  0 0.015 0  0.005 0.015 0  0.01 0.015 0  0.015 0.015 0  0.02 0.015 0  0.025 0.015 0  0.03 0.015 0  0.035 0.015 0  0.04 0.015 0  0.045 0.015 0  0.05 0.015 0  0.055 0.015 0  0.06 0.015 0  0.065 0.015 0  0.07000000000000001 0.015 0  0.075 0.015 0  0.08 0.015 0  0.08500000000000001 0.015 0  0.09 0.015 0  0.095 0.015 0  0.1 0.015 0  0.105 0.015 0  0.11 0.015 0  0.115 0.015 0  0.12 0.015 0  0.125 0.015 0  0.13 0.015 0  0.135 0.015 0  0.14 0.015 0  0.145 0.015 0  0.15 0.015 0  0.155 0.015 0  0.16 0.015 0  0.165 0.015 0  0.17 0.015 0  0.175 0.015 0  0.18 0.015 0  0.185 0.015 0  0.19 0.015 0  0.195 0.015 0  0.2 0.015 0  0.205 0.015 0  0.21 0.015 0  0.215 0.015 0  0.22 0.015 0  0.225 0.015 0  0.23 0.015 0  0.235 0.015 0  0.24 0.015 0  0.245 0.015 0  0.25 0.015 0  0.255 0.015 0  0.26 0.015 0  0.265 0.015 0  0.27 0.015 0  0.275 0.015 0  0.28 0.015 0  0.285 0.015 0  0.29 0.015 0  0.295 0.015 0  0.3 0.015 0  0.305 0.015 0  0.31 0.015 0  0.315 0.015 0  0.32 0.015 0  0.325 0.015 0  0.33 0.015 0  0.335 0.015 0  0.34 0.015 0  0.345 0.015 0  0.35 0.015 0  0.355 0.015 0  0.36 0.015 0  0.365 0.015 0  0.37 0.015 0  0.375 0.015 0  0.38 0.015 0  0.385 0.015 0  0.39 0.015 0  0.395 0.015 0  0.4 0.015 0  0.405 0.015 0  0.41 0.015 0  0.415 0.015 0  0.42 0.015 0  0.425 0.015 0  0.43 0.015 0  0.435 0.015 0  0.44 0.015 0  0.445 0.015 0  0.45 0.015 0  0.455 0.015 0  0.46 0.015 0  0.465 0.015 0  0.47 0.015 0  0.475 0.015 0  0.48 0.015 0  0.485 0.015 0  0.49 0.015 0  0.495 0.015 0  0.5 0.015 0  0.505 0.015 0  0.51 0.015 0  0.515 0.015 0  0.52 0.015 0  0.525 0.015 0  0.53 0.015 0  0.535 0.015 0  0.54 0.015 0  0.545 0.015 0  0.55 0.015 0  0.555 0.015 0  0.5600000000000001 0.015 0  0.
[...]
<PointData  Scalars="u"> 
<DataArray  type="Float64"  Name="u"  format="ascii">0.0000000000000000e+00  0.0000000000000000e+00  0.0000000000000000e+00  0.0000000000000000e+00  0.0000000000000000e+00  0.0000000000000000e+00  0.0000000000000000e+00  0.0000000000000000e+00  0.0000000000000000e+00  0.0000000000000000e+00  0.0000000000000000e+00  0.0000000000000000e+00  0.0000000000000000e+00  0.0000000000000000e+00  0.0000000000000000e+00  0.0000000000000000e+00  0.0000000000000000e+00  0.0000000000000000e+00  0.0000000000000000e+00  0.0000000000000000e+00  0.0000000000000000e+00  0.0000000000000000e+00  0.0000000000000000e+00  0.0000000000000000e+00  0.0000000000000000e+00  0.0000000000000000e+00  0.0000000000000000e+00  0.0000000000000000e+00  0.0000000000000000e+00  0.0000000000000000e+00  0.0000000000000000e+00  0.0000000000000000e+00  0.0000000000000000e+00  0.0000000000000000e+00  0.0000000000000000e+00  0.0000000000000000e+00  0.0000000000000000e+00  0.0000000000000000e+00  0.0000000000000000e+00  0.0000000000000000e+00  0.0000000000000000e+00  0.0000000000000000e+00  0.0000000000000000e+00  0.0000000000000000e+00  0.0000000000000000e+00  0.0000000000000000e+00  0.0000000000000000e+00  0.0000000000000000e+00  0.0000000000000000e+00  0.0000000000000000e+00  0.0000000000000000e+00  0.0000000000000000e+00  0.0000000000000000e+00  0.0000000000000000e+00  0.0000000000000000e+00  0.0000000000000000e+00  0.0000000000000000e+00  0.0000000000000000e+00  0.0000000000000000e+00  0.0000000000000000e+00  0.0000000000000000e+00  0.0000000000000000e+00  0.0000000000000000e+00  0.0000000000000000e+00  0.0000000000000000e+00  0.0000000000000000e+00  0.0000000000000000e+00  0.0000000000000000e+00  0.0000000000000000e+00  0.0000000000000000e+00  0.0000000000000000e+00  0.0000000000000000e+00  0.0000000000000000e+00  0.0000000000000000e+00  0.0000000000000000e+00  0.0000000000000000e+00  0.0000000000000000e+00  0.0000000000000000e+00  0.0000000000000000e+00  0.0000000000000000e+00  0.0000000000000000e+00  0.0000000000000000e+00  0.0000000000000000e+00  0.0000000000000000e+00  0.0000000000000000e+00  0.0000000000000000e+00  0.0000000000000000e+00  0.0000000000000000e+00  0.0000000000000000e+00  0.0000000000000000e+00  0.0000000000000000e+00  0.0000000000000000e+00  0.0000000000000000e+00  0.0000000000000000e+00  0.0000000000000000e+00  0.0000000000000000e+00  0.0000000000000000e+00  0.0000000000000000e+00  0.0000000000000000e+00  0.0000000000000000e+00  0.0000000000000000e+00  0.0000000000000000e+00  0.0000000000000000e+00  0.0000000000000000e+00  0.0000000000000000e+00  0.0000000000000000e+00  0.0000000000000000e+00  0.0000000000000000e+00  0.0000000000000000e+00  0.0000000000000000e+00  0.0000000000000000e+00  0.0000000000000000e+00  0.0000000000000000e+00  0.0000000000000000e+00  0.0000000000000000e+00  0.0000000000000000e+00  0.0000000000000000e+00  0.0000000000000000e+00  0.0000000000000000e+00  0.0000000000000000e+00  0.0000000000000000e+00  0.0000000000000000e+00  0.0000000000000000e+00  0.0000000000000000e+00  0.0000000000000000e+00  0.0000000000000000e+00  0.0000000000000000e+00  0.0000000000000000e+00  0.0000000000000000e+00  0.0000000000000000e+00  0.0000000000000000e+00  0.0000000000000000e+00  0.0000000000000000e+00  0.0000000000000000e+00  0.0000000000000000e+00  0.0000000000000000e+00  0.0000000000000000e+00  0.0000000000000000e+00  0.0000000000000000e+00  0.0000000000000000e+00  0.0000000000000000e+00  0.0000000000000000e+00  0.0000000000000000e+00  0.0000000000000000e+00  0.0000000000000000e+00  0.0000000000000000e+00  0.0000000000000000e+00  0.0000000000000000e+00  0.0000000000000000e+00  0.0000000000000000e+00  0.0000000000000000e+00  0.0000000000000000e+00  0.0000000000000000e+00  0.0000000000000000e+00  0.0000000000000000e+00  0.0000000000000000e+00  0.0000000000000000e+00  0.0000000000000000e+00  0.0000000000000000e+00  0.0000000000000000e+00  0.0000000000000000e+00  0.0000000000000000e+00  0.0000000000000000e+00  0.0000000000000000e+00  0.0000000000000000e+00  0.0000000000000000e+00  0.0000000000000000e+00  0.0000000000000000e+00  0.0000000000000000e+00  0.0000000000000000e+00  0.0000000000000000e+00  0.0000000000000000e+00  0.0000000000000000e+00  0.0000000000000000e+00  0.0000000000000000e+00  0.0000000000000000e+00  0.0000000000000000e+00  0.0000000000000000e+00  0.0000000000000000e+00  0.0000000000000000e+00  0.0000000000000000e+00  0.0000000000000000e+00  0.0000000000000000e+00  0.0000000000000000e+00  0.0000000000000000e+00  0.0000000000000000e+00  0.0000000000000000e+00  0.0000000000000000e+00  0.0000000000000000e+00  0.0000000000000000e+00  0.0000000000000000e+00  0.0000000000000000e+00  0.0000000000000000e+00  0.0000000000000000e+00  0.0000000000000000e+00  0.0000000000000000e+00  0.0000000000000000e+00  0.0000000000000000e+00  0.0000000000000000e+00  0.0000000000000000e+00  0.0000000000000000e+00  0.0000000000000000e+00  1.0424970132544066e-07  2.0985818227876296e-07  3.1684632078088288e-07  4.2522463710040091e-07  5.3500261464585078e-07  6.4618913625730673e-07  7.5879244807868763e-07  8.7282011110928433e-07  9.8827895043283469e-07  1.1051750021564588e-06  1.2235134580548813e-06  1.3432986078782576e-06  1.4645337792909320e-06  1.5872212754088357e-06  1.7113623099124599e-06  1.8369569397180827e-06  1.9640039951961436e-06  2.0925010079408713e-06  2.2224441360960884e-06  2.3538280872615432e-06  2.4866460390092516e-06  2.6208895570582486e-06  2.7565485111658915e-06  2.8936109888145401e-06  3.0320632067812582e-06  3.1718894207080440e-06  3.3130718327983124e-06  3.4555904977951337e-06  3.5994232274129428e-06  3.7445454934247473e-06  3.8909303296254717e-06  4.0385482329259620e-06  4.1873670638538757e-06  4.3373519467727458e-06  4.4884651701577836e-06  4.6406660873044302e-06  4.7939110178678551e-06  4.9481531506813982e-06  5.1033424483228684e-06  5.2594255539425671e-06  5.4163457008981771e-06  5.5740426257768235e-06  5.7324524854272926e-06  5.8915077786536311e-06  6.0511372732560923e-06  6.2112659391451149e-06  6.3718148882797948e-06  6.5327013222108101e-06  6.6938384880389898e-06  6.8551356436197186e-06  7.0164980328664411e-06  7.1778268720158473e-06  7.3390193477345270e-06  7.4999686279433567e-06  7.6605638862390865e-06  7.8206903407785178e-06  7.9802293084807931e-06  8.1390582753661402e-06  8.2970509838290753e-06  8.4540775375826700e-06  8.6100045249816845e-06  8.7646951613331159e-06  8.9180094507670173e-06  9.0698043681202479e-06  9.2199340612051143e-06  9.3682500737356797e-06  9.5146015890325727e-06  9.6588356945381910e-06  9.8007976669999834e-06  9.9403312780514688e-06  1.0077279119748822e-05  1.0211482949464248e-05  1.0342784053362364e-05  1.0471023627500022e-05  1.0596043175427919e-05  1.0717684920975102e-05  1.0835792234718585e-05  1.0950210072470611e-05  1.1060785423934520e-05  1.1167367769517126e-05  1.1269809543124973e-05  1.1367966598639941e-05  1.1461698677620680e-05  1.1550869875688958e-05  1.1635349104937027e-05  1.1715010549644810e-05  1.1789734112542325e-05  1.1859405848806399e-05  1.1923918385022767e-05  1.1983171320334799e-05  1.2037071607078569e-05  1.2085533908295652e-05  1.2128480929597129e-05  1.2165843723037372e-05  1.2197561960784713e-05  1.2223584176588350e-05  1.2243867973263016e-05  1.2258380194621257e-05  1.2267097060576881e-05  1.2270004264383596e-05  1.2267097031276075e-05  1.2258380138052699e-05  1.2243867893465978e-05  1.2223584079563152e-05  1.2197561854419628e-05  1.2165843617020241e-05  1.2128480835294525e-05  1.2085533838627087e-05  1.2037071576364883e-05  1.1983171344132966e-05  1.1923918479951926e-05  1.1859406032357538e-05  1.1789734402888997e-05  1.1715010965441790e-05  1.1635349665118035e-05  1.1550870599270765e-05  1.1461699583500597e-05  1.1367967705405774e-05  1.1269810868871612e-05  1.1167369331667207e-05  1.1060787239076234e-05  1.0950212156206526e-05  1.0835794601527782e-05  1.0717687584089733e-05  1.0596046146727061e-05  1.0471026917420833e-05  1.0342787670825821e-05  1.0211486901817346e-05  1.0077283412727140e-05  9.9403359157554724e-06  9.8008026518851975e-06  9.6588410274227919e-06  9.5146072691206001e-06  9.3682560986492613e-06  9.2199404270320863e-06  9.0698110694704499e-06  8.9180164808412922e-06  8.7647025119951464e-06  8.6100121868434980e-06  8.4540855000930258e-06  8.2970592353642964e-06  8.1390668033301621e-06  7.9802380994003947e-06  7.8206993804070893e-06  7.6605731596561563e-06  7.4999781196545253e-06  7.3390290417697888e-06  7.1778367520273181e-06  7.0165080822222877e-06  6.8551458454934780e-06  6.6938488254955157e-06  6.5327117782893391e-06  6.3718254460717046e-06  6.2112765818654481e-06  6.0511479843114396e-06  5.8915185417035520e-06  5.7324632844419894e-06  5.5740534450869396e-06  5.4163565252437889e-06  5.2594363685108538e-06  5.1033532387862559e-06  4.9481639032279606e-06  4.7939217192273670e-06  4.6406767247696516e-06  4.4884757316027322e-06  4.3373624206650596e-06  4.1873774392658234e-06  4.0385584995384013e-06  3.8909404777316345e-06  3.7445555139300041e-06  3.5994331118311618e-06  3.4556002382429462e-06  3.3130814219870635e-06  3.1718988519338820e-06  3.0320724739135980e-06  2.8936200862814635e-06  2.7565574339408910e-06  2.6208983006425248e-06  2.4866545994161553e-06  2.3538364609973689e-06  2.2224523201428366e-06  2.0925089997361483e-06  1.9640117926147246e-06  1.8369645410513992e-06  1.7113697138497085e-06  1.5872284810162803e-06  1.4645407859934591e-06  1.3433054154388492e-06  1.2235200665558747e-06  1.1051814119801554e-06  9.8828516224346405e-07  8.7282612583395808e-07  7.5879826688353350e-07  6.4619476048826378e-07  5.3500804548334127e-07  4.2522987306158498e-07  3.1685133886698440e-07  2.0986279092506695e-07  1.0425265109981246e-07  0.0000000000000000e+00  0.0000000000000000e+00  2.0985255920684273e-07  4.2251781991228157e-07  6.3801743902403521e-07  8.5637695569666873e-07  1.0776185396147508e-06  1.3017625591868402e-06  1.5288281113672391e-06  1.7588329626040625e-06  1.9917934458455227e-06  2.2277243518792047e-06  2.4666388157341545e-06  2.7085481980681736e-06  2.9534619614495769e-06  3.2013875414563258e-06  3.4523302125160149e-06  3.7062929484367855e-06  3.9632762775817194e-06  4.2232781326666663e-06  4.4862936951773808e-06  4.7523152344219903e-06  5.0213319412649284e-06  5.2933297566061950e-06  5.5682911947107324e-06  5.8461951615112756e-06  6.1270167680618620e-06  6.4107271393298801e-06  6.6972932185878815e-06  6.9866775676860035e-06  7.2788381635408535e-06  7.5737281912354441e-06  7.8712958341653208e-06  8.1714840617377845e-06  8.4742304151767055e-06  8.7794667920639427e-06  9.0871192303049991e-06  9.3971076922845672e-06  9.7093458500405835e-06  1.0023740872373355e-05  1.0340193214872257e-05  1.0658596413925346e-05  1.0978836885866637e-05  1.1300793732477912e-05  1.1624338554160771e-05  1.1949335272172276e-05  1.2275639961385319e-05  1.2603100695126007e-05  1.2931557403713811e-05  1.3260841748379173e-05  1.3590777012335499e-05  1.3921178010801991e-05  1.4251851021849239e-05  1.4582593739968966e-05  1.4913195254304850e-05  1.5243436053492330e-05  1.5573088059073208e-05  1.5901914689420261e-05  1.6229670956100527e-05  1.6556103594546304e-05  1.6880951230842078e-05  1.7203944586350758e-05  1.7524806721792084e-05  1.7843253322257992e-05  1.8158993024488357e-05  1.8471727787555034e-05  1.8781153307891540e-05  1.9086959479380783e-05  1.9388830898949940e-05  1.9686447417839964e-05  1.9979484738420549e-05  2.0267615056082875e-05  2.0550507745396446e-05  2.0827830089360790e-05  2.1099248050176193e-05  2.1364427079593422e-05  2.1623032966463600e-05  2.1874732718735157e-05  2.2119195476711833e-05  2.2356093453977030e-05  2.2585102902026802e-05  2.2805905094228534e-05  2.3018187324406589e-05  2.3221643914976153e-05  2.3415977229292010e-05  2.3600898682582067e-05  2.3776129745613519e-05  2.3941402935089804e-05  2.4096462784624503e-05  2.4241066790090078e-05  2.4374986323120807e-05  2.4498007506618836e-05  2.4609932046206718e-05  2.4710578011774171e-05  2.4799780563503154e-05  2.4877392617060624e-05  2.4943285443034103e-05  2.4997349196093443e-05  2.5039493369868958e-05  2.5069647174036766e-05  2.5087759830705230e-05  2.5093800787792862e-05  2.5087759847714570e-05  2.5069647210390739e-05  2.5039493430211111e-05  2.4997349287312836e-05  2.4943285574182684e-05  2.4877392799238769e-05  2.4799780809719765e-05  2.4710578336785097e-05  2.4609932466336117e-05  2.4498008039556852e-05  2.4374986987711223e-05  2.4241067606103387e-05  2.4096463772525047e-05  2.3941404115794773e-05  2.3776131140254821e-05  2.3600900312264344e-05  2.3415979114858721e-05  2.3221646076780918e-05  2.3018189782097757e-05  2.2805907866539080e-05  2.2585106006587234e-05  2.2356096907142044e-05  2.2119199293399400e-05  2.1874736912293117e-05  2.1623037548549698e-05  2.1364432060080961e-05  2.1099253437075260e-05  2.0827835888765586e-05  2.0550513961448214e-05  2.0267621690955651e-05  1.9979491792325779e-05  1.9686454889046394e-05  1.9388838783822552e-05  1.9086967772435225e-05  1.8781162001862170e-05  1.8471736873473602e-05  1.8159002491778150e-05  1.7843263158829548e-05  1.7524816914156726e-05  1.7203955119731035e-05  1.6880962089292515e-05  1.6556114761076363e-05  1.6229682412796159e-05  1.5901926417572124e-05  1.5573100039298868e-05  1.5243448265858040e-05  1.4913207678446363e-05  1.4582606355207760e-05  1.4251863807303502e-05  1.3921190945494433e-05  1.3590790075294256e-05  1.3260854918733957e-05  1.2931570660783743e-05  1.2603114018504585e-05  1.2275653331013815e-05  1.1949348668412861e-05  1.1624351957854411e-05  1.1300807125004353e-05  1.0978850249191852e-05  1.0658609730644565e-05  1.0340206468246721e-05  1.0023754046363185e-05  9.7093589293259393e-06  9.3971206622882529e-06  9.0871320772064168e-06  8.7794795028086496e-06  8.4742429774817022e-06  8.1714964640927335e-06  7.8713080658304966e-06  7.5737402422357175e-06  7.2788500246572043e-06  6.9866892304414656e-06  6.6973046752353459e-06  6.4107383828352532e-06  6.1270277920850023e-06  5.8462059603869920e-06  5.5683017634254539e-06  5.2933400907779957e-06  5.0213420371178371e-06  4.7523250887621871e-06  4.4863033053689669e-06  4.2232874966069434e-06  3.9632853936744183e-06  3.7063018155681515e-06  3.4523388300283485e-06  3.2013959091235112e-06  2.9534700794526038e-06  2.7085560669693711e-06  2.4666464364546052e-06  2.2277317256746728e-06  1.9918005742837839e-06  1.7588398475414538e-06  1.5288347549214748e-06  1.3017689636718906e-06  1.0776247071656288e-06  8.5638288612412096e-07  6.3802314702774252e-07  4.2252382153681660e-07  2.0986093166269527e-07  0.0000000000000000e+00  0.0000000000000000e+00  3.1684130395763474e-07  6.3801819239052591e-07  9.6356619060290443e-07  1.2935285254596077e-06  1.6279406359230311e-06  1.9668374861460359e-06  2.3102518876484226e-06  2.6582146681136279e-06  3.0107545685713250e-06  3.3678980798125870e-06  3.7296692679000903e-06  4.0960895915701308e-06  4.4671777114072097e-06  4.8429492906399932e-06  5.2234167874173440e-06  5.6085892384378018e-06  5.9984720338372869e-06  6.3930666832572221e-06  6.7923705730498651e-06  7.1963767146069197e-06  7.6050734838388454e-06  8.0184443518654312e-06  8.4364676070295559e-06  8.8591160683971058e-06  9.2863567909446559e-06  9.7181507627236443e-06  1.0154452594321704e-05  1.0595210201036249e-05  1.1040364478242535e-05  1.1489848970504770e-05  1.1943589535095367e-05  1.2401504000649582e-05  1.2863501821792837e-05  1.3329483730689928e-05  1.3799341386550920e-05  1.4272957024271390e-05  1.4750203103478362e-05  1.5230941959389483e-05  1.5715025457025513e-05  1.6202294650432056e-05  1.6692579448718071e-05  1.7185698290842367e-05  1.7681457831227481e-05  1.8179652638404104e-05  1.8680064909050310e-05  1.9182464199890068e-05  1.9686607180077715e-05  2.0192237406806923e-05  2.0699085126979538e-05  2.1206867107922370e-05  2.1715286500184773e-05  2.2224032735568572e-05  2.2732781463581059e-05  2.3241194529567849e-05  2.3748919997785982e-05  2.4255592222693802e-05  2.4760831971696688e-05  2.5264246602534516e-05  2.5765430298405853e-05  2.6263964363799275e-05  2.6759417583849029e-05  2.7251346649817785e-05  2.7739296653078994e-05  2.8222801649699163e-05  2.8701385297364890e-05  2.9174561566054639e-05  2.9641835523442476e-05  3.0102704195546053e-05  3.0556657502648833e-05  3.1003179269984980e-05  3.1441748312094784e-05  3.1871839589155158e-05  3.2292925432957102e-05  3.2704476839518179e-05  3.3105964824673215e-05  3.3496861838250789e-05  3.3876643231802924e-05  3.4244788774107275e-05  3.4600784208025388e-05  3.4944122841633116e-05  3.5274307165905343e-05  3.5590850490680801e-05  3.5893278590078439e-05  3.6181131348076599e-05  3.6453964394598472e-05  3.6711350722064090e-05  3.6952882272218209e-05  3.7178171482840279e-05  3.7386852783961256e-05  3.7578584033234607e-05  3.7753047880339947e-05  3.7909953050536987e-05  3.8049035537938655e-05  3.8170059699537450e-05  3.8272819241663476e-05  3.8357138091265662e-05  3.8422871145197861e-05  3.8469904891618180e-05  3.8498157898536256e-05  3.8507581165614469e-05  3.8498158336381918e-05  3.8469905769154112e-05  3.8422872466083414e-05  3.8357139860907841e-05  3.8272821467124225e-05  3.8170062389405845e-05  3.8049038702182980e-05  3.7909956700325236e-05  3.7753052027845061e-05  3.7578588691420588e-05  3.7386857966348036e-05  3.7178177203269347e-05  3.6952888544598733e-05  3.6711357560130004e-05  3.6453971811650546e-05  3.6181139356744939e-05  3.5893287202078949e-05  3.5590859716595186e-05  3.5274317014964445e-05  3.4944133321527988e-05  3.4600795324728500e-05  3.4244800531721322e-05  3.3876655632429375e-05  3.3496874881882495e-05  3.3105978509112688e-05  3.2704491160319980e-05  3.2292940383392963e-05  3.1871855160207418e-05  3.1441764492470515e-05  3.1003196046153162e-05  3.0556674858895143e-05  3.0102722114054280e-05  2.9641853984386248e-05  2.9174580547709758e-05  2.8701404776233268e-05  2.8222821600645890e-05  2.7739317049475486e-05  2.7251367463699816e-05  2.6759438786074453e-05  2.6263985924208440e-05  2.5765452185991198e-05  2.5264268785604143e-05  2.4760854418039565e-05  2.4255614899739000e-05  2.3748942872762519e-05  2.3241217569654367e-05  2.2732804636052501e-05  2.2224056007934621e-05  2.1715309840319794e-05  2.1206890484187056e-05  2.0699108508334126e-05  2.0192260762913984e-05  1.9686630481398291e-05  1.9182487417763818e-05  1.8680088015776790e-05  1.8179675607303470e-05  1.7681480636695932e-05  1.7185720908404762e-05  1.6692601855060044e-05  1.6202316823435900e-05  1.5715047375788681e-05  1.5230963604242150e-05  1.4750224455989437e-05  1.4272978067250840e-05  1.3799362104045038e-05  1.3329504107972131e-05  1.2863521845347618e-05  1.2401523658152948e-05  1.1943608815393116e-05  1.1489867863581858e-05  1.1040382975197165e-05  1.0595228294043339e-05  1.0154470276598772e-05  9.7181680284944394e-06  9.2863736354002873e-06  8.8591324876551946e-06  8.4364835980947546e-06  8.0184599125865811e-06  7.6050886128689228e-06  7.1963914113601979e-06  6.7923848376596112e-06  6.3930805165364402e-06  5.9984854372360069e-06  5.6086022140036657e-06  5.2234293377563681e-06  4.8429614188773784e-06  4.4671894211501161e-06  4.0961008868716542e-06  3.7296801532230542e-06  3.3679085599965451e-06  3.0107646487993218e-06  2.6582243538801760e-06  2.3102611847289696e-06  1.9668464005872947e-06  1.6279491767352267e-06  1.2935367602875765e-06  9.6357459687354883e-07  6.3802628681516061e-07  3.1685230928750516e-07  0.0000000000000000e+00  0.0000000000000000e+00  4.2522038970040172e-07  8.5637561858053662e-07  1.2935305633138426e-06  1.7367330100536851e-06  2.1860435493255692e-06  2.6415128211706711e-06  3.1031903251261678e-06  3.5711230679793390e-06  4.0453553350832071e-06  4.5259285040324932e-06  5.0128808115886047e-06  5.5062471044632301e-06  6.0060585781407932e-06  6.5123425036841045e-06  7.0251219422944465e-06  7.5444154474015927e-06  8.0702367540972694e-06  8.6025944557543679e-06  9.1414916677090191e-06  9.6869256779388372e-06  1.0238887584698975e-05  1.0797361921153334e-05  1.1362326267079531e-05  1.1933750847806345e-05  1.2511598120613238e-05  1