<?xml version="1.0"?>
<VTKFile type="UnstructuredGrid"  version="0.1"  >
<UnstructuredGrid>
<Piece  NumberOfPoints="2601" NumberOfCells="5000">
<Points>
<DataArray  type="Float64"  NumberOfComponents="3"  format="ascii">0 0 0  0.02 0 0  0.04 0 0  0.06 0 0  0.08 0 0  0.1 0 0  0.12 0 0  0.14 0 0  0.16 0 0  0.18 0 0  0.2 0 0  0.22 0 0  0.24 0 0  0.26 0 0  0.28 0 0  0.3 0 0  0.32 0 0  0.34 0 0  0.36 0 0  0.38 0 0  0.4 0 0  0.42 0 0  0.44 0 0  0.46 0 0  0.48 0 0  0.5 0 0  0.52 0 0  0.54 0 0  0.5600000000000001 0 0  0.58 0 0  0.6 0 0  0.62 0 0  0.64 0 0  0.66 0 0  0.68 0 0  0.7 0 0  0.72 0 0  0.74 0 0  0.76 0 0  0.78 0 0  0.8 0 0  0.82 0 0  0.84 0 0  0.86 0 0  0.88 0 0  0.9 0 0  0.92 0 0  0.9399999999999999 0 0  0.96 0 0  0.98 0 0  1 0 0  0 0.02 0  0.02 0.02 0  0.04 0.02 0  0.06 0.02 0  0.08 0.02 0  0.1 0.02 0  0.12 0.02 0  0.14 0.02 0  0.16 0.02 0  0.18 0.02 0  0.2 0.02 0  0.22 0.02 0  0.24 0.02 0  0.26 0.02 0  0.28 0.02 0  0.3 0.02 0  0.32 0.02 0  0.34 0.02 0  0.36 0.02 0  0.38 0.02 0  0.4 0.02 0  0.42 0.02 0  0.44 0.02 0  0.46 0.02 0  0.48 0.02 0  0.5 0.02 0  0.52 0.02 0  0.54 0.02 0  0.5600000000000001 0.02 0  0.58 0.02 0  0.6 0.02 0  0.62 0.02 0  0.64 0.02 0  0.66 0.02 0  0.68 0.02 0  0.7 0.02 0  0.72 0.02 0  0.74 0.02 0  0.76 0.02 0  0.78 0.02 0  0.8 0.02 0  0.82 0.02 0  0.84 0.02 0  0.86 0.02 0  0.88 0.02 0  0.9 0.02 0  0.92 0.02 0  0.9399999999999999 0.02 0  0.96 0.02 0  0.98 0.02 0  1 0.02 0  0 0.04 0  0.02 0.04 0  0.04 0.04 0  0.06 0.04 0  0.08 0.04 0  0.1 0.04 0  0.12 0.04 0  0.14 0.04 0  0.16 0.04 0  0.18 0.04 0  0.2 0.04 0  0.22 0.04 0  0.24 0.04 0  0.26 0.04 0  0.28 0.04 0  0.3 0.04 0  0.32 0.04 0  0.34 0.04 0  0.36 0.04 0  0.38 0.04 0  0.4 0.04 0  0.42 0.04 0  0.44 0.04 0  0.46 0.04 0  0.48 0.04 0  0.5 0.04 0  0.52 0.04 0  0.54 0.04 0  0.5600000000000001 0.04 0  0.58 0.04 0  0.6 0.04 0  0.62 0.04 0  0.64 0.04 0  0.66 0.04 0  0.68 0.04 0  0.7 0.04 0  0.72 0.04 0  0.74 0.04 0  0.76 0.04 0  0.78 0.04 0  0.8 0.04 0  0.82 0.04 0  0.84 0.04 0  0.86 0.04 0  0.88 0.04 0  0.9 0.04 0  0.92 0.04 0  0.9399999999999999 0.04 0  0.96 0.04 0  0.98 0.04 0  1 0.04 0  0 0.06 0  0.02 0.06 0  0.04 0.06 0  0.06 0.06 0  0.08 0.06 0  0.1 0.06 0  0.12 0.06 0  0.14 0.06 0  0.16 0.06 0  0.18 0.06 0  0.2 0.06 0  0.22 0.06 0  0.24 0.06 0  0.26 0.06 0  0.28 0.06 0  0.3 0.06 0  0.32 0.06 0  0.34 0.06 0  0.36 0.06 0  0.38 0.06 0  0.4 0.06 0  0.42 0.06 0  0.44 0.06 0  0.46 0.06 0  0.48 0.06 0  0.5 0.06 0  0.52 0.06 0  0.54 0.06 0  0.5600000000000001 0.06 0  0.58 0.06 0  0.6 0.06 0  0.62 0.06 0  0.64 0.06 0  0.66 0.06 0  0.68 0.06 0  0.7 0.06 0  0.72 0.06 0  0.74 0.06 0  0.76 0.06 0  0.78 0.06 0  0.8 0.06 0  0.82 0.06 0  0.84 0.06 0  0.86 0.06 0  0.88 0.06 0  0.9 0.06 0  0.92 0.06 0  0.9399999999999999 0.06 0  0.96 0.06 0  0.98 0.06 0  1 0.06 0  0 0.08 0  0.02 0.08 0  0.04 0.08 0  0.06 0.08 0  0.08 0.08 0  0.1 0.08 0  0.12 0.08 0  0.14 0.08 0  0.16 0.08 0  0.18 0.08 0  0.2 0.08 0  0.22 0.08 0  0.24 0.08 0  0.26 0.08 0  0.28 0.08 0  0.3 0.08 0  0.32 0.08 0  0.34 0.08 0  0.36 0.08 0  0.38 0.08 0  0.4 0.08 0  0.42 0.08 0  0.44 0.08 0  0.46 0.08 0  0.48 0.08 0  0.5 0.08 0  0.52 0.08 0  0.54 0.08 0  0.5600000000000001 0.08 0  0.58 0.08 0  0.6 0.08 0  0.62 0.08 0  0.64 0.08 0  0.66 0.08 0  0.68 0.08 0  0.7 0.08 0  0.72 0.08 0  0.74 0.08 0  0.76 0.08 0  0.78 0.08 0  0.8 0.08 0  0.82 0.08 0  0.84 0.08 0  0.86 0.08 0  0.88 0.08 0  0.9 0.08 0  0.92 0.08 0  0.9399999999999999 0.08 0  0.96 0.08 0  0.98 0.08 0  1 0.08 0  0 0.1 0  0.02 0.1 0  0.04 0.1 0  0.06 0.1 0  0.08 0.1 0  0.1 0.1 0  0.12 0.1 0  0.14 0.1 0  0.16 0.1 0  0.18 0.1 0  0.2 0.1 0  0.22 0.1 0  0.24 0.1 0  0.26 0.1 0  0.28 0.1 0  0.3 0.1 0  0.32 0.1 0  0.34 0.1 0  0.36 0.1 0  0.38 0.1 0  0.4 0.1 0  0.42 0.1 0  0.44 0.1 0  0.46 0.1 0  0.48 0.1 0  0.5 0.1 0  0.52 0.1 0  0.54 0.1 0  0.5600000000000001 0.1 0  0.58 0.1 0  0.6 0.1 0  0.62 0.1 0  0.64 0.1 0  0.66 0.1 0  0.68 0.1 0  0.7 0.1 0  0.72 0.1 0  0.74 0.1 0  0.76 0.1 0  0.78 0.1 0  0.8 0.1 0  0.82 0.1 0  0.84 0.1 0  0.86 0.1 0  0.88 0.1 0  0.9 0.1 0  0.92 0.1 0  0.9399999999999999 0.1 0  0.96 0.1 0  0.98 0.1 0  1 0.1 0  0 0.12 0  0.02 0.12 0  0.04 0.12 0  0.06 0.12 0  0.08 0.12 0  0.1 0.12 0  0.12 0.12 0  0.14 0.12 0  0.16 0.12 0  0.18 0.12 0  0.2 0.12 0  0.22 0.12 0  0.24 0.12 0  0.26 0.12 0  0.28 0.12 0  0.3 0.12 0  0.32 0.12 0  0.34 0.12 0  0.36 0.12 0  0.38 0.12 0  0.4 0.12 0  0.42 0.12 0  0.44 0.12 0  0.46 0.12 0  0.48 0.12 0  0.5 0.12 0  0.52 0.12 0  0.54 0.12 0  0.5600000000000001 0.12 0  0.58 0.12 0  0.6 0.12 0  0.62 0.12 0  0.64 0.12 0  0.66 0.12 0  0.68 0.12 0  0.7 0.12 0  0.72 0.12 0  0.74 0.12 0  0.76 0.12 0  0.78 0.12 0  0.8 0.12 0  0.82 0.12 0  0.84 0.12 0  0.86 0.12 0  0.88 0.12 0  0.9 0.12 0  0.92 0.12 0  0.9399999999999999 0.12 0  0.96 0.12 0  0.98 0.12 0  1 0.12 0  0 0.14 0  0.02 0.14 0  0.04 0.14 0  0.06 0.14 0  0.08 0.14 0  0.1 0.14 0  0.12 0.14 0  0.14 0.14 0  0.16 0.14 0  0.18 0.14 0  0.2 0.14 0  0.22 0.14 0  0.24 0.14 0  0.26 0.14 0  0.28 0.14 0  0.3 0.14 0  0.32 0.14 0  0.34 0.14 0  0.36 0.14 0  0.38 0.14 0  0.4 0.14 0  0.42 0.14 0  0.44 0.14 0  0.46 0.14 0  0.48 0.14 0  0.5 0.14 0  0.52 0.14 0  0.54 0.14 0  0.5600000000000001 0.14 0  0.58 0.14 0  0.6 0.14 0  0.62 0.14 0  0.64 0.14 0  0.66 0.14 0  0.68 0.14 0  0.7 0.14 0  0.72 0.14 0  0.74 0.14 0  0.76 0.14 0  0.78 0.14 0  0.8 0.14 0  0.82 0.14 0  0.84 0.14 0  0.86 0.14 0  0.88 0.14 0  0.9 0.14 0  0.92 0.14 0  0.9399999999999999 0.14 0  0.96 0.14 0  0.98 0.14 0  1 0.14 0  0 0.16 0  0.02 0.16 0  0.04 0.16 0  0.06 0.16 0  0.08 0.16 0  0.1 0.16 0  0.12 0.16 0  0.14 0.16 0  0.16 0.16 0  0.18 0.16 0  0.2 0.16 0  0.22 0.16 0  0.24 0.16 0  0.26 0.16 0  0.28 0.16 0  0.3 0.16 0  0.32 0.16 0  0.34 0.16 0  0.36 0.16 0  0.38 0.16 0  0.4 0.16 0  0.42 0.16 0  0.44 0.16 0  0.46 0.16 0  0.48 0.16 0  0.5 0.16 0  0.52 0.16 0  0.54 0.16 0  0.5600000000000001 0.16 0  0.58 0.16 0  0.6 0.16 0  0.62 0.16 0  0.64 0.16 0  0.66 0.16 0  0.68 0.16 0  0.7 0.16 0  0.72 0.16 0  0.74 0.16 0  0.76 0.16 0  0.78 0.16 0  0.8 0.16 0  0.82 0.16 0  0.84 0.16 0  0.86 0.16 0  0.88 0.16 0  0.9 0.16 0  0.92 0.16 0  0.9399999999999999 0.16 0  0.96 0.16 0  0.98 0.16 0  1 0.16 0  0 0.18 0  0.02 0.18 0  0.04 0.18 0  0.06 0.18 0  0.08 0.18 0  0.1 0.18 0  0.12 0.18 0  0.14 0.18 0  0.16 0.18 0  0.18 0.18 0  0.2 0.18 0  0.22 0.18 0  0.24 0.18 0  0.26 0.18 0  0.28 0.18 0  0.3 0.18 0  0.32 0.18 0  0.34 0.18 0  0.36 0.18 0  0.38 0.18 0  0.4 0.18 0  0.42 0.18 0  0.44 0.18 0  0.46 0.18 0  0.48 0.18 0  0.5 0.18 0  0.52 0.18 0  0.54 0.18 0  0.5600000000000001 0.18 0  0.58 0.18 0  0.6 0.18 0  0.62 0.18 0  0.64 0.18 0  0.66 0.18 0  0.68 0.18 0  0.7 0.18 0  0.72 0.18 0  0.74 0.18 0  0.76 0.18 0  0.78 0.18 0  0.8 0.18 0  0.82 0.18 0  0.84 0.18 0  0.86 0.18 0  0.88 0.18 0  0.9 0.18 0  0.92 0.18 0  0.9399999999999999 0.18 0  0.96 0.18 0  0.98 0.18 0  1 0.18 0  0 0.2 0  0.02 0.2 0  0.04 0.2 0  0.06 0.2 0  0.08 0.2 0  0.1 0.2 0  0.12 0.2 0  0.14 0.2 0  0.16 0.2 0  0.18 0.2 0  0.2 0.2 0  0.22 0.2 0  0.24 0.2 0  0.26 0.2 0  0.28 0.2 0  0.3 0.2 0  0.32 0.2 0  0.34 0.2 0  0.36 0.2 0  0.38 0.2 0  0.4 0.2 0  0.42 0.2 0  0.44 0.2 0  0.46 0.2 0  0.48 0.2 0  0.5 0.2 0  0.52 0.2 0  0.54 0.2 0  0.5600000000000001 0.2 0  0.58 0.2 0  0.6 0.2 0  0.62 0.2 0  0.64 0.2 0  0.66 0.2 0  0.68 0.2 0  0.7 0.2 0  0.72 0.2 0  0.74 0.2 0  0.76 0.2 0  0.78 0.2 0  0.8 0.2 0  0.82 0.2 0  0.84 0.2 0  0.86 0.2 0  0.88 0.2 0  0.9 0.2 0  0.92 0.2 0  0.9399999999999999 0.2 0  0.96 0.2 0  0.98 0.2 0  1 0.2 0  0 0.22 0  0.02 0.22 0  0.04 0.22 0  0.06 0.22 0  0.08 0.22 0  0.1 0.22 0  0.12 0.22 0  0.14 0.22 0  0.16 0.22 0  0.18 0.22 0  0.2 0.22 0  0.22 0.22 0  0.24 0.22 0  0.26 0.22 0  0.28 0.22 0  0.3 0.22 0  0.32 0.22 0  0.34 0.22 0  0.36 0.22 0  0.38 0.22 0  0.4 0.22 0  0.42 0.22 0  0.44 0.22 0  0.46 0.22 0  0.48 0.22 0  0.5 0.22 0  0.52 0.22 0  0.54 0.22 0  0.5600000000000001 0.22 0  0.58 0.22 0  0.6 0.22 0  0.62 0.22 0  0.64 0.22 0  0.66 0.22 0  0.68 0.22 0  0.7 0.22 0  0.72 0.22 0  0.74 0.22 0  0.76 0.22 0  0.78 0.22 0  0.8 0.22 0  0.82 0.22 0  0.84 0.22 0  0.86 0.22 0  0.88 0.22 0  0.9 0.22 0  0.92 0.22 0  0.9399999999999999 0.22 0  0.96 0.22 0  0.98 0.22 0  1 0.22 0  0 0.24 0  0.02 0.24 0  0.04 0.24 0  0.06 0.24 0  0.08 0.24 0  0.1 0.24 0  0.12 0.24 0  0.14 0.24 0  0.16 0.24 0  0.18 0.24 0  0.2 0.24 0  0.22 0.24 0  0.24 0.24 0  0.26 0.24 0  0.28 0.24 0  0.3 0.24 0  0.32 0.24 0  0.34 0.24 0  0.36 0.24 0  0.38 0.24 0  0.4 0.24 0  0.42 0.24 0  0.44 0.24 0  0.46 0.24 0  0.48 0.24 0  0.5 0.24 0  0.52 0.24 0  0.54 0.24 0  0.5600000000000001 0.24 0  0.58 0.24 0  0.6 0.24 0  0.62 0.24 0  0.64 0.24 0  0.66 0.24 0  0.68 0.24 0  0.7 0.24 0  0.72 0.24 0  0.74 0.24 0  0.76 0.24 0  0.78 0.24 0  0.8 0.24 0  0.82 0.24 0  0.84 0.24 0  0.86 0.24 0  0.88 0.24 0  0.9 0.24 0  0.92 0.24 0  0.9399999999999999 0.24 0  0.96 0.24 0  0.98 0.24 0  1 0.24 0  0 0.26 0  0.02 0.26 0  0.04 0.26 0  0.06 0.26 0  0.08 0.26 0  0.1 0.26 0  0.12 0.26 0  0.14 0.26 0  0.16 0.26 0  0.18 0.26 0  0.2 0.26 0  0.22 0.26 0  0.24 0.26 0  0.26 0.26 0  0.28 0.26 0  0.3 0.26 0  0.32 0.26 0  0.34 0.26 0  0.36 0.26 0  0.38 0.26 0  0.4 0.26 0  0.42 0.26 0  0.44 0.26 0  0.46 0.26 0  0.48 0.26 0  0.5 0.26 0  0.52 0.26 0  0.54 0.26 0  0.5600000000000001 0.26 0  0.58 0.26 0  0.6 0.26 0  0.62 0.26 0  0.64 0.26 0  0.66 0.26 0  0.68 0.26 0  0.7 0.26 0  0.72 0.26 0  0.74 0.26 0  0.76 0.26 0  0.78 0.26 0  0.8 0.26 0  0.82 0.26 0  0.84 0.26 0  0.86 0.26 0  0.88 0.26 0  0.9 0.26 0  0.92 0.26 0  0.9399999999999999 0.26 0  0.96 0.26 0  0.98 0.26 0  1 0.26 0  0 0.28 0  0.02 0.28 0  0.04 0.28 0  0.06 0.28 0  0.08 0.28 0  0.1 0.28 0  0.12 0.28 0  0.14 0.28 0  0.16 0.28 0  0.18 0.28 0  0.2 0.28 0  0.22 0.28 0  0.24 0.28 0  0.26 0.28 0  0.28 0.28 0  0.3 0.28 0  0.32 0.28 0  0.34 0.28 0  0.36 0.28 0  0.38 0.28 0  0.4 0.28 0  0.42 0.28 0  0.44 0.28 0  0.46 0.28 0  0.48 0.28 0  0.5 0.28 0  0.52 0.28 0  0.54 0.28 0  0.5600000000000001 0.28 0  0.58 0.28 0  0.6 0.28 0  0.62 0.28 0  0.64 0.28 0  0.66 0.28 0  0.68 0.28 0  0.7 0.28 0  0.72 0.28 0  0.74 0.28 0  0.76 0.28 0  0.78 0.28 0  0.8 0.28 0  0.82 0.28 0  0.84 0.28 0  0.86 0.28
[...]
<PointData  Scalars="Indicator Function"> 
<DataArray  type="Float64"  Name="Indicator Function"  format="ascii">-2.7682008811953503e-21  1.5381865527333646e-17  -1.6270423815831899e-18  3.0152433889898121e-17  9.4172587659598098e-18  -4.3867533268433904e-19  -1.9580843594058663e-18  4.2408977100981019e-16  2.1578637586334768e-16  -9.9808092738689070e-19  1.8126534092151722e-16  4.7677011726382415e-16  -3.0969761118118478e-19  -1.0346066864751881e-32  -5.3185379157334554e-17  -2.0870441591504996e-18  -7.7241901754990546e-19  2.4274763657329387e-16  -9.1547535808866371e-19  -1.3851760493366713e-18  1.3556175201896017e-16  -1.0835660113594547e-18  -9.8939534346409707e-19  4.8069573335700969e-16  2.3336992928011763e-34  -6.5503113776975408e-19  -3.0289939409174355e-19  -1.5457564619165293e-19  1.5862041674198316e-16  -1.8655080149120273e-21  -3.7965133506597249e-20  -1.8896454586768818e-20  -8.1203621590210980e-20  -1.0396652018009144e-19  -1.1468777322858161e-19  -5.7307814962381254e-20  4.8618735266691175e-36  -2.2928453042755276e-20  -6.7280780422354237e-20  -7.4934097709506948e-20  3.9272904147342270e-17  -3.2395789930659423e-20  -6.2480489547203020e-20  -6.8935630603250303e-20  -5.8947292578576357e-20  -3.2878326902312429e-20  1.4673626744368811e-18  -9.4020645036818024e-21  -3.8701881338779228e-21  -2.4338096777702825e-21  9.7237470533382350e-36  -8.4334333510203322e-19  8.0955320954004522e-03  2.6574896536122809e-03  1.8562570293464843e-03  1.0913085714144290e-02  1.5804944518510541e-02  7.0345591075661809e-04  3.5273711965520975e-02  1.5783978495983501e-02  3.2433153428001883e-02  1.7979827570660776e-02  3.2899734921663757e-03  1.1158032370504932e-02  1.0427447852631000e-02  1.8767419157233931e-02  1.9535034385860298e-02  2.7829327996893694e-02  3.6637184467109424e-02  2.2617059497129340e-02  9.0011227926780051e-03  2.0452551962201634e-02  3.4887024636245975e-02  2.0762776218361235e-03  1.7823362000588098e-02  1.5594501230111536e-02  1.7737823300102839e-03  1.0913100786898600e-02  5.5691745807141145e-03  7.7104488097193313e-04  5.4801938531452613e-05  6.2050355375313424e-06  6.8081652668476394e-04  4.6451259251721518e-04  1.2305781034806281e-03  1.2576052744279517e-03  1.2668860760403809e-03  3.9892277841979961e-04  1.7096572767179963e-04  4.1304229031813826e-04  1.0055016453981735e-03  8.4714187538842617e-04  3.4781243693360526e-04  4.0968445137356011e-04  9.2070621208405841e-04  7.8148081514736365e-04  6.7115961199182229e-04  2.5670347714736567e-04  5.9868628160976668e-05  1.3943822270069052e-04  8.7687234863175582e-05  -4.9426575161185261e-21  1.5557995285341175e-33  2.0571319294084484e-02  2.3644961633150226e-02  8.7968624932835086e-03  1.1357341046749878e-02  1.3520886738545351e-02  2.9722649820886612e-02  3.4363983187800692e-02  1.0132244561441772e-02  3.4740537981222286e-02  2.3439482878909752e-02  5.2103591134236828e-02  8.5780887655982810e-02  6.2873071981390208e-02  7.1825911256506577e-03  4.6164418440619970e-02  5.8444733095092453e-02  2.9366790509315127e-03  6.1655810333914686e-02  6.3136260860855902e-03  3.7292891336199958e-02  1.8032974490948636e-02  6.6935309964370929e-02  6.2117541465372191e-02  4.6849419740174938e-02  1.9920792453314861e-02  2.6038662724524070e-02  2.1148933425303913e-03  6.0675047556185344e-03  4.5695059174207546e-03  3.6929336006970276e-04  2.0647665906297976e-04  4.4353090030448226e-04  1.8866004348589965e-03  2.0849176892036355e-03  1.4854045755774024e-03  1.7731621807361455e-03  2.3423438475867172e-04  4.1752326447432492e-04  1.0533283305033028e-03  1.4310054226655277e-03  1.7688992288638584e-04  9.4373672188408152e-04  6.8894403032831238e-04  1.5003030414873317e-03  8.3609310150177584e-04  5.1367569881576166e-04  7.4232075698450460e-06  3.8634432860645428e-04  2.9019909704475048e-04  7.2491786834515484e-20  -1.7021153588016388e-19  1.1205930225438920e-02  4.0022233228782103e-03  8.4869090608584163e-03  1.7031658326680525e-02  1.9354426959491224e-02  3.1085830544538402e-02  4.6707295401252919e-03  7.8061549918099785e-02  5.5350994955532591e-02  7.9240226805791500e-02  6.0096364838775222e-02  2.5861375334268761e-02  3.0870933763942191e-03  1.2615769510781843e-02  2.5510855035688489e-02  3.6782952900842908e-02  5.5347110766901957e-02  8.6970344209613651e-02  4.0296839480268964e-02  4.2592404117844712e-03  4.2656621748988391e-02  5.7456989799788971e-02  7.2556240914362739e-03  5.6149770514221570e-02  5.8102951126961448e-02  1.1763124650960704e-02  2.5960185737221982e-02  1.8466539093897411e-02  2.9141256200562850e-03  2.8909494018406405e-03  3.7081432544736921e-04  9.4074620501570613e-04  1.2810322500940454e-03  2.6193710536527434e-03  2.1036947923682857e-03  1.9116499358262584e-03  7.4070711214364393e-04  2.4864461466545830e-04  1.5017485014641839e-04  1.3670677595173640e-03  9.0174663527113922e-04  1.7000386912160747e-03  9.7208306817963674e-04  1.5524336444186924e-03  1.3055838828859082e-03  9.8316419108535752e-04  2.1790119207129068e-04  2.3497261056835416e-04  3.6100665487451571e-04  -5.0099737535574274e-20  -5.1288646293996634e-19  3.4195067418158580e-02  3.1247571639972339e-03  2.6438562808025610e-02  1.2008749386891260e-03  2.0157431399114432e-02  2.1916691411527755e-02  5.9143454490100104e-02  3.6563866878793538e-02  7.7167731471019518e-03  3.2596302360596234e-02  1.7906083188031288e-02  5.9418285759558667e-02  1.2707867931968908e-01  1.1657594897438943e-01  2.5475319519153786e-02  8.5567096826940789e-02  1.0733537972290902e-01  8.6997111838216044e-03  1.1298489778929749e-01  7.2851245197729239e-03  3.9898550615370183e-02  2.1001826327828245e-02  1.0094126793645326e-01  1.0346458946572104e-01  6.0489449502142606e-02  1.8957941260557890e-02  3.6247820111449398e-02  6.7264391292135223e-04  1.6276420173506279e-02  9.6690854745510382e-03  8.9098434009007718e-06  1.4594477857422119e-04  8.2490142193252479e-04  3.0423445974740648e-03  2.8143275421684123e-03  1.5931484144073300e-03  2.3169425125659959e-03  6.6409099445854556e-04  1.0281247544261152e-03  1.0210564737209841e-03  1.4833643674907998e-03  9.0166704246254486e-04  2.2824133295956035e-03  1.0298152414501287e-03  2.3501677439560337e-03  1.1159374265244048e-03  9.0248076277174615e-04  1.6032366376545737e-04  2.5242940473908955e-04  5.2981378092919185e-20  -3.0279311089286469e-19  2.2330639583308113e-02  1.9925480712309547e-02  2.3554067640317370e-02  1.0810458571127776e-02  2.2687888677455161e-02  3.4543428263157663e-02  2.6397289582414711e-02  4.0516380088596524e-03  1.0552631096779372e-01  8.0321863159888277e-02  1.0317232140244122e-01  8.2015930887464950e-02  4.6105142286613804e-02  3.1938223416088950e-02  4.7349242503954567e-03  2.7605366897834559e-02  3.4835218792917656e-02  7.9115716593031335e-02  1.1669808746471778e-01  5.7830341005015599e-02  1.8594353931004417e-02  5.8481528023338190e-02  7.3734590964559629e-02  1.4305852674029514e-02  9.3161166879753426e-02  8.8590978933075923e-02  2.3187175037609451e-02  3.9065484969185708e-02  2.5983975842698938e-02  4.9442166855371607e-04  7.6657442867988437e-03  6.9076168833117518e-04  8.8944457294176627e-04  1.2387508789297240e-03  3.5681297462399294e-03  2.4216273923345103e-03  1.7889080129495820e-03  1.0411031954835489e-03  2.6590667704168541e-04  4.0884483157716721e-04  1.5049047665691964e-03  8.2956728204153403e-04  2.8479490867211379e-03  1.8613589885885882e-03  1.9364439184660044e-03  2.0877482355263896e-03  1.3754851341719759e-03  6.7134204396309587e-04  1.5904198988047358e-04  1.9447494106676470e-35  -4.6344226021907890e-19  9.6364078301252477e-03  2.5858812917648712e-02  2.9149803365167822e-02  4.1018991799029306e-02  3.8451262110235822e-03  2.6399184093286360e-02  2.4597768737435247e-02  7.8330674163986660e-02  4.1959916220717167e-02  7.0969542835099403e-03  2.9477938122803349e-02  1.0395251337428841e-02  5.7211079107481688e-02  1.4725002267004070e-01  1.4405555078083793e-01  3.3396855711364054e-02  1.1873905430157013e-01  1.5077246138206724e-01  2.5721917991053833e-02  1.6201267077806319e-01  2.0874906168442967e-02  3.0027098882047597e-02  2.6770862577949452e-02  1.2748620039233793e-01  1.2901764074002742e-01  6.0772752617579681e-02  5.5861666513140930e-03  3.6078667155506929e-02  5.7396187074347134e-03  2.5777450744952819e-02  1.2141121821278167e-02  3.2001059341662053e-03  3.9357820069731194e-05  1.3418603252650229e-03  3.3460764995108670e-03  3.2603090663085609e-03  1.5661592780499335e-03  2.2194398069214924e-03  8.2106578143992899e-04  8.6120768855508427e-04  9.0527145193305275e-04  1.7301834599696799e-03  1.1254508138392135e-03  3.4533725464311505e-03  1.4850123765343182e-03  2.8909987711118199e-03  1.6188901828324703e-03  1.3514731992002628e-03  5.0677332299180211e-04  2.1878430870011026e-35  -4.8092765740597349e-19  1.3709881051203687e-02  1.3919869932311530e-02  1.3993806090279368e-02  3.4262054077179784e-02  3.3380027992759659e-02  4.3648350707151978e-02  4.3611301874194153e-02  1.9613878386312119e-02  2.0016391715870240e-02  1.3234381370795653e-01  8.8603578417876819e-02  1.0726185940373562e-01  8.3651889242005908e-02  4.3060771224801654e-02  3.6994797134859016e-02  6.7020605862545277e-03  2.2520998177019535e-02  3.4381549666071480e-02  8.6877087469422104e-02  1.3641376275586067e-01  6.8515462343031922e-02  1.8161072886467022e-02  7.0599982775668327e-02  9.9735941265670133e-02  9.5502075934540166e-03  1.1570867246781526e-01  9.8224533859676888e-02  1.0834365032274747e-02  4.3013760027278261e-02  2.5968413353095288e-02  4.9501957465770512e-03  1.1904876357720079e-02  4.9684379232024399e-04  1.2959816054931828e-03  4.3767664203606728e-04  3.8938942509265141e-03  2.3311068616674608e-03  1.3785431123406278e-03  9.2737636912399411e-04  9.2805050415557518e-04  5.2826113090349510e-04  1.7762323549481711e-03  1.0466725979809855e-03  3.2056637916560680e-03  2.6802277068922941e-03  2.0329738641836760e-03  2.5999792682548928e-03  1.5652862971616377e-03  9.4365736919441558e-04  -1.2607866410502018e-19  -3.6578392118039390e-19  8.8457165016915199e-03  4.7877940780971222e-03  2.4415576618935970e-02  4.4551451693310068e-02  3.7263892580622453e-02  1.6879045519980856e-02  2.5641585318708304e-02  4.7649323591056258e-03  9.9097394305543124e-02  6.1548501599303779e-02  1.7196125614382961e-02  5.0119145489148170e-02  1.6240172152386056e-02  6.9578269572872831e-02  1.7670443087852802e-01  1.7207466327193580e-01  4.0354100891157242e-02  1.5200908580870082e-01  2.0133630366449334e-01  3.7210748808987323e-02  2.1605648575957945e-01  4.5730996763630835e-02  2.1180814210147145e-02  2.8282466335645535e-02  1.5906420751418637e-01  1.4769160166400350e-01  6.9593282531437803e-02  6.1229386009866386e-03  4.4329096441186808e-02  1.2123147156638949e-02  2.9199985041542920e-02  1.1379429014576725e-02  8.5592806438610919e-03  5.9011124589768409e-04  1.9803098304950347e-03  2.6102457299770373e-03  3.2578320150318733e-03  1.0982126697686497e-03  1.4005867633244194e-03  1.1121287335790141e-03  1.7293137050455515e-04  9.5050820967982220e-04  2.2463813104320295e-03  9.6130575691207867e-04  3.9840561831239801e-03  1.8930179371952930e-03  2.7806295959804826e-03  1.8173698446475339e-03  1.0671821527391638e-03  2.9620254936000706e-20  -2.8729579555491649e-19  1.3691105946888696e-02  1.3465953687875750e-02  1.0925656351917706e-02  4.9191125844380984e-03  4.4104183976886403e-02  5.0762023225273671e-02  5.3388554578417617e-02  7.2176463331696944e-02  7.8512459488190977e-03  4.4837691350376262e-02  1.8713713341665336e-01  8.2935571070253622e-02  1.1272078064456373e-01  7.4140152339723972e-02  3.6351193207436440e-02  2.1203330872205779e-02  1.2290482446538719e-02  3.6030446984971504e-03  3.5293858959559388e-02  6.9817873431136226e-02  1.4953337054051943e-01  6.2511099005967991e-02  6.5938276690943910e-03  9.7434253316452404e-02  1.3996066285923567e-01  9.6195042291199861e-03  1.1956512889908254e-01  1.0410148202551942e-01  1.8743913503620178e-02  4.0630511383498470e-02  1.9303254783827543e-02  7.8489783659474732e-03  1.5035224146550206e-02  5.3244985016386139e-03  2.5772785580967560e-03  7.8595977248059818e-04  3.2769437852027405e-03  1.7944864600748826e-03  5.9824038526466651e-04  7.1791001766237389e-05  1.6960712919349237e-03  5.4396682991118969e-04  2.3863583805220725e-03  1.7614238125275394e-03  2.8028613312227361e-03  3.1708866280301179e-03  2.0322500472717323e-03  2.4928165334818192e-03  1.3350118178188635e-03  -7.4108042914459331e-20  7.7789976426705880e-35  1.6213418025790974e-02  1.6948681131560162e-02  1.2658159485485772e-02  5.4538329050299031e-03  6.9985831159713435e-02  3.2180624339251680e-02  4.1764642907021733e-02  2.9831506150267809e-02  1.1348083519529593e-02  8.8943681977484909e-02  5.5299682552560007e-02  3.9266924874796362e-02  1.1498820247031638e-01  9.5195733169851447e-03  1.2017232976909815e-01  2.0330064750493160e-01  2.3237758979847090e-01  5.5935419984839398e-02  1.8053662518439031e-01  2.6571128836901103e-01  1.5709313434504987e-02  3.0204504243461311e-01  8.3832474017264028e-02  1.8284473030182127e-02  3.4694429552195073e-02  2.2061810515592031e-01  1.5136953943594800e-01  1.0380938775142844e-01  2.0341470592572748e-02  7.8533430946886140e-02  1.8878700418935961e-02  2.1212943578868555e-02  9.8190846285480197e-03  1.4637744385601942e-02  3.9776990563709482e-03  3.8160714818493116e-03  6.8893166787902893e-04  2.4448629571945614e-03  8.0396704117760809e-05  1.3023113112290167e-04  1.9534494390336921e-03  1.6037251882935139e-03  1.7763137893697292e-03  3.2948161236472776e-03  5.8290053425465419e-05  3.3151254772891873e-03  1.9038400413411397e-03  2.0928533906951767e-03  1.4357959838357261e-03  -1.9925671998984414e-19  -2.2762641459933826e-19  9.8100852610972095e-03  6.1099081677962715e-03  2.3474253249918618e-02  1.9881194509623612e-02  1.5419541906154221e-02  1.3678599815505151e-02  1.1138385151744710e-01  8.2989639105150517e-02  1.0877334001240944e-01  3.5027509093879749e-03  6.2875302541207614e-02  2.1583768041184986e-01  1.4731188268480452e-01  7.0983613916596688e-02  8.0349796703112791e-02  5.4626018336773087e-02  4.5539200136070081e-02  4.7965320676004444e-03  5.9609140491863569e-02  6.0167279533548071e-02  3.9662620778465309e-02  1.7015227117812751e-01  7.9046121841102893e-02  1.1920504380103103e-01  1.9679998984110630e-01  2.1541080283549149e-01  2.1425051233864234e-02  7.8557740297203749e-02  1.4892682602740284e-01  6.9542237738728099e-02  5.4440177291243716e-02  4.9327712284624268e-03  2.0606141598982853e-03  1.9968704896463605e-02  1.4291258282287970e-02  5.8587875077296689e-03  3.1781040532694433e-03  9.6721090615728021e-04  3.6548668200806601e-04  8.7978190592339148e-04  1.8441140610150962e-03  2.5945849930198031e-03  2.4055606493023165e-03  3.1543430695826530e-03  2.8012380589380165e-03  1.7813531297097298e-03  2.6265717668002703e-03  1.4510099340392941e-03  1.1263791003465525e-03  -2.0218931924587950e-19  -1.5557995285341176e-34  1.1549279745048853e-02  8.1661091385625689e-03  9.1572148913342147e-04  4.7646293683483078e-03  5.9993249543558429e-03  7.3620044378767333e-02  2.8046202553321322e-02  3.0781048329305945e-02  4.6141169090940612e-02  1.0860698823768047e-01  1.1596036551810003e-01  6.7427723530076117e-02  5.2080303699513164e-02  1.7496783852853490e-01  1.0057555468650238e-01  4.6631716957652843e-02  3.5675861211489096e-01  2.4557243495840203e-01  9.4595947470778860e-02  1.7670031644081863e-01  3.9956461617686634e-01  1.5350843095202108e-03  3.9548780525461735e-01  1.1394344270758350e-01  4.8248393686412323e-02  1.3986005425104242e-01  4.3305886948734967e-01  3.5632551915855605e-02  2.3331191242027019e-01  1.1067959649900885e-02  1.6987080094781457e-01  5.8020895841593277e-02  1.0157668458555588e-02  1.7893821269888890e-02  2.3752883358707785e-02  1.2835279120607973e-02  7.4787520704184471e-03  2.3040915642604520e-03  1.9362589092956572e-04  1.9010807153647105e-03  1.9796851751881475e-03  3.9105322819100756e-03  3.2985450306525993e-03  3.6785164301163351e-03  4.4411108497949808e-03  9.7874999593182258e-04  2.2659748490869722e-03  1.7445028764500898e-03  1.1719663717890247e-03  -6.5057202502328797e-20  -1.8255952685127513e-19  1.7928828527095802e-02  1.5571711955144209e-02  4.4010363750423068e-03  2.5133023796510126e-02  4.7736753072201866e-03  9.3071401610600162e-03  2.4916177027164556e-02  1.2153924604260265e-01  5.1457104134390134e-02  1.6552616047256874e-01  7.3612696499404981e-02  2.2169361556858097e-01  3.7461162804062015e-01  1.2238886766542917e-01  1.1462207655564011e-01  4.5901470237457775e-02  1.9574410537894758e-03  9.5743923817612611e-02  3.0321001105124634e-01  2.1456749805148204e-01  1.6896016161737573e-01  5.6347926425552246e-02  8.0988034417760302e-01  6.1085447472796615e-02  5.2244121058162181e-02  5.0547848952846336e-02  6.5151857057726592e-01  1.0801329907448269e-01  1.9041890483797613e-01  3.7674685480054232e-01  2.1532562356541488e-01  1.1153207668162340e-01  1.7750278834841968e-02  2.7599859252536944e-02  2.6981525749539780e-02  2.4712206132670549e-02  1.2325895932221125e-02  6.4491988139465332e-03  2.0750468405094681e-03  1.5575161119553019e-03  2.8858137688450936e-03  4.3122787508559739e-03  4.3774182815685446e-03  5.0913949499312612e-03  5.0547402473448055e-03  4.5211826466627324e-03  1.9232850881711715e-04  1.4206664050715936e-03  1.1764451456438688e-03  -6.5305824395115775e-20  2.1781193399477646e-33  3.2887000684013504e-03  1.0329038463911722e-02  2.1806171494404062e-02  2.7428932547176963e-02  8.3281550549625643e-03  5.8454143754596273e-04  6.0789907012969602e-02  3.9084520387057814e-03  6.1752258419992975e-02  5.0733056348812380e-02  8.0249221728328782e-02  2.1058829897042225e-03  3.6418951103326054e-02  4.1812171057538573e-02  4.5041645585738482e-01  2.4623386822223837e-03  1.5856904310931844e-01  3.7504516987440423e-01  3.1275843169963402e-01  8.7465777051928173e-01  8.4848058994563247e-01  2.4073846582020852e-01  1.7262811354831675e-01  4.9314248463728982e-01  2.6512170062309059e-02  1.2398214173959943e-01  1.0695734967311694e-01  4.2463988692894511e-01  1.1958257246000632e-01  2.7838834401745005e-01  1.4654648715575141e-01  2.3940941087225942e-01  1.3605467100603597e-01  6.9369029286726197e-02  4.7773260359034599e-02  3.7629825725982301e-02  2.4930988025551160e-02  1.1885459012027182e-02  4.8387657362383213e-03  2.0516487276752674e-03  3.3540128632682550e-03  3.7144550117528597e-03  5.8919238926908651e-03  4.8535073661012916e-03  6.4376572018583688e-03  6.2909457148973107e-03  3.0877480561012556e-03  1.0146146297151515e-04  1.9537779701988262e-04  1.9819753698280378e-18  7.0010978784035285e-34  1.4834433288862090e-02  1.6506318104775573e-03  5.7455271473888028e-03  4.4864930373058800e-03  2.2834370516131284e-03  5.1081632742840180e-02  3.0380444406207466e-02  2.4906362858484788e-02  1.3759432160719171e-01  1.8911921605231318e-03  2.4510070714047144e-01  1.1626858195826721e-01  2.3374310978231300e-01  2.3201507987240119e-01  4.2942592929904350e-01  8.5389443499722731e-03  2.3532054222323327e-02  5.4188354493720048e-01  5.2648854830956486e-02  1.8686745645272004e-01  1.4051880246478102e-01  2.0927466163590686e-01  1.9679530441622986e-01  1.2434555027564986e-01  1.7106863749113221e-01  4.7664235203655383e-02  5.8075273581791112e-02  4.8988900569399009e-02  8.3903068675077838e-02  1.7321640034285213e-02  3.0051606673237935e-01  3.1576157904857510e-01  3.3747920262325254e-01  1.1775117324181271e-01  9.1460955646057301e-02  5.0104644370256822e-02  3.8669497051106123e-02  2.2717756234393798e-02  9.6121160722826456e-03  4.3048532887835925e-03  2.8701714277626564e-03  3.8678261318036929e-03  5.7476350663824135e-03  5.3601311076820549e-03  6.4985864676803604e-03  6.7571976589256687e-03  5.7612701200179285e-03  1.6189979621889711e-03  7.3818952346573841e-04  1.1668496464005881e-34  -9.9490162683451893e-19  8.9126246301675684e-03  9.3854943549309764e-03  9.7923413732645178e-03  7.5785158028891606e-03  1.3679164350914519e-03  1.8808985331668852e-02  6.8934686006967422e-03  1.3310944825746084e-02  6.4010934835933703e-02  9.703997