<?xml version="1.0"?>
<VTKFile type="UnstructuredGrid"  version="0.1"  >
<UnstructuredGrid>
<Piece  NumberOfPoints="40401" NumberOfCells="80000">
<Points>
<DataArray  type="Float64"  NumberOfComponents="3"  format="ascii">0 0 0  0.005 0 0  0.01 0 0  0.015 0 0  0.02 0 0  0.025 0 0  0.03 0 0  0.035 0 0  0.04 0 0  0.045 0 0  0.05 0 0  0.055 0 0  0.06 0 0  0.065 0 0  0.07000000000000001 0 0  0.075 0 0  0.08 0 0  0.08500000000000001 0 0  0.09 0 0  0.095 0 0  0.1 0 0  0.105 0 0  0.11 0 0  0.115 0 0  0.12 0 0  0.125 0 0  0.13 0 0  0.135 0 0  0.14 0 0  0.145 0 0  0.15 0 0  0.155 0 0  0.16 0 0  0.165 0 0  0.17 0 0  0.175 0 0  0.18 0 0  0.185 0 0  0.19 0 0  0.195 0 0  0.2 0 0  0.205 0 0  0.21 0 0  0.215 0 0  0.22 0 0  0.225 0 0  0.23 0 0  0.235 0 0  0.24 0 0  0.245 0 0  0.25 0 0  0.255 0 0  0.26 0 0  0.265 0 0  0.27 0 0  0.275 0 0  0.28 0 0  0.285 0 0  0.29 0 0  0.295 0 0  0.3 0 0  0.305 0 0  0.31 0 0  0.315 0 0  0.32 0 0  0.325 0 0  0.33 0 0  0.335 0 0  0.34 0 0  0.345 0 0  0.35 0 0  0.355 0 0  0.36 0 0  0.365 0 0  0.37 0 0  0.375 0 0  0.38 0 0  0.385 0 0  0.39 0 0  0.395 0 0  0.4 0 0  0.405 0 0  0.41 0 0  0.415 0 0  0.42 0 0  0.425 0 0  0.43 0 0  0.435 0 0  0.44 0 0  0.445 0 0  0.45 0 0  0.455 0 0  0.46 0 0  0.465 0 0  0.47 0 0  0.475 0 0  0.48 0 0  0.485 0 0  0.49 0 0  0.495 0 0  0.5 0 0  0.505 0 0  0.51 0 0  0.515 0 0  0.52 0 0  0.525 0 0  0.53 0 0  0.535 0 0  0.54 0 0  0.545 0 0  0.55 0 0  0.555 0 0  0.5600000000000001 0 0  0.5649999999999999 0 0  0.57 0 0  0.575 0 0  0.58 0 0  0.585 0 0  0.59 0 0  0.595 0 0  0.6 0 0  0.605 0 0  0.61 0 0  0.615 0 0  0.62 0 0  0.625 0 0  0.63 0 0  0.635 0 0  0.64 0 0  0.645 0 0  0.65 0 0  0.655 0 0  0.66 0 0  0.665 0 0  0.67 0 0  0.675 0 0  0.68 0 0  0.6850000000000001 0 0  0.6899999999999999 0 0  0.695 0 0  0.7 0 0  0.705 0 0  0.71 0 0  0.715 0 0  0.72 0 0  0.725 0 0  0.73 0 0  0.735 0 0  0.74 0 0  0.745 0 0  0.75 0 0  0.755 0 0  0.76 0 0  0.765 0 0  0.77 0 0  0.775 0 0  0.78 0 0  0.785 0 0  0.79 0 0  0.795 0 0  0.8 0 0  0.805 0 0  0.8100000000000001 0 0  0.8149999999999999 0 0  0.82 0 0  0.825 0 0  0.83 0 0  0.835 0 0  0.84 0 0  0.845 0 0  0.85 0 0  0.855 0 0  0.86 0 0  0.865 0 0  0.87 0 0  0.875 0 0  0.88 0 0  0.885 0 0  0.89 0 0  0.895 0 0  0.9 0 0  0.905 0 0  0.91 0 0  0.915 0 0  0.92 0 0  0.925 0 0  0.93 0 0  0.9350000000000001 0 0  0.9399999999999999 0 0  0.945 0 0  0.95 0 0  0.955 0 0  0.96 0 0  0.965 0 0  0.97 0 0  0.975 0 0  0.98 0 0  0.985 0 0  0.99 0 0  0.995 0 0  1 0 0  0 0.005 0  0.005 0.005 0  0.01 0.005 0  0.015 0.005 0  0.02 0.005 0  0.025 0.005 0  0.03 0.005 0  0.035 0.005 0  0.04 0.005 0  0.045 0.005 0  0.05 0.005 0  0.055 0.005 0  0.06 0.005 0  0.065 0.005 0  0.07000000000000001 0.005 0  0.075 0.005 0  0.08 0.005 0  0.08500000000000001 0.005 0  0.09 0.005 0  0.095 0.005 0  0.1 0.005 0  0.105 0.005 0  0.11 0.005 0  0.115 0.005 0  0.12 0.005 0  0.125 0.005 0  0.13 0.005 0  0.135 0.005 0  0.14 0.005 0  0.145 0.005 0  0.15 0.005 0  0.155 0.005 0  0.16 0.005 0  0.165 0.005 0  0.17 0.005 0  0.175 0.005 0  0.18 0.005 0  0.185 0.005 0  0.19 0.005 0  0.195 0.005 0  0.2 0.005 0  0.205 0.005 0  0.21 0.005 0  0.215 0.005 0  0.22 0.005 0  0.225 0.005 0  0.23 0.005 0  0.235 0.005 0  0.24 0.005 0  0.245 0.005 0  0.25 0.005 0  0.255 0.005 0  0.26 0.005 0  0.265 0.005 0  0.27 0.005 0  0.275 0.005 0  0.28 0.005 0  0.285 0.005 0  0.29 0.005 0  0.295 0.005 0  0.3 0.005 0  0.305 0.005 0  0.31 0.005 0  0.315 0.005 0  0.32 0.005 0  0.325 0.005 0  0.33 0.005 0  0.335 0.005 0  0.34 0.005 0  0.345 0.005 0  0.35 0.005 0  0.355 0.005 0  0.36 0.005 0  0.365 0.005 0  0.37 0.005 0  0.375 0.005 0  0.38 0.005 0  0.385 0.005 0  0.39 0.005 0  0.395 0.005 0  0.4 0.005 0  0.405 0.005 0  0.41 0.005 0  0.415 0.005 0  0.42 0.005 0  0.425 0.005 0  0.43 0.005 0  0.435 0.005 0  0.44 0.005 0  0.445 0.005 0  0.45 0.005 0  0.455 0.005 0  0.46 0.005 0  0.465 0.005 0  0.47 0.005 0  0.475 0.005 0  0.48 0.005 0  0.485 0.005 0  0.49 0.005 0  0.495 0.005 0  0.5 0.005 0  0.505 0.005 0  0.51 0.005 0  0.515 0.005 0  0.52 0.005 0  0.525 0.005 0  0.53 0.005 0  0.535 0.005 0  0.54 0.005 0  0.545 0.005 0  0.55 0.005 0  0.555 0.005 0  0.5600000000000001 0.005 0  0.5649999999999999 0.005 0  0.57 0.005 0  0.575 0.005 0  0.58 0.005 0  0.585 0.005 0  0.59 0.005 0  0.595 0.005 0  0.6 0.005 0  0.605 0.005 0  0.61 0.005 0  0.615 0.005 0  0.62 0.005 0  0.625 0.005 0  0.63 0.005 0  0.635 0.005 0  0.64 0.005 0  0.645 0.005 0  0.65 0.005 0  0.655 0.005 0  0.66 0.005 0  0.665 0.005 0  0.67 0.005 0  0.675 0.005 0  0.68 0.005 0  0.6850000000000001 0.005 0  0.6899999999999999 0.005 0  0.695 0.005 0  0.7 0.005 0  0.705 0.005 0  0.71 0.005 0  0.715 0.005 0  0.72 0.005 0  0.725 0.005 0  0.73 0.005 0  0.735 0.005 0  0.74 0.005 0  0.745 0.005 0  0.75 0.005 0  0.755 0.005 0  0.76 0.005 0  0.765 0.005 0  0.77 0.005 0  0.775 0.005 0  0.78 0.005 0  0.785 0.005 0  0.79 0.005 0  0.795 0.005 0  0.8 0.005 0  0.805 0.005 0  0.8100000000000001 0.005 0  0.8149999999999999 0.005 0  0.82 0.005 0  0.825 0.005 0  0.83 0.005 0  0.835 0.005 0  0.84 0.005 0  0.845 0.005 0  0.85 0.005 0  0.855 0.005 0  0.86 0.005 0  0.865 0.005 0  0.87 0.005 0  0.875 0.005 0  0.88 0.005 0  0.885 0.005 0  0.89 0.005 0  0.895 0.005 0  0.9 0.005 0  0.905 0.005 0  0.91 0.005 0  0.915 0.005 0  0.92 0.005 0  0.925 0.005 0  0.93 0.005 0  0.9350000000000001 0.005 0  0.9399999999999999 0.005 0  0.945 0.005 0  0.95 0.005 0  0.955 0.005 0  0.96 0.005 0  0.965 0.005 0  0.97 0.005 0  0.975 0.005 0  0.98 0.005 0  0.985 0.005 0  0.99 0.005 0  0.995 0.005 0  1 0.005 0  0 0.01 0  0.005 0.01 0  0.01 0.01 0  0.015 0.01 0  0.02 0.01 0  0.025 0.01 0  0.03 0.01 0  0.035 0.01 0  0.04 0.01 0  0.045 0.01 0  0.05 0.01 0  0.055 0.01 0  0.06 0.01 0  0.065 0.01 0  0.07000000000000001 0.01 0  0.075 0.01 0  0.08 0.01 0  0.08500000000000001 0.01 0  0.09 0.01 0  0.095 0.01 0  0.1 0.01 0  0.105 0.01 0  0.11 0.01 0  0.115 0.01 0  0.12 0.01 0  0.125 0.01 0  0.13 0.01 0  0.135 0.01 0  0.14 0.01 0  0.145 0.01 0  0.15 0.01 0  0.155 0.01 0  0.16 0.01 0  0.165 0.01 0  0.17 0.01 0  0.175 0.01 0  0.18 0.01 0  0.185 0.01 0  0.19 0.01 0  0.195 0.01 0  0.2 0.01 0  0.205 0.01 0  0.21 0.01 0  0.215 0.01 0  0.22 0.01 0  0.225 0.01 0  0.23 0.01 0  0.235 0.01 0  0.24 0.01 0  0.245 0.01 0  0.25 0.01 0  0.255 0.01 0  0.26 0.01 0  0.265 0.01 0  0.27 0.01 0  0.275 0.01 0  0.28 0.01 0  0.285 0.01 0  0.29 0.01 0  0.295 0.01 0  0.3 0.01 0  0.305 0.01 0  0.31 0.01 0  0.315 0.01 0  0.32 0.01 0  0.325 0.01 0  0.33 0.01 0  0.335 0.01 0  0.34 0.01 0  0.345 0.01 0  0.35 0.01 0  0.355 0.01 0  0.36 0.01 0  0.365 0.01 0  0.37 0.01 0  0.375 0.01 0  0.38 0.01 0  0.385 0.01 0  0.39 0.01 0  0.395 0.01 0  0.4 0.01 0  0.405 0.01 0  0.41 0.01 0  0.415 0.01 0  0.42 0.01 0  0.425 0.01 0  0.43 0.01 0  0.435 0.01 0  0.44 0.01 0  0.445 0.01 0  0.45 0.01 0  0.455 0.01 0  0.46 0.01 0  0.465 0.01 0  0.47 0.01 0  0.475 0.01 0  0.48 0.01 0  0.485 0.01 0  0.49 0.01 0  0.495 0.01 0  0.5 0.01 0  0.505 0.01 0  0.51 0.01 0  0.515 0.01 0  0.52 0.01 0  0.525 0.01 0  0.53 0.01 0  0.535 0.01 0  0.54 0.01 0  0.545 0.01 0  0.55 0.01 0  0.555 0.01 0  0.5600000000000001 0.01 0  0.5649999999999999 0.01 0  0.57 0.01 0  0.575 0.01 0  0.58 0.01 0  0.585 0.01 0  0.59 0.01 0  0.595 0.01 0  0.6 0.01 0  0.605 0.01 0  0.61 0.01 0  0.615 0.01 0  0.62 0.01 0  0.625 0.01 0  0.63 0.01 0  0.635 0.01 0  0.64 0.01 0  0.645 0.01 0  0.65 0.01 0  0.655 0.01 0  0.66 0.01 0  0.665 0.01 0  0.67 0.01 0  0.675 0.01 0  0.68 0.01 0  0.6850000000000001 0.01 0  0.6899999999999999 0.01 0  0.695 0.01 0  0.7 0.01 0  0.705 0.01 0  0.71 0.01 0  0.715 0.01 0  0.72 0.01 0  0.725 0.01 0  0.73 0.01 0  0.735 0.01 0  0.74 0.01 0  0.745 0.01 0  0.75 0.01 0  0.755 0.01 0  0.76 0.01 0  0.765 0.01 0  0.77 0.01 0  0.775 0.01 0  0.78 0.01 0  0.785 0.01 0  0.79 0.01 0  0.795 0.01 0  0.8 0.01 0  0.805 0.01 0  0.8100000000000001 0.01 0  0.8149999999999999 0.01 0  0.82 0.01 0  0.825 0.01 0  0.83 0.01 0  0.835 0.01 0  0.84 0.01 0  0.845 0.01 0  0.85 0.01 0  0.855 0.01 0  0.86 0.01 0  0.865 0.01 0  0.87 0.01 0  0.875 0.01 0  0.88 0.01 0  0.885 0.01 0  0.89 0.01 0  0.895 0.01 0  0.9 0.01 0  0.905 0.01 0  0.91 0.01 0  0.915 0.01 0  0.92 0.01 0  0.925 0.01 0  0.93 0.01 0  0.9350000000000001 0.01 0  0.9399999999999999 0.01 0  0.945 0.01 0  0.95 0.01 0  0.955 0.01 0  0.96 0.01 0  0.965 0.01 0  0.97 0.01 0  0.975 0.01 0  0.98 0.01 0  0.985 0.01 0  0.99 0.01 0  0.995 0.01 0  1 0.01 0  0 0.015 0  0.005 0.015 0  0.01 0.015 0  0.015 0.015 0  0.02 0.015 0  0.025 0.015 0  0.03 0.015 0  0.035 0.015 0  0.04 0.015 0  0.045 0.015 0  0.05 0.015 0  0.055 0.015 0  0.06 0.015 0  0.065 0.015 0  0.07000000000000001 0.015 0  0.075 0.015 0  0.08 0.015 0  0.08500000000000001 0.015 0  0.09 0.015 0  0.095 0.015 0  0.1 0.015 0  0.105 0.015 0  0.11 0.015 0  0.115 0.015 0  0.12 0.015 0  0.125 0.015 0  0.13 0.015 0  0.135 0.015 0  0.14 0.015 0  0.145 0.015 0  0.15 0.015 0  0.155 0.015 0  0.16 0.015 0  0.165 0.015 0  0.17 0.015 0  0.175 0.015 0  0.18 0.015 0  0.185 0.015 0  0.19 0.015 0  0.195 0.015 0  0.2 0.015 0  0.205 0.015 0  0.21 0.015 0  0.215 0.015 0  0.22 0.015 0  0.225 0.015 0  0.23 0.015 0  0.235 0.015 0  0.24 0.015 0  0.245 0.015 0  0.25 0.015 0  0.255 0.015 0  0.26 0.015 0  0.265 0.015 0  0.27 0.015 0  0.275 0.015 0  0.28 0.015 0  0.285 0.015 0  0.29 0.015 0  0.295 0.015 0  0.3 0.015 0  0.305 0.015 0  0.31 0.015 0  0.315 0.015 0  0.32 0.015 0  0.325 0.015 0  0.33 0.015 0  0.335 0.015 0  0.34 0.015 0  0.345 0.015 0  0.35 0.015 0  0.355 0.015 0  0.36 0.015 0  0.365 0.015 0  0.37 0.015 0  0.375 0.015 0  0.38 0.015 0  0.385 0.015 0  0.39 0.015 0  0.395 0.015 0  0.4 0.015 0  0.405 0.015 0  0.41 0.015 0  0.415 0.015 0  0.42 0.015 0  0.425 0.015 0  0.43 0.015 0  0.435 0.015 0  0.44 0.015 0  0.445 0.015 0  0.45 0.015 0  0.455 0.015 0  0.46 0.015 0  0.465 0.015 0  0.47 0.015 0  0.475 0.015 0  0.48 0.015 0  0.485 0.015 0  0.49 0.015 0  0.495 0.015 0  0.5 0.015 0  0.505 0.015 0  0.51 0.015 0  0.515 0.015 0  0.52 0.015 0  0.525 0.015 0  0.53 0.015 0  0.535 0.015 0  0.54 0.015 0  0.545 0.015 0  0.55 0.015 0  0.555 0.015 0  0.5600000000000001 0.015 0  0.
[...]
<PointData  Scalars="Indicator Function"> 
<DataArray  type="Float64"  Name="Indicator Function"  format="ascii">-3.0092655381050560e-36  -1.0348151775314581e-20  2.7343300627106353e-19  7.8941570019941562e-19  2.5258492283040746e-19  -6.3203063451138066e-21  -1.3037855929550200e-20  2.7373529282305950e-19  4.4945342391365912e-18  -1.1918312675956866e-20  -1.7778067073436482e-19  9.9116047642685394e-18  -1.0158955337129846e-20  -6.5527516029481724e-21  1.4140577101691946e-17  -3.5608599906839697e-20  -2.9585396441227557e-20  6.6137930710972567e-18  -9.8999102346697831e-21  -2.5277830520082471e-34  -6.9216019508580216e-19  -1.3711920827779508e-20  -3.8041469417525380e-20  1.3161570015251248e-17  -6.3544094552023298e-21  -1.1779776695682783e-20  -3.4824579347463035e-20  1.4143548029093763e-34  -9.4183585630141838e-19  -1.7903158671748564e-21  -3.7160684270317082e-20  -3.6932715706789414e-20  2.4074124304840448e-35  -1.3045147094846170e-20  3.7730534283270553e-17  -4.3229939938091453e-20  -6.7282578064605499e-20  -9.7219108682741876e-20  -1.3194176563762049e-20  -2.0024310220195151e-20  4.9475063628126555e-17  2.4074124304840448e-35  -1.9612077840943175e-20  -2.9801362567330248e-20  -1.5369039872787877e-20  -1.5650276037273026e-20  1.5869696382201013e-16  -1.0688338499269882e-19  -1.3543880723748039e-19  -6.7719403618740243e-20  -8.3935042722360698e-20  -7.3888055901226627e-20  -9.3774395137584526e-20  -1.6542210180915407e-19  -8.2711050904577061e-20  -9.2103097918886814e-20  3.9819238061426107e-16  -6.2349825670882768e-20  -9.5005641550008062e-20  -1.2559643489586758e-19  -9.1313999770515432e-20  -2.0389517847982948e-19  -8.0956603209892754e-20  -1.6706297271212656e-19  -1.2199153663171947e-19  -1.7006310046484385e-19  -2.2995879919199839e-19  -5.9100412683322322e-20  1.0013198794946501e-17  -2.3799459097456113e-19  -2.4929632277681222e-19  -1.1703300899900452e-19  -1.1014332806038053e-19  -2.8942040521033061e-19  -4.3696679629185102e-19  -5.1347812679307265e-19  -5.4698042676221292e-19  -5.5047712301812928e-19  -5.1347355292260548e-19  -4.1823694020179967e-19  -2.2899903529191507e-19  6.2550196927177814e-17  -1.4103924238794015e-19  -2.2237519875842947e-19  -1.4323534720495370e-19  -1.3845566714575395e-19  -1.0701517232909701e-19  -1.1754630193869221e-19  -6.0214560568758430e-20  -1.2708515839784273e-19  -6.3542579198921399e-20  -7.8414405169583863e-20  -5.6236776326191497e-20  1.2012380384261392e-16  -2.6707114549774247e-20  -8.3018012340117291e-21  6.0185310762101120e-36  -7.9749127007539173e-23  -7.4332189518687322e-21  -1.4463045233593761e-20  8.1485474568176069e-17  1.3519731771691966e-16  1.1581087340347492e-17  -4.7650438016075472e-18  1.2734750130031494e-17  8.8882903694645081e-18  4.1516644836818724e-17  4.2122900994526055e-17  5.4636072756957256e-18  1.6609903124520489e-17  4.4681574709783872e-32  2.8903669274905428e-19  -2.1487017231042919e-22  1.4279110547676916e-20  -8.0514619778910868e-21  2.2892156267619530e-20  -9.3445261096343770e-22  2.3267496340982542e-20  -1.1052741072678271e-21  2.4634342937306710e-20  -1.6767758416583756e-21  2.6281421693912343e-20  -1.8700679801902923e-21  2.6834031928279770e-20  -1.8498246184526585e-21  2.6368624512859761e-20  -1.6546215391414452e-21  2.5059501425090379e-20  -1.4980230983024894e-21  2.2908077906280075e-20  -1.3326281731818618e-21  2.0400147238693492e-20  -1.1841799297928979e-21  1.7542347984166419e-20  -1.0295219145973102e-21  1.4726676142146012e-20  -8.0226880614728437e-22  -4.0435895160380879e-23  1.0228440689451018e-20  -4.3322832244655531e-22  8.2567505734998377e-21  -3.0179405967598888e-22  2.7848847682553028e-21  1.1908864496476500e-22  6.6019719736430675e-22  2.9966925889525013e-21  1.1595081418037601e-21  3.2967360876133605e-21  4.7259936289306249e-21  2.8464863373172845e-21  -5.3738601731553599e-22  2.6373877557210640e-20  5.2730571354610010e-21  1.4239377453183892e-20  1.3846465435257795e-20  -3.5708173048664679e-22  1.0531596606677984e-20  5.2832892624461723e-21  5.8646112766403506e-21  1.0035347538451584e-20  6.4446666257425069e-21  9.5962054947784620e-21  -8.4149034901704926e-25  8.1240135043510522e-21  8.1798935414979909e-21  2.1628514211898190e-20  1.2958644223562049e-21  1.3527320528892285e-20  -3.9765807600333595e-22  5.7494641445600567e-21  -8.9664286179753142e-22  5.7082977651120525e-21  -5.2926657331671777e-22  6.3559781171890936e-21  -1.9944723795869549e-22  5.6644187089890579e-21  -6.7855486306425672e-23  4.3617065888740669e-21  -3.9992568580249619e-23  2.9638334396850388e-21  -4.7957653218613769e-23  1.6355933856813069e-21  -6.7553930243339366e-23  4.3905279555211970e-22  8.7081934520670404e-23  1.0087362341196492e-22  9.7297233105167208e-22  -1.0708626755187811e-24  1.0596060711876094e-22  1.6371156516271954e-21  4.9126217016741024e-23  1.1674728809734114e-21  6.9678539543814967e-22  2.8836967059284989e-22  7.2289115002167048e-22  3.1550097678792857e-24  1.7991195486863483e-22  -1.1588562725440926e-23  8.3733149339615989e-23  2.8592177142155301e-22  -7.6682639291922662e-39  -1.1416680060357999e-20  6.3299215858426828e-05  2.1336667328383785e-04  6.6813634258529539e-05  2.2195132562502859e-04  2.3084203033206358e-05  1.1385651720288764e-04  2.3486913242412970e-04  2.1061969693121597e-04  4.2940246821059254e-04  2.3529569969585286e-04  8.2077279906620438e-06  2.8801551357539518e-04  2.3608775741829597e-04  1.0091702760525907e-03  6.5802183034698199e-04  6.4146750908651335e-04  5.3296312155328774e-04  4.2602271839859291e-04  1.7834092817544081e-04  2.1828679744150461e-04  4.9402401224417228e-04  4.7959540146101892e-04  6.8529418997357770e-04  2.2894172843686991e-04  3.3758199325243879e-04  1.0722120845971632e-03  1.2322693945405253e-03  7.8332757980083140e-05  6.4502926978273289e-05  1.3388547506610611e-03  1.0116767117796602e-03  6.6532065877950887e-04  4.7000095676280373e-04  1.2622084239537438e-03  1.5575227311715001e-03  2.4241103480022678e-03  1.1386359487178686e-03  1.7513437665475525e-03  2.3768515462407752e-04  3.6072590418407679e-04  2.4198572301700968e-05  7.0659957165146209e-04  1.0737072428268900e-03  5.5372801795303735e-04  4.0687121510574745e-04  7.8494701765971232e-05  8.6793215630235287e-04  1.9254398913008631e-03  2.4398486472248840e-03  3.0240786170220029e-03  2.6620977681911561e-03  1.5469550860091337e-03  9.1581178098950938e-04  2.9799796642662017e-03  3.3183638197375118e-03  1.1463729606791802e-03  2.2463892132640220e-03  3.1756617614420021e-03  1.2363860680984383e-04  3.2899335627216220e-03  1.5125599498071424e-03  2.9167690243940315e-03  1.6993417343170159e-03  2.1598680994564540e-03  1.1176701059396373e-03  4.0265053542046288e-03  2.1293167723042878e-03  1.2974919953756498e-03  2.2236822126034104e-03  3.1754882986152022e-03  2.9031791561423439e-03  6.5668968480068546e-04  1.9841658048403038e-03  4.2216516138144982e-03  5.7608681969057883e-03  6.3695655034998327e-03  6.6687406328311107e-03  6.5821439479861622e-03  5.9588452324343191e-03  4.5548642959644435e-03  1.8478477320532688e-03  7.2104035085342134e-04  2.1802169424250664e-03  2.9158469778470782e-03  1.1223751362705128e-03  2.4941955638598033e-03  6.8071617896734132e-04  2.1175259264394962e-03  2.5966126939205832e-05  2.2893626880193794e-03  2.8251766872177350e-03  2.0261433992571271e-03  1.5181046075504201e-03  7.6761448645318276e-04  4.8111260453801786e-04  1.4955195577599659e-04  2.8732651093942685e-06  2.6780993681439525e-04  1.6435065431076980e-04  1.7836773334325157e-04  4.6281768401125191e-04  5.2531223748573702e-04  2.7919219055486214e-04  6.4244705423379151e-05  2.0691543478710158e-05  4.3678122453548189e-06  4.5569244488308928e-05  2.7453611654603164e-04  2.6915212875725574e-05  7.8641248774806075e-06  2.0045059525047037e-05  4.5549329864394875e-06  2.9592746800983488e-06  2.3203120446563774e-06  1.9548060429664430e-06  1.8420094703726870e-06  1.7976229542294530e-06  1.7593045260576306e-06  1.7073282748237497e-06  1.6403052269415422e-06  1.5627395748511278e-06  1.4789067665755872e-06  1.3928377585299718e-06  1.3061705618697041e-06  1.2212291540437549e-06  1.1408948341686511e-06  1.0649511861548013e-06  9.9255087992191324e-07  9.2384522864896245e-07  8.5894657334210476e-07  7.9785665268379710e-07  7.4039941836607233e-07  6.8614319618758717e-07  6.3491512454247173e-07  5.8775593552730918e-07  5.4452079410473242e-07  5.0770916814795414e-07  4.7457374543276134e-07  4.4376800912193922e-07  4.2370242999518011e-07  4.1315917815770706e-07  3.9905113303802304e-07  3.6934848456522288e-07  3.3569890005881252e-07  3.0603729161530805e-07  2.5526490718518029e-07  2.0302208984398311e-07  2.2887585194762325e-07  3.4617215689257999e-07  4.7393378977703752e-07  4.9871713534059088e-07  3.4129245274220972e-07  1.0291688594643935e-07  4.2980132291508798e-08  7.3633431248400005e-08  5.7459857975741692e-08  3.4477940339534573e-08  1.5901179168199120e-08  6.1832301185964739e-09  3.0690151314598437e-09  4.6871633290238379e-09  8.6286103769534070e-09  1.0844637300597655e-08  2.8567876600792821e-08  8.2521378841815565e-08  1.5746215776326382e-07  2.1562587536253420e-07  2.3407775797218392e-07  2.1587623314563174e-07  1.7810164146197220e-07  1.3749780982739332e-07  1.0377106203085877e-07  7.9805300779638607e-08  6.4519656374877295e-08  5.5456701738906239e-08  5.0245380566539383e-08  4.7126634412389457e-08  4.4970453966531568e-08  4.3113135729521198e-08  4.1182847624651613e-08  3.8971548373474304e-08  3.6358106504735685e-08  3.3270300320893160e-08  2.9672741369894835e-08  2.5571136987125726e-08  2.1025686389131712e-08  1.6167030425856655e-08  1.1207431772797303e-08  6.4377916555301640e-09  2.1982038828948162e-09  1.1898320464372492e-09  3.5286953803626121e-09  4.8520899714025662e-09  5.4479038842754663e-09  5.7020900657239078e-09  5.8370514612918478e-09  5.9508872896892105e-09  5.4215462128568664e-09  1.6169999891706915e-09  4.4880765469897924e-26  -3.2513146315601174e-21  2.0961139842118988e-04  9.4356438968770177e-05  1.7684607932102155e-04  2.3911047679489925e-04  5.1024962677011002e-05  1.7772512763353050e-04  5.9329336462455966e-04  1.7022519583297414e-04  5.1174402271314567e-04  9.4518842524793149e-06  9.4231077956589439e-04  1.4272728891858699e-03  5.4070179144900799e-04  1.2971969596409585e-04  6.7082119914708754e-04  7.0023759652140631e-04  1.4029829962211712e-03  8.5523270575831327e-04  4.5518079333317418e-04  1.2819552775080888e-03  1.9791483214290379e-03  1.0072436034106549e-03  1.0664107763055388e-03  1.0534382397060539e-03  1.2464119805118143e-03  2.9615539469251636e-05  4.2828737573744649e-04  5.0380691992161109e-04  2.5853060522584323e-03  1.3874173401842542e-03  5.2494358159255107e-04  1.7294351246696308e-03  2.5482859607523010e-03  2.9739411168548616e-03  2.5157455698794702e-03  4.5424049039475704e-04  9.1178118523434923e-05  2.8361779195488490e-03  2.0556110553363953e-03  3.6514310861778306e-03  4.0228080496625233e-03  4.3527571969241702e-03  5.2719129663972401e-03  6.1053556478590613e-03  4.9917735677283944e-03  4.5051259887561477e-03  5.1362725365331962e-03  5.9472864066008697e-03  4.5180889536546075e-03  1.6350460634169911e-03  2.5962630960263858e-03  5.5743996260303099e-03  7.1004028003275894e-03  5.3678181941701009e-03  1.1823000450323709e-03  3.9669686062821698e-03  6.3381730273759677e-03  2.7748616182814057e-03  3.4171152430329324e-03  3.1601514741404898e-03  4.0137952019463569e-03  7.7596763805133267e-03  1.0728080520924308e-03  2.7472015217672526e-03  3.8717017200224049e-03  3.5071437659084485e-03  6.3213044307285048e-03  1.0780452588552752e-03  3.5397313788558260e-03  3.2416418010839023e-03  4.2399190187000320e-03  2.4712970768155963e-03  1.4449126709520531e-03  5.0556122475716577e-03  7.4117214423822146e-03  8.4637885978686087e-03  9.1963430148569534e-03  9.1007003609547138e-03  9.0263357226177988e-03  7.0302879160283145e-03  4.1937153886318001e-03  3.6915000498325475e-04  2.7018231453321859e-03  3.1809218661211992e-03  3.9535180691072759e-03  2.3894566750536227e-03  3.5031330376209301e-03  2.8784355528753223e-03  2.2972574003171423e-03  3.8470430442197781e-03  1.8116101400017419e-03  1.7017215077219967e-04  3.9196471778552716e-05  1.4630604305199054e-04  7.2297395214840582e-04  7.2113479805882390e-04  7.3682875613440848e-04  5.8607034191020713e-04  9.2671168277097635e-04  1.1631600441146393e-03  9.0378518119223704e-04  2.5916785334597947e-04  4.4635208336044817e-04  7.1894833489187353e-04  2.9798573081673348e-04  2.4675233187016398e-04  2.5937195055880430e-04  3.1730876422504049e-04  2.4731281596781271e-04  7.1624985013603226e-05  4.0806153411860020e-05  1.9516442976210947e-05  3.8819778344883248e-06  3.5696224179144936e-06  2.7396041485446233e-06  2.4473383793762015e-06  2.3694557998987221e-06  2.3393788377308935e-06  2.3011490270858107e-06  2.2399596809144462e-06  2.1583216281961485e-06  2.0623098982139015e-06  1.9579232633379277e-06  1.8496773163082693e-06  1.7395238133950186e-06  1.6326262331109131e-06  1.5311715799229777e-06  1.4336198188503862e-06  1.3398098571334515e-06  1.2504342677417747e-06  1.1655915098426027e-06  1.0853187040639680e-06  1.0093035299863265e-06  9.3682100615673184e-07  8.6898578951874508e-07  8.0646041954771799e-07  7.5050613521720431e-07  7.0353880351881590e-07  6.5765658054091303e-07  6.2064681319029031e-07  6.0139991106784985e-07  5.8711175427832786e-07  5.5520317587591378e-07  5.0345247869333396e-07  4.6079152207828787e-07  4.0885472863965642e-07  3.2210846925183552e-07  2.9097210723944302e-07  4.0862932950119742e-07  6.0457556155315674e-07  7.2882837650871733e-07  6.2168918805830792e-07  2.8810924192506385e-07  6.3659652998078900e-09  1.0598986867518583e-07  9.5060685906241082e-08  6.4950448788524576e-08  3.8024395633029617e-08  2.0460754790059637e-08  1.4251276314134149e-08  1.4406019097505628e-08  2.0960238422606612e-08  2.6142985963962960e-08  3.6020872348780031e-08  8.8507225345617244e-08  1.9008048536841847e-07  2.9152161471858843e-07  3.4378639298231340e-07  3.3698260985513596e-07  2.9122460135797878e-07  2.3286058907372871e-07  1.7998977026428735e-07  1.4000438221908671e-07  1.1308380265504281e-07  9.6270812466165028e-08  8.6101317477035069e-08  7.9763737082358176e-08  7.5343908920940622e-08  7.1672590332193475e-08  6.8082417079019086e-08  6.4203704011367482e-08  5.9830166239398583e-08  5.4844903784306357e-08  4.9188549901505613e-08  4.2855138630354402e-08  3.5905867100719409e-08  2.8492325719977713e-08  2.0878232105184371e-08  1.3444122618829148e-08  6.6570059862342926e-09  9.9072255144771047e-10  3.2037654602938857e-09  5.8493298580057617e-09  7.2365857903416473e-09  7.9364704731000684e-09  8.4636808642658651e-09  9.0023946766881216e-09  9.6874364426841271e-09  6.7463953978151612e-09  1.6852507883729860e-24  -1.3078445239746377e-22  5.8570477452633619e-05  2.4475087707381734e-04  2.7902839365123640e-04  2.4913749969375444e-04  5.7189600472309324e-04  9.1718383728573092e-05  4.0465695758139280e-04  7.5336081825488118e-04  4.2973171239794211e-04  1.1648885308647528e-03  6.0396339909909405e-04  4.2830351499687988e-04  1.1183849410973448e-03  7.5147997396401566e-04  1.8921188750136118e-03  1.8077894813386165e-03  2.1094867908098940e-03  1.8936988530445095e-03  1.3359278769267005e-03  9.1311749664356315e-04  5.1794245046029230e-04  2.7714249840154548e-04  1.1491611407762113e-03  2.1590937702121089e-03  4.9903427474748917e-04  4.0021448818679039e-04  2.2929622383353180e-03  3.2558666541945155e-03  1.2361744024511681e-03  8.8004345671044491e-04  2.0856417016244426e-03  2.9223731665453238e-03  2.9373561139494153e-03  7.4263802521690311e-04  1.3894290469047661e-03  2.8542765899692143e-03  5.4509834510149298e-03  4.0793861752843000e-03  5.2093483728214759e-03  2.6538239532176875e-03  2.5517599244036016e-03  2.1872604256953378e-03  9.0826038588123455e-04  7.2207114357542053e-05  1.0166236244792820e-03  1.1506496098927759e-03  2.0774295023014370e-03  4.2922410869476119e-03  7.0409560721093308e-03  7.6984449380455991e-03  7.4542985547475741e-03  5.2522718299514168e-03  1.7584616192181887e-03  4.0123781353494882e-03  8.4671938385801199e-03  8.3746808896256672e-03  2.0848197239576494e-03  6.3595495745418012e-03  8.4542886062348895e-03  3.6458930190843777e-04  7.2018196480325720e-03  3.1055099378834326e-03  7.5047709141214105e-03  5.7710102125009691e-03  3.3057403174607280e-03  1.7253682052055233e-03  8.9804302351896032e-03  3.0594527623865274e-03  4.5295560074528002e-03  3.9453489005488920e-03  4.4316699422888121e-03  3.9184181290724757e-03  1.3374254548850927e-04  4.2130225811109305e-03  7.3294151447555649e-03  9.3216609933733565e-03  9.7832421934984665e-03  1.0300950025808331e-02  9.9918696320576532e-03  9.0943776598362853e-03  6.4950335016789986e-03  1.8678623880022604e-03  1.8701302112632782e-03  3.6219974667732438e-03  4.0276535249429632e-03  1.4548371998839113e-03  5.8428039968149662e-03  6.6228736709424054e-04  5.6321166569165181e-03  4.2805625348918175e-04  6.2024030681735679e-03  7.8062946671753359e-03  5.6406049257708320e-03  4.0522447525815179e-03  2.4588092585345759e-03  1.6684658173227976e-03  8.5264941680934022e-04  3.8630172539687449e-04  1.9010980197195582e-04  1.0651239963107631e-05  7.4650628651023771e-04  1.3503266261564466e-03  1.3366936784543586e-03  6.2276721908334888e-04  2.6667394108521457e-04  1.8955170641252078e-04  1.0342522492027023e-04  1.8791609566618070e-04  6.2925729236469412e-04  4.0193762999418109e-05  5.1654214032837559e-05  5.7841607648358731e-05  1.1384703539226200e-05  4.6996080368255003e-06  3.9651797724089404e-06  3.1048294820095460e-06  2.8053599737777971e-06  2.6786078253325405e-06  2.6012367888546903e-06  2.5250676772419272e-06  2.4362541548115264e-06  2.3354884904234101e-06  2.2255724235994274e-06  2.1113364963992780e-06  1.9941965610705642e-06  1.8773997028185576e-06  1.7663857748868410e-06  1.6601735139899996e-06  1.5570514256894556e-06  1.4579133873007374e-06  1.3633047832209884e-06  1.2733263937566828e-06  1.1878479195523940e-06  1.1063095765429273e-06  1.0284186008497709e-06  9.5654183307170461e-07  8.9002859099242827e-07  8.3375859625501612e-07  7.8313310688330522e-07  7.3381083539352589e-07  7.0320186267976139e-07  6.8896811102446764e-07  6.6630706378170074e-07  6.1353558479018787e-07  5.5489312393881216e-07  5.1035122956655728e-07  4.2713488002829737e-07  3.3541360978073316e-07  3.8625810946949966e-07  5.9690680863512476e-07  8.0755239213598415e-07  8.2935883384014785e-07  5.3133072016446134e-07  1.1168324411152652e-07  1.0439230170969727e-07  1.1506768712729709e-07  7.6278729309708969e-08  4.5726025910657893e-08  2.3717053448407824e-08  1.4068493346865176e-08  1.3255986925891137e-08  1.8639008416062754e-08  2.8352277160150948e-08  3.3158580923388459e-08  6.3889703858458157e-08  1.6000757485520968e-07  2.8936857374618533e-07  3.8108088281322791e-07  4.0078571888917586e-07  3.6232924879580171e-07  2.9805132141735243e-07  2.3410215201987146e-07  1.8313134123556711e-07  1.4749748791307212e-07  1.2458019427046774e-07  1.1046394671276113e-07  1.0169261636466771e-07  9.5782403051352017e-08  9.1148133859729319e-08  8.6851601404534622e-08  8.2359543313725308e-08  7.7370560549953072e-08  7.1712020122682618e-08  6.5289635735429577e-08  5.8072653885582196e-08  5.0101834923276481e-08  4.1510372523283480e-08  3.2548503568592981e-08  2.3599968478078319e-08  1.5172219671479111e-08  7.8359915629953048e-09  2.0947113315719898e-09  1.8053280896845449e-09  4.0489178955712542e-09  5.2544457902380637e-09  6.1525725842426519e-09  7.0764993488563793e-09  8.0504929599094303e-09  8.0166371130618370e-09  -3.2773792691383114e-38  -2.4074124304840448e-35  2.3560032443321732e-06  1.1509331412815356e-04  1.0845476850801538e-04  2.8123209224678423e-04  5.1522091161201240e-05  2.4262483649569857e-06  1.8213937797341748e-04  6.2518034492113563e-04  1.8787971403978187e-04  5.0766134422540953e-04  2.1164459284345657e-04  1.3796302763017965e-03  1.9634414638254791e-03  8.2747687853317584e-04  8.0810955679735307e-05  1.6984312429395435e-03  1.7282974382965287e-04  1.3844242734463511e-03  9.6685639214368860e