<?xml version="1.0"?>
<VTKFile type="UnstructuredGrid"  version="0.1"  >
<UnstructuredGrid>
<Piece  NumberOfPoints="2601" NumberOfCells="5000">
<Points>
<DataArray  type="Float64"  NumberOfComponents="3"  format="ascii">0 0 0  0.02 0 0  0.04 0 0  0.06 0 0  0.08 0 0  0.1 0 0  0.12 0 0  0.14 0 0  0.16 0 0  0.18 0 0  0.2 0 0  0.22 0 0  0.24 0 0  0.26 0 0  0.28 0 0  0.3 0 0  0.32 0 0  0.34 0 0  0.36 0 0  0.38 0 0  0.4 0 0  0.42 0 0  0.44 0 0  0.46 0 0  0.48 0 0  0.5 0 0  0.52 0 0  0.54 0 0  0.5600000000000001 0 0  0.58 0 0  0.6 0 0  0.62 0 0  0.64 0 0  0.66 0 0  0.68 0 0  0.7 0 0  0.72 0 0  0.74 0 0  0.76 0 0  0.78 0 0  0.8 0 0  0.82 0 0  0.84 0 0  0.86 0 0  0.88 0 0  0.9 0 0  0.92 0 0  0.9399999999999999 0 0  0.96 0 0  0.98 0 0  1 0 0  0 0.02 0  0.02 0.02 0  0.04 0.02 0  0.06 0.02 0  0.08 0.02 0  0.1 0.02 0  0.12 0.02 0  0.14 0.02 0  0.16 0.02 0  0.18 0.02 0  0.2 0.02 0  0.22 0.02 0  0.24 0.02 0  0.26 0.02 0  0.28 0.02 0  0.3 0.02 0  0.32 0.02 0  0.34 0.02 0  0.36 0.02 0  0.38 0.02 0  0.4 0.02 0  0.42 0.02 0  0.44 0.02 0  0.46 0.02 0  0.48 0.02 0  0.5 0.02 0  0.52 0.02 0  0.54 0.02 0  0.5600000000000001 0.02 0  0.58 0.02 0  0.6 0.02 0  0.62 0.02 0  0.64 0.02 0  0.66 0.02 0  0.68 0.02 0  0.7 0.02 0  0.72 0.02 0  0.74 0.02 0  0.76 0.02 0  0.78 0.02 0  0.8 0.02 0  0.82 0.02 0  0.84 0.02 0  0.86 0.02 0  0.88 0.02 0  0.9 0.02 0  0.92 0.02 0  0.9399999999999999 0.02 0  0.96 0.02 0  0.98 0.02 0  1 0.02 0  0 0.04 0  0.02 0.04 0  0.04 0.04 0  0.06 0.04 0  0.08 0.04 0  0.1 0.04 0  0.12 0.04 0  0.14 0.04 0  0.16 0.04 0  0.18 0.04 0  0.2 0.04 0  0.22 0.04 0  0.24 0.04 0  0.26 0.04 0  0.28 0.04 0  0.3 0.04 0  0.32 0.04 0  0.34 0.04 0  0.36 0.04 0  0.38 0.04 0  0.4 0.04 0  0.42 0.04 0  0.44 0.04 0  0.46 0.04 0  0.48 0.04 0  0.5 0.04 0  0.52 0.04 0  0.54 0.04 0  0.5600000000000001 0.04 0  0.58 0.04 0  0.6 0.04 0  0.62 0.04 0  0.64 0.04 0  0.66 0.04 0  0.68 0.04 0  0.7 0.04 0  0.72 0.04 0  0.74 0.04 0  0.76 0.04 0  0.78 0.04 0  0.8 0.04 0  0.82 0.04 0  0.84 0.04 0  0.86 0.04 0  0.88 0.04 0  0.9 0.04 0  0.92 0.04 0  0.9399999999999999 0.04 0  0.96 0.04 0  0.98 0.04 0  1 0.04 0  0 0.06 0  0.02 0.06 0  0.04 0.06 0  0.06 0.06 0  0.08 0.06 0  0.1 0.06 0  0.12 0.06 0  0.14 0.06 0  0.16 0.06 0  0.18 0.06 0  0.2 0.06 0  0.22 0.06 0  0.24 0.06 0  0.26 0.06 0  0.28 0.06 0  0.3 0.06 0  0.32 0.06 0  0.34 0.06 0  0.36 0.06 0  0.38 0.06 0  0.4 0.06 0  0.42 0.06 0  0.44 0.06 0  0.46 0.06 0  0.48 0.06 0  0.5 0.06 0  0.52 0.06 0  0.54 0.06 0  0.5600000000000001 0.06 0  0.58 0.06 0  0.6 0.06 0  0.62 0.06 0  0.64 0.06 0  0.66 0.06 0  0.68 0.06 0  0.7 0.06 0  0.72 0.06 0  0.74 0.06 0  0.76 0.06 0  0.78 0.06 0  0.8 0.06 0  0.82 0.06 0  0.84 0.06 0  0.86 0.06 0  0.88 0.06 0  0.9 0.06 0  0.92 0.06 0  0.9399999999999999 0.06 0  0.96 0.06 0  0.98 0.06 0  1 0.06 0  0 0.08 0  0.02 0.08 0  0.04 0.08 0  0.06 0.08 0  0.08 0.08 0  0.1 0.08 0  0.12 0.08 0  0.14 0.08 0  0.16 0.08 0  0.18 0.08 0  0.2 0.08 0  0.22 0.08 0  0.24 0.08 0  0.26 0.08 0  0.28 0.08 0  0.3 0.08 0  0.32 0.08 0  0.34 0.08 0  0.36 0.08 0  0.38 0.08 0  0.4 0.08 0  0.42 0.08 0  0.44 0.08 0  0.46 0.08 0  0.48 0.08 0  0.5 0.08 0  0.52 0.08 0  0.54 0.08 0  0.5600000000000001 0.08 0  0.58 0.08 0  0.6 0.08 0  0.62 0.08 0  0.64 0.08 0  0.66 0.08 0  0.68 0.08 0  0.7 0.08 0  0.72 0.08 0  0.74 0.08 0  0.76 0.08 0  0.78 0.08 0  0.8 0.08 0  0.82 0.08 0  0.84 0.08 0  0.86 0.08 0  0.88 0.08 0  0.9 0.08 0  0.92 0.08 0  0.9399999999999999 0.08 0  0.96 0.08 0  0.98 0.08 0  1 0.08 0  0 0.1 0  0.02 0.1 0  0.04 0.1 0  0.06 0.1 0  0.08 0.1 0  0.1 0.1 0  0.12 0.1 0  0.14 0.1 0  0.16 0.1 0  0.18 0.1 0  0.2 0.1 0  0.22 0.1 0  0.24 0.1 0  0.26 0.1 0  0.28 0.1 0  0.3 0.1 0  0.32 0.1 0  0.34 0.1 0  0.36 0.1 0  0.38 0.1 0  0.4 0.1 0  0.42 0.1 0  0.44 0.1 0  0.46 0.1 0  0.48 0.1 0  0.5 0.1 0  0.52 0.1 0  0.54 0.1 0  0.5600000000000001 0.1 0  0.58 0.1 0  0.6 0.1 0  0.62 0.1 0  0.64 0.1 0  0.66 0.1 0  0.68 0.1 0  0.7 0.1 0  0.72 0.1 0  0.74 0.1 0  0.76 0.1 0  0.78 0.1 0  0.8 0.1 0  0.82 0.1 0  0.84 0.1 0  0.86 0.1 0  0.88 0.1 0  0.9 0.1 0  0.92 0.1 0  0.9399999999999999 0.1 0  0.96 0.1 0  0.98 0.1 0  1 0.1 0  0 0.12 0  0.02 0.12 0  0.04 0.12 0  0.06 0.12 0  0.08 0.12 0  0.1 0.12 0  0.12 0.12 0  0.14 0.12 0  0.16 0.12 0  0.18 0.12 0  0.2 0.12 0  0.22 0.12 0  0.24 0.12 0  0.26 0.12 0  0.28 0.12 0  0.3 0.12 0  0.32 0.12 0  0.34 0.12 0  0.36 0.12 0  0.38 0.12 0  0.4 0.12 0  0.42 0.12 0  0.44 0.12 0  0.46 0.12 0  0.48 0.12 0  0.5 0.12 0  0.52 0.12 0  0.54 0.12 0  0.5600000000000001 0.12 0  0.58 0.12 0  0.6 0.12 0  0.62 0.12 0  0.64 0.12 0  0.66 0.12 0  0.68 0.12 0  0.7 0.12 0  0.72 0.12 0  0.74 0.12 0  0.76 0.12 0  0.78 0.12 0  0.8 0.12 0  0.82 0.12 0  0.84 0.12 0  0.86 0.12 0  0.88 0.12 0  0.9 0.12 0  0.92 0.12 0  0.9399999999999999 0.12 0  0.96 0.12 0  0.98 0.12 0  1 0.12 0  0 0.14 0  0.02 0.14 0  0.04 0.14 0  0.06 0.14 0  0.08 0.14 0  0.1 0.14 0  0.12 0.14 0  0.14 0.14 0  0.16 0.14 0  0.18 0.14 0  0.2 0.14 0  0.22 0.14 0  0.24 0.14 0  0.26 0.14 0  0.28 0.14 0  0.3 0.14 0  0.32 0.14 0  0.34 0.14 0  0.36 0.14 0  0.38 0.14 0  0.4 0.14 0  0.42 0.14 0  0.44 0.14 0  0.46 0.14 0  0.48 0.14 0  0.5 0.14 0  0.52 0.14 0  0.54 0.14 0  0.5600000000000001 0.14 0  0.58 0.14 0  0.6 0.14 0  0.62 0.14 0  0.64 0.14 0  0.66 0.14 0  0.68 0.14 0  0.7 0.14 0  0.72 0.14 0  0.74 0.14 0  0.76 0.14 0  0.78 0.14 0  0.8 0.14 0  0.82 0.14 0  0.84 0.14 0  0.86 0.14 0  0.88 0.14 0  0.9 0.14 0  0.92 0.14 0  0.9399999999999999 0.14 0  0.96 0.14 0  0.98 0.14 0  1 0.14 0  0 0.16 0  0.02 0.16 0  0.04 0.16 0  0.06 0.16 0  0.08 0.16 0  0.1 0.16 0  0.12 0.16 0  0.14 0.16 0  0.16 0.16 0  0.18 0.16 0  0.2 0.16 0  0.22 0.16 0  0.24 0.16 0  0.26 0.16 0  0.28 0.16 0  0.3 0.16 0  0.32 0.16 0  0.34 0.16 0  0.36 0.16 0  0.38 0.16 0  0.4 0.16 0  0.42 0.16 0  0.44 0.16 0  0.46 0.16 0  0.48 0.16 0  0.5 0.16 0  0.52 0.16 0  0.54 0.16 0  0.5600000000000001 0.16 0  0.58 0.16 0  0.6 0.16 0  0.62 0.16 0  0.64 0.16 0  0.66 0.16 0  0.68 0.16 0  0.7 0.16 0  0.72 0.16 0  0.74 0.16 0  0.76 0.16 0  0.78 0.16 0  0.8 0.16 0  0.82 0.16 0  0.84 0.16 0  0.86 0.16 0  0.88 0.16 0  0.9 0.16 0  0.92 0.16 0  0.9399999999999999 0.16 0  0.96 0.16 0  0.98 0.16 0  1 0.16 0  0 0.18 0  0.02 0.18 0  0.04 0.18 0  0.06 0.18 0  0.08 0.18 0  0.1 0.18 0  0.12 0.18 0  0.14 0.18 0  0.16 0.18 0  0.18 0.18 0  0.2 0.18 0  0.22 0.18 0  0.24 0.18 0  0.26 0.18 0  0.28 0.18 0  0.3 0.18 0  0.32 0.18 0  0.34 0.18 0  0.36 0.18 0  0.38 0.18 0  0.4 0.18 0  0.42 0.18 0  0.44 0.18 0  0.46 0.18 0  0.48 0.18 0  0.5 0.18 0  0.52 0.18 0  0.54 0.18 0  0.5600000000000001 0.18 0  0.58 0.18 0  0.6 0.18 0  0.62 0.18 0  0.64 0.18 0  0.66 0.18 0  0.68 0.18 0  0.7 0.18 0  0.72 0.18 0  0.74 0.18 0  0.76 0.18 0  0.78 0.18 0  0.8 0.18 0  0.82 0.18 0  0.84 0.18 0  0.86 0.18 0  0.88 0.18 0  0.9 0.18 0  0.92 0.18 0  0.9399999999999999 0.18 0  0.96 0.18 0  0.98 0.18 0  1 0.18 0  0 0.2 0  0.02 0.2 0  0.04 0.2 0  0.06 0.2 0  0.08 0.2 0  0.1 0.2 0  0.12 0.2 0  0.14 0.2 0  0.16 0.2 0  0.18 0.2 0  0.2 0.2 0  0.22 0.2 0  0.24 0.2 0  0.26 0.2 0  0.28 0.2 0  0.3 0.2 0  0.32 0.2 0  0.34 0.2 0  0.36 0.2 0  0.38 0.2 0  0.4 0.2 0  0.42 0.2 0  0.44 0.2 0  0.46 0.2 0  0.48 0.2 0  0.5 0.2 0  0.52 0.2 0  0.54 0.2 0  0.5600000000000001 0.2 0  0.58 0.2 0  0.6 0.2 0  0.62 0.2 0  0.64 0.2 0  0.66 0.2 0  0.68 0.2 0  0.7 0.2 0  0.72 0.2 0  0.74 0.2 0  0.76 0.2 0  0.78 0.2 0  0.8 0.2 0  0.82 0.2 0  0.84 0.2 0  0.86 0.2 0  0.88 0.2 0  0.9 0.2 0  0.92 0.2 0  0.9399999999999999 0.2 0  0.96 0.2 0  0.98 0.2 0  1 0.2 0  0 0.22 0  0.02 0.22 0  0.04 0.22 0  0.06 0.22 0  0.08 0.22 0  0.1 0.22 0  0.12 0.22 0  0.14 0.22 0  0.16 0.22 0  0.18 0.22 0  0.2 0.22 0  0.22 0.22 0  0.24 0.22 0  0.26 0.22 0  0.28 0.22 0  0.3 0.22 0  0.32 0.22 0  0.34 0.22 0  0.36 0.22 0  0.38 0.22 0  0.4 0.22 0  0.42 0.22 0  0.44 0.22 0  0.46 0.22 0  0.48 0.22 0  0.5 0.22 0  0.52 0.22 0  0.54 0.22 0  0.5600000000000001 0.22 0  0.58 0.22 0  0.6 0.22 0  0.62 0.22 0  0.64 0.22 0  0.66 0.22 0  0.68 0.22 0  0.7 0.22 0  0.72 0.22 0  0.74 0.22 0  0.76 0.22 0  0.78 0.22 0  0.8 0.22 0  0.82 0.22 0  0.84 0.22 0  0.86 0.22 0  0.88 0.22 0  0.9 0.22 0  0.92 0.22 0  0.9399999999999999 0.22 0  0.96 0.22 0  0.98 0.22 0  1 0.22 0  0 0.24 0  0.02 0.24 0  0.04 0.24 0  0.06 0.24 0  0.08 0.24 0  0.1 0.24 0  0.12 0.24 0  0.14 0.24 0  0.16 0.24 0  0.18 0.24 0  0.2 0.24 0  0.22 0.24 0  0.24 0.24 0  0.26 0.24 0  0.28 0.24 0  0.3 0.24 0  0.32 0.24 0  0.34 0.24 0  0.36 0.24 0  0.38 0.24 0  0.4 0.24 0  0.42 0.24 0  0.44 0.24 0  0.46 0.24 0  0.48 0.24 0  0.5 0.24 0  0.52 0.24 0  0.54 0.24 0  0.5600000000000001 0.24 0  0.58 0.24 0  0.6 0.24 0  0.62 0.24 0  0.64 0.24 0  0.66 0.24 0  0.68 0.24 0  0.7 0.24 0  0.72 0.24 0  0.74 0.24 0  0.76 0.24 0  0.78 0.24 0  0.8 0.24 0  0.82 0.24 0  0.84 0.24 0  0.86 0.24 0  0.88 0.24 0  0.9 0.24 0  0.92 0.24 0  0.9399999999999999 0.24 0  0.96 0.24 0  0.98 0.24 0  1 0.24 0  0 0.26 0  0.02 0.26 0  0.04 0.26 0  0.06 0.26 0  0.08 0.26 0  0.1 0.26 0  0.12 0.26 0  0.14 0.26 0  0.16 0.26 0  0.18 0.26 0  0.2 0.26 0  0.22 0.26 0  0.24 0.26 0  0.26 0.26 0  0.28 0.26 0  0.3 0.26 0  0.32 0.26 0  0.34 0.26 0  0.36 0.26 0  0.38 0.26 0  0.4 0.26 0  0.42 0.26 0  0.44 0.26 0  0.46 0.26 0  0.48 0.26 0  0.5 0.26 0  0.52 0.26 0  0.54 0.26 0  0.5600000000000001 0.26 0  0.58 0.26 0  0.6 0.26 0  0.62 0.26 0  0.64 0.26 0  0.66 0.26 0  0.68 0.26 0  0.7 0.26 0  0.72 0.26 0  0.74 0.26 0  0.76 0.26 0  0.78 0.26 0  0.8 0.26 0  0.82 0.26 0  0.84 0.26 0  0.86 0.26 0  0.88 0.26 0  0.9 0.26 0  0.92 0.26 0  0.9399999999999999 0.26 0  0.96 0.26 0  0.98 0.26 0  1 0.26 0  0 0.28 0  0.02 0.28 0  0.04 0.28 0  0.06 0.28 0  0.08 0.28 0  0.1 0.28 0  0.12 0.28 0  0.14 0.28 0  0.16 0.28 0  0.18 0.28 0  0.2 0.28 0  0.22 0.28 0  0.24 0.28 0  0.26 0.28 0  0.28 0.28 0  0.3 0.28 0  0.32 0.28 0  0.34 0.28 0  0.36 0.28 0  0.38 0.28 0  0.4 0.28 0  0.42 0.28 0  0.44 0.28 0  0.46 0.28 0  0.48 0.28 0  0.5 0.28 0  0.52 0.28 0  0.54 0.28 0  0.5600000000000001 0.28 0  0.58 0.28 0  0.6 0.28 0  0.62 0.28 0  0.64 0.28 0  0.66 0.28 0  0.68 0.28 0  0.7 0.28 0  0.72 0.28 0  0.74 0.28 0  0.76 0.28 0  0.78 0.28 0  0.8 0.28 0  0.82 0.28 0  0.84 0.28 0  0.86 0.28
[...]
<PointData  Scalars="Indicator Function"> 
<DataArray  type="Float64"  Name="Indicator Function"  format="ascii">-5.4166779685891008e-35  2.7018625902448687e-18  5.7110321962127656e-20  4.8859339112602062e-18  2.9630837895011119e-18  -1.2732689394797067e-19  -5.7693254801037756e-19  1.0024924516933218e-16  5.3554304846341406e-17  -2.9323022325856453e-19  4.4095877710510682e-17  1.2070440117862003e-16  -3.1457385070103492e-20  -2.1546341252832201e-33  -1.2744562929815526e-17  -5.2894205083859309e-19  -2.1749906014697465e-19  5.5150286050410109e-17  -1.7833201477436946e-19  -3.3927094769925384e-19  1.7203832169091103e-17  -2.9515359377455113e-19  -3.1532516888200278e-19  1.3760512840141267e-16  -1.0732011177253884e-20  -1.8580584471494805e-19  -9.2902922357474060e-20  -6.2041679602667764e-20  2.8628889622455188e-17  -8.9115055941028144e-22  -7.9061954046446988e-22  -8.0852555731384344e-22  -5.6328521623265314e-22  -4.1504858149701495e-22  3.0148552586982096e-20  -5.8774717541114375e-38  -3.9498011807127524e-23  -2.2700678761802924e-22  -3.4734896424106679e-22  -7.3997240287885068e-22  8.4778235951068708e-20  -3.6784374998209542e-22  -6.7549890399896723e-22  -3.9544202039116437e-22  -1.0460530184588521e-22  -2.8606845660018338e-23  1.7050407611552038e-21  -5.6809093191159297e-24  -7.8531964702857830e-25  -2.4564827364797610e-25  3.6734198463196485e-40  -1.5066320983568273e-19  1.6591082891737404e-03  1.1092208351852493e-03  9.8566381064985444e-04  3.5566893284980816e-03  2.5906523983645628e-03  9.9839120937101158e-04  9.8938972282642743e-03  5.1070035028212505e-03  8.4232964704830451e-03  5.2823660968041534e-03  2.7445184246558595e-04  1.1333717414381476e-03  1.7686367667364544e-03  4.4366700728763935e-03  3.3846868047563371e-03  7.8362294898509238e-03  9.0641199884422523e-03  6.2005446775422642e-03  2.1740633423478328e-03  5.0247303833700621e-03  8.7217825341443789e-03  9.5612319268833634e-04  5.6803932523101161e-03  4.1445925897637126e-03  1.9333072615526707e-04  3.3471805320860015e-03  1.1050119170900542e-03  5.6513758201502868e-04  3.2107082618329193e-05  2.4192332714405246e-06  1.4242535471310477e-05  1.4718141246228100e-05  1.2224898283600136e-05  9.1091532375442107e-06  3.4801212335166831e-06  7.5367428209148493e-07  5.2581344256220969e-06  5.8963755804035628e-06  1.0178092764937275e-05  1.3004892827642877e-05  5.3754984525912124e-06  7.5665208363287734e-06  8.3854460311913210e-06  3.6708934339386307e-06  1.2982848391512961e-06  4.6114238567094378e-07  1.4808808442597484e-07  2.8294122157796909e-08  8.8504117893218233e-09  1.1754943508222875e-38  1.9259299443872359e-34  2.8242558119513212e-03  3.7225280132266278e-03  2.5093564437067093e-03  2.2492519014395483e-03  5.1266779297208303e-03  6.6714022724547678e-03  8.7551431243113129e-03  1.1755974943710816e-03  5.4631378200672327e-03  3.7077901510611244e-03  1.1577774189263987e-02  2.0845600939529016e-02  1.4594010539937748e-02  6.7284702643649998e-04  1.3790902657554914e-02  1.5156643750983457e-02  3.3880000705411926e-03  1.6388740561567743e-02  4.0846082316411099e-03  7.2150310753529828e-03  5.1830269960876181e-03  1.7387074523844383e-02  1.5208342896292354e-02  7.9853358990744708e-03  3.9674478551772379e-03  6.1757930020329725e-03  1.4583455477619048e-03  2.4049752634504777e-03  9.3251838105004538e-05  6.5158417173961480e-06  2.6021558451443767e-05  2.5904106161273147e-05  2.2284040025089175e-05  1.7474807661826544e-05  1.0725408664826278e-05  1.8718321002777252e-06  4.4076129548691406e-06  8.6605491232943786e-06  1.0581737529425282e-05  1.8061542940941970e-05  1.6240108015690607e-05  2.2338193875436705e-06  1.4130961331159422e-05  8.4807908666774229e-06  2.9284546004375366e-06  1.0092071074541336e-06  3.6060737062090203e-07  1.1568385855534815e-07  2.2902557441297265e-08  5.7210629836789311e-24  -5.8067060406931103e-20  3.6663253395402958e-03  1.7089025042255114e-03  3.3458509488743437e-03  3.3345781237060033e-03  6.2125200915881806e-03  3.2832821637671498e-03  1.2354265746809814e-03  2.0157746305493832e-02  1.2391785904947609e-02  1.8128041056290355e-02  1.4313358903860198e-02  8.4076094469892979e-03  5.1697295483124394e-03  7.7106230788869618e-04  4.8063413307359712e-03  3.0829511608540658e-03  1.7339435154415012e-02  1.6862832831142986e-02  1.2476078294135566e-02  1.1184814439959600e-03  9.2534398588981718e-03  1.4223662571015537e-02  5.2749554582943708e-03  1.6359099896194527e-02  1.1902194033545272e-02  2.8898898732448472e-03  7.1377749385581743e-03  2.2349730786802658e-03  1.2946016393323967e-03  2.1629876558444929e-04  2.5111483624221407e-05  3.9126639672797151e-05  3.2823103374057944e-05  2.5337900426552460e-05  1.8461026369717172e-05  7.5405167223990757e-06  1.7147468399087811e-06  9.8926461760586170e-06  1.0336205620304518e-05  1.7696929959414388e-05  2.3108092496167931e-05  1.0085305500547110e-05  1.3551832701433176e-05  1.4891493436554427e-05  5.8783477975833996e-06  1.8106328581519703e-06  6.1551424712219878e-07  2.0337157351018119e-07  4.4500039590143085e-08  -6.1756210687134740e-24  -1.2772144302543620e-19  6.5967406894532074e-03  1.7423624487800605e-03  4.7256568236370526e-03  2.3727630421764762e-03  3.7090227191410312e-03  7.0343589523855950e-03  9.9230341487217596e-03  1.0258889642227867e-02  2.9286712847870055e-03  4.8192018305905438e-03  1.9444848951888855e-03  1.2000458823760447e-02  2.7303071307158866e-02  2.2332491423026440e-02  2.0812184685745153e-03  2.1173655623626719e-02  2.1866571650159879e-02  8.7685608421713933e-03  2.5393039223082257e-02  6.2031451670461020e-03  7.6538372774403486e-03  5.5795067701422223e-03  2.4584043581306756e-02  2.0850516562162344e-02  8.5924832159324522e-03  4.0448533771394865e-03  7.5730659236760058e-03  2.3993608010050337e-03  3.5836965646281558e-03  1.1263479923004867e-04  7.4202450442283061e-05  5.4345969692058288e-05  4.3659329290311757e-05  3.4507574400868449e-05  2.6434551725956728e-05  1.6142677222883419e-05  3.1385503442175471e-06  7.1060680519717406e-06  1.2801247623988173e-05  1.5187412080842626e-05  2.5882443438847373e-05  2.2610942874864230e-05  3.9317873215397034e-06  2.0164227109770967e-05  1.1420418006597090e-05  3.4968552647414887e-06  1.0439328599753203e-06  3.3130212831462589e-07  8.4470550683105905e-08  2.1100758811008798e-23  7.8240903990731457e-35  2.5010979385693853e-03  3.6424579280545390e-03  5.0315887389230868e-03  3.8606901059200028e-03  5.2615942774651894e-03  8.0089859075755145e-03  2.5841505606872084e-03  1.6270238873859011e-03  2.4958569972928172e-02  1.4681285797909845e-02  2.0711133801459242e-02  1.6328362213179938e-02  1.0825755715208328e-02  9.0761248975138910e-03  7.8898427346199367e-04  3.4946572425391979e-03  3.2452782820287687e-03  1.9948641786872837e-02  1.9329841636421131e-02  1.4849562061409388e-02  4.0862083591251060e-04  1.1542756217554359e-02  1.7289452624864230e-02  6.3777537667284046e-03  2.1510872282747666e-02  1.4594349142767643e-02  3.0230647314620687e-03  8.3710590866235678e-03  2.7471050649096333e-03  1.5889121672556805e-03  2.7468812996436407e-04  5.6131317550946667e-05  5.9433582698752644e-05  4.8316592491781104e-05  3.6876290198991611e-05  2.6574361129656876e-05  1.0877904844886107e-05  3.5988996595092986e-06  1.4788835021207608e-05  1.4658844023018476e-05  2.5083546005344802e-05  3.1376245076112669e-05  1.2200405620055390e-05  1.8789407928294922e-05  1.9157834811812014e-05  7.1044830019179033e-06  1.9419581073908443e-06  5.5154662930547744e-07  1.3453158169527113e-07  -7.4680029768664733e-24  -4.1325620107519184e-20  5.7771193728730038e-05  5.7605996815278766e-03  5.4809450187625524e-03  7.1783877858471101e-03  8.0314306779616232e-04  5.6643036521025975e-03  6.2282612422702721e-03  1.2520451559152376e-02  1.2151063891674328e-02  1.1690540921381648e-03  7.4453299852015016e-03  3.0704547381798222e-03  1.3421719668767377e-02  3.1445760260878558e-02  2.7960605006252508e-02  4.4648648622674647e-03  2.6491559746799447e-02  2.8367600860164450e-02  1.1155331426269351e-02  3.1363179360080214e-02  8.4669845442985042e-03  7.8604361377718271e-03  5.7353078150137625e-03  2.8829799914485719e-02  2.4312191480712498e-02  1.0128220088095632e-02  5.2073921990021359e-03  9.0557036675603681e-03  2.5920361904862937e-03  4.0960112674726882e-03  1.5902506595871481e-04  1.2231873919766044e-04  9.0992272653480006e-05  7.0200601932787399e-05  5.3074969461601417e-05  3.9933141639837526e-05  2.4313980469482688e-05  6.4997459689709798e-06  1.2799370286755619e-05  1.8920007658778995e-05  2.2292752751166974e-05  3.6070656162807457e-05  2.9030285116873373e-05  7.0879194606330549e-06  2.5835569843039386e-05  1.3662929546600851e-05  3.9000718858962656e-06  9.9643740765968108e-07  2.2310197738004278e-07  -1.2384647606336209e-23  -7.8501610820957739e-21  7.4445618926831261e-04  2.3097061130207082e-03  3.2721076085934697e-03  6.9530058220685321e-03  7.5013300412507403e-03  9.2159098225209832e-03  9.9885391220177443e-03  2.0700770158185379e-03  2.5609220807250007e-03  3.0329575837403734e-02  1.5991386494666870e-02  2.2324978126615810e-02  1.6809482861284544e-02  9.7041948052947920e-03  8.8952808409754006e-03  2.8650297815746677e-03  1.0879762153277865e-03  5.2951207390485458e-03  1.7455998355302867e-02  2.2423955768525891e-02  1.2795793936431368e-02  7.1115177351832148e-04  1.4951593803711563e-02  2.1766845571267637e-02  3.3740969924012077e-03  2.3070050961971147e-02  1.5850098285360634e-02  1.4585443933739716e-03  8.6263718625354171e-03  3.2787274030933542e-03  1.3893733343206963e-03  3.4023213460174939e-04  1.3054065821362169e-04  1.0614800460298935e-04  8.3522804025852046e-05  6.3317392562141597e-05  4.5395162210093463e-05  2.1015328916869142e-05  1.1164547109948317e-05  2.4845483411769067e-05  2.2789657342651768e-05  3.6930996546401274e-05  4.2556518695088221e-05  1.3772950045000272e-05  2.5250549901985811e-05  2.3058303347959042e-05  7.9650441163646963e-06  1.9368966771876857e-06  3.9089743665307961e-07  -5.2491321894166301e-23  -1.0183980750870179e-19  1.4141593009650094e-04  1.2206548050051019e-03  6.8257263007650568e-03  8.2892046846401030e-03  7.9450941170922055e-03  2.6435224329304972e-03  6.1452409474457683e-03  8.3974857055003145e-04  1.6919110772099486e-02  1.4720153097251094e-02  2.2846426228584665e-03  1.3443236074480266e-02  5.1450140058037913e-03  1.7308785079183424e-02  3.7697104878835909e-02  3.5069935662243840e-02  9.2940042024028183e-03  3.1400904485458909e-02  3.9249907790493879e-02  1.0456993782908318e-02  4.0671781812296012e-02  1.1010710568816019e-02  7.8852161530670942e-03  5.5633089935027535e-03  3.4187545378573818e-02  2.8153229467937104e-02  1.4140120560799486e-02  7.6755450967357858e-03  1.1680530985170235e-02  2.5522903048373993e-03  4.2035719041399813e-03  4.1998157475178381e-04  2.4509584813045348e-04  2.0024144015391154e-04  1.5217876312617618e-04  1.1098779930084186e-04  8.0371887011945333e-05  5.0050628593414832e-05  2.1628306760396497e-05  2.8664785986325187e-05  3.2485804606747397e-05  3.6112153871728458e-05  5.2279358999545015e-05  3.8014539330084728e-05  1.1239973388262149e-05  3.1849575823399291e-05  1.5363374497889600e-05  3.9470295256015500e-06  7.3637434952236582e-07  -9.6741335598548163e-23  -7.2796397925168797e-20  1.9588784418323284e-03  3.7560170945279466e-03  3.1218373177729695e-03  9.5136768438190873e-04  1.0370451942100740e-02  1.1067464860956880e-02  1.0848106045232418e-02  1.6340645489174015e-02  9.5857592416376410e-04  7.1965377575418446e-03  4.0780361831239023e-02  1.5007556115636488e-02  2.5530299350815432e-02  1.5879064649173734e-02  9.2954555009825742e-03  5.9099048428344573e-03  5.1448253523322211e-03  1.1195976901053582e-03  6.1533079263963002e-03  1.2132846763115270e-02  2.5229864145113454e-02  8.1718571361322247e-03  4.2112497395391619e-03  2.2459348797182980e-02  2.8709431247392756e-02  1.9060307489457320e-03  2.2782865992659034e-02  1.8666142253917797e-02  1.5578155932590954e-03  9.1065092307263326e-03  3.5684383297402531e-03  6.2247873664479550e-04  6.7643232294483985e-04  3.9633613736286485e-04  2.7898075884537804e-04  2.0138868025112164e-04  1.4628540296003189e-04  1.0404457492821041e-04  5.8734695562326002e-05  3.9604377167476154e-05  5.1173162088766304e-05  4.2563385205832657e-05  5.9114856128250443e-05  6.0627734286804585e-05  1.6967646328374991e-05  3.2118299487701226e-05  2.6251889593819351e-05  8.0611646852233030e-06  1.4668531110453958e-06  -8.1426704881282010e-23  2.4074124304840448e-35  4.4483010887846237e-03  3.1271976505608985e-03  2.4337877301603117e-03  6.3584949655251988e-04  1.5398985714333119e-02  8.0429106802677695e-03  8.7557347545250165e-03  7.7737351896247633e-03  2.7145097448030408e-03  1.4732769748350362e-02  1.1370981962246972e-02  7.1864255872394851e-03  2.6292059162216223e-02  1.3709900693418470e-03  2.7493589483986745e-02  4.1335339233822335e-02  4.7352857009514020e-02  1.3274350320064694e-02  3.5020858173723746e-02  5.2857546634117271e-02  3.2148786746048295e-03  5.8489515865166118e-02  1.4829734597851767e-02  7.3585290812626415e-03  7.6008334897515635e-03  4.5482406429367857e-02  2.9009696073117285e-02  2.1486395448023662e-02  9.4570312886946874e-03  1.6460883066903787e-02  3.8329688331371157e-03  3.2556041664557164e-03  1.2913141197530944e-03  7.4628023429648270e-04  5.6249512088804620e-04  4.1636487321403511e-04  3.0230262831165022e-04  2.1662090473673911e-04  1.4145432861172798e-04  8.0973193660995306e-05  7.6472896072284565e-05  6.7516540764901766e-05  6.6234675866000864e-05  8.0933277428147383e-05  5.3221574749671824e-05  1.4452696782686087e-05  3.6935172556614781e-05  1.5675953686582652e-05  3.0426543075023190e-06  -3.0928820138166753e-22  -4.9574816937504976e-20  1.3468803900193601e-03  1.6561433541333274e-03  6.0040759628970878e-03  3.8043078126516285e-03  3.6410038397651952e-03  2.9784594147221127e-03  2.6732860076652345e-02  1.8217313998739493e-02  2.3234698460812702e-02  2.9243456472497815e-04  1.0651302619225929e-02  4.3558719244122676e-02  2.8871273389590165e-02  1.6638254355119435e-02  1.7548896921811215e-02  1.3400703631081931e-02  8.6182752542785668e-03  2.0030669883952337e-03  1.2322620382201386e-02  1.2690479317498733e-02  8.0155737143277131e-03  2.9072478693348391e-02  1.1458741504922876e-02  2.4493053277833268e-02  4.3765101707235764e-02  4.3150278842822444e-02  5.2576367643988207e-03  1.4996007151481642e-02  2.9072019277401603e-02  1.0065289211822950e-02  1.1913755620777755e-02  2.0214747716154500e-03  1.6667988465336203e-03  1.9881617445163292e-03  1.3409794733329767e-03  9.1453016509548577e-04  6.2118957437976745e-04  4.2023273580910536e-04  2.8122047730425644e-04  1.6924233740363037e-04  1.1610038202358420e-04  1.1078268367166237e-04  8.5300280852075361e-05  1.0003049133332544e-04  9.1048927374112209e-05  2.4791466222812107e-05  3.7251129912452804e-05  2.7120020887162288e-05  6.3303205071980940e-06  -6.3364841083053762e-22  1.5046327690525280e-35  2.1480089530379999e-03  2.1190305289068025e-03  1.4377497225606453e-03  3.2710772327580593e-04  7.8964232798090254e-04  1.6094978818195813e-02  6.8172178435630610e-03  5.8475400052817135e-03  9.7584139935657371e-03  2.5403644774847564e-02  2.3252426946142539e-02  1.4526582721239915e-02  9.8343609553638630e-03  3.6414943730464840e-02  1.7764874429708335e-02  1.0335437169869181e-02  7.2401560460356493e-02  4.7983794180757863e-02  1.9816318736925066e-02  3.2944741996754838e-02  8.0135890213881719e-02  1.3810883825259514e-03  7.7181667423195946e-02  1.7161713769510045e-02  1.2302772061567544e-02  3.1370899535464257e-02  8.9425794552777341e-02  5.2112533833986964e-03  4.5786965705870618e-02  1.2543423457809647e-03  3.1187588078176804e-02  1.1902467887247590e-02  1.6974504195667020e-03  4.3157414910149038e-03  2.5001837939437051e-03  1.6098840628436140e-03  1.0512357193693527e-03  6.9811753893082569e-04  4.7394898296111476e-04  3.1020678752927084e-04  1.9473653333061458e-04  1.6768299528802308e-04  1.3492144884611593e-04  1.2328011346860647e-04  1.3079096464317872e-04  8.0503012032670485e-05  1.2812813611281815e-05  3.7857813085175510e-05  1.2394035059032514e-05  -6.8800715452746484e-22  -8.8160794419945494e-20  2.4642605569086848e-03  1.7964756066923139e-03  1.6098916383123104e-03  4.6802091657597751e-03  2.1527344263825706e-03  1.5579014660110806e-03  5.5506326688730982e-03  2.8439517640409352e-02  1.0353196267181610e-02  3.5537196454357899e-02  1.5936075309488658e-02  4.5259086149386465e-02  7.5525866807648750e-02  2.0912923579677299e-02  2.6459802631577031e-02  7.8700970570710557e-03  3.2289122424129547e-03  1.8962475365405733e-02  5.8929104645152386e-02  4.7347346774899927e-02  3.9338988538339233e-02  1.5364080185785669e-02  1.5697132364112931e-01  1.7197238016344391e-02  9.2456845899207950e-03  7.4786336555571816e-03  1.2471004087004191e-01  2.9579070359999505e-02  4.5447951159636311e-02  7.9038117466830884e-02  4.0740953982049778e-02  2.1650141077411273e-02  2.2964862603462050e-03  5.5720800389996552e-03  4.0404943549353185e-03  2.6133416252408568e-03  1.7095745504525637e-03  1.1506583379835842e-03  7.9344773941123783e-04  5.5048027071826660e-04  3.5971512322694848e-04  2.6214340741678965e-04  2.2759275417630410e-04  1.7277992932470334e-04  1.7822579633174591e-04  1.4735709576207419e-04  4.6190165911958634e-05  3.3958822087865158e-05  2.0811223686443382e-05  -1.1552549853656934e-21  4.4537129963954829e-34  1.5881636835934146e-03  2.1199286222633481e-03  3.1801290614272728e-03  5.8462908872930677e-03  1.1747752501003858e-03  4.0533706518481905e-04  1.2989752698222473e-02  8.8717050187503042e-04  1.2345572564506965e-02  9.6948685713524173e-03  1.7945080251511019e-02  1.4076944914932941e-03  6.4267724006835470e-03  8.2230872689674998e-03  9.0915257087485130e-02  6.7229327288249076e-03  3.2896499983284103e-02  7.5899161795617856e-02  5.9386255878307939e-02  1.6876285272582786e-01  1.6737161338336468e-01  4.7456901008127418e-02  4.1277869032584791e-02  1.0376977288619040e-01  3.3651788451100188e-03  2.4977124672760084e-02  2.7275298685136336e-02  8.4698635267039649e-02  2.3964590919828246e-02  5.6050225975306532e-02  2.1380951721193985e-02  4.6977320681706715e-02  2.5715825740989778e-02  1.0975864897607313e-02  9.4240277346379162e-03  5.3229063594488254e-03  3.2606701355227309e-03  2.0996423200522825e-03  1.4067980203969438e-03  9.7317955456899914e-04  6.6262885476297965e-04  4.4843214635958007e-04  3.6880264123552507e-04  2.8441802863495144e-04  2.4547804111472326e-04  2.2981047945176214e-04  1.3874785706432464e-04  6.5035359181302039e-06  2.5342522142304229e-05  3.4873884990239007e-20  1.5648180798146291e-34  3.1702228930334435e-03  6.1341133861704718e-04  8.7568901008095433e-04  8.0326229402164124e-04  1.7694649870437994e-03  1.2049357048544807e-02  6.1713532450105128e-03  5.1836301412440024e-03  3.0475394176916349e-02  7.5421509042760413e-04  5.1784337831934611e-02  2.4266866324642904e-02  4.7869812101369001e-02  4.5589648401413864e-02  8.3022214423904228e-02  4.7967558046711404e-04  3.8954936875301737e-03  1.0443567408921438e-01  1.1461033878406159e-02  4.0757234939144432e-02  3.0292732279016573e-02  4.4329104966356801e-02  4.4186205943211918e-02  2.3705777231289218e-02  3.0214812664089413e-02  2.6750678451449420e-03  3.9362285180286052e-03  6.2201584357718161e-03  9.2616553574961218e-03  7.2706740066462707e-03  6.2892507693541738e-02  5.6104479674534295e-02  7.2035838691914766e-02  2.3380380947891820e-02  1.6796454226251974e-02  9.4251830687580637e-03  5.5842679670305576e-03  3.4799941317009346e-03  2.2979831644427658e-03  1.5902604116932227e-03  1.1263055383822569e-03  7.7872913721649991e-04  5.8635970269063826e-04  4.8162770350829750e-04  3.6422478166921423e-04  3.3718832892123604e-04  2.5889680905087805e-04  9.9726239347903368e-05  9.7366925925533511e-06  -5.4049501499749325e-22  -1.8234481729913406e-19  2.1544740377576633e-03  1.4977169005761378e-03  3.8138039009403837e-03  3.8944480519906683e-03  8.7629177828434210e-04  3.2430337071351983e-03  2.6691360574760824e-03  2.2739753070092857e-03  1.3823123551354757e-02  1.90035