<?xml version="1.0"?>
<VTKFile type="UnstructuredGrid"  version="0.1"  >
<UnstructuredGrid>
<Piece  NumberOfPoints="676" NumberOfCells="1250">
<Points>
<DataArray  type="Float64"  NumberOfComponents="3"  format="ascii">0 0 0  0.04 0 0  0.08 0 0  0.12 0 0  0.16 0 0  0.2 0 0  0.24 0 0  0.28 0 0  0.32 0 0  0.36 0 0  0.4 0 0  0.44 0 0  0.48 0 0  0.52 0 0  0.5600000000000001 0 0  0.6 0 0  0.64 0 0  0.68 0 0  0.72 0 0  0.76 0 0  0.8 0 0  0.84 0 0  0.88 0 0  0.92 0 0  0.96 0 0  1 0 0  0 0.04 0  0.04 0.04 0  0.08 0.04 0  0.12 0.04 0  0.16 0.04 0  0.2 0.04 0  0.24 0.04 0  0.28 0.04 0  0.32 0.04 0  0.36 0.04 0  0.4 0.04 0  0.44 0.04 0  0.48 0.04 0  0.52 0.04 0  0.5600000000000001 0.04 0  0.6 0.04 0  0.64 0.04 0  0.68 0.04 0  0.72 0.04 0  0.76 0.04 0  0.8 0.04 0  0.84 0.04 0  0.88 0.04 0  0.92 0.04 0  0.96 0.04 0  1 0.04 0  0 0.08 0  0.04 0.08 0  0.08 0.08 0  0.12 0.08 0  0.16 0.08 0  0.2 0.08 0  0.24 0.08 0  0.28 0.08 0  0.32 0.08 0  0.36 0.08 0  0.4 0.08 0  0.44 0.08 0  0.48 0.08 0  0.52 0.08 0  0.5600000000000001 0.08 0  0.6 0.08 0  0.64 0.08 0  0.68 0.08 0  0.72 0.08 0  0.76 0.08 0  0.8 0.08 0  0.84 0.08 0  0.88 0.08 0  0.92 0.08 0  0.96 0.08 0  1 0.08 0  0 0.12 0  0.04 0.12 0  0.08 0.12 0  0.12 0.12 0  0.16 0.12 0  0.2 0.12 0  0.24 0.12 0  0.28 0.12 0  0.32 0.12 0  0.36 0.12 0  0.4 0.12 0  0.44 0.12 0  0.48 0.12 0  0.52 0.12 0  0.5600000000000001 0.12 0  0.6 0.12 0  0.64 0.12 0  0.68 0.12 0  0.72 0.12 0  0.76 0.12 0  0.8 0.12 0  0.84 0.12 0  0.88 0.12 0  0.92 0.12 0  0.96 0.12 0  1 0.12 0  0 0.16 0  0.04 0.16 0  0.08 0.16 0  0.12 0.16 0  0.16 0.16 0  0.2 0.16 0  0.24 0.16 0  0.28 0.16 0  0.32 0.16 0  0.36 0.16 0  0.4 0.16 0  0.44 0.16 0  0.48 0.16 0  0.52 0.16 0  0.5600000000000001 0.16 0  0.6 0.16 0  0.64 0.16 0  0.68 0.16 0  0.72 0.16 0  0.76 0.16 0  0.8 0.16 0  0.84 0.16 0  0.88 0.16 0  0.92 0.16 0  0.96 0.16 0  1 0.16 0  0 0.2 0  0.04 0.2 0  0.08 0.2 0  0.12 0.2 0  0.16 0.2 0  0.2 0.2 0  0.24 0.2 0  0.28 0.2 0  0.32 0.2 0  0.36 0.2 0  0.4 0.2 0  0.44 0.2 0  0.48 0.2 0  0.52 0.2 0  0.5600000000000001 0.2 0  0.6 0.2 0  0.64 0.2 0  0.68 0.2 0  0.72 0.2 0  0.76 0.2 0  0.8 0.2 0  0.84 0.2 0  0.88 0.2 0  0.92 0.2 0  0.96 0.2 0  1 0.2 0  0 0.24 0  0.04 0.24 0  0.08 0.24 0  0.12 0.24 0  0.16 0.24 0  0.2 0.24 0  0.24 0.24 0  0.28 0.24 0  0.32 0.24 0  0.36 0.24 0  0.4 0.24 0  0.44 0.24 0  0.48 0.24 0  0.52 0.24 0  0.5600000000000001 0.24 0  0.6 0.24 0  0.64 0.24 0  0.68 0.24 0  0.72 0.24 0  0.76 0.24 0  0.8 0.24 0  0.84 0.24 0  0.88 0.24 0  0.92 0.24 0  0.96 0.24 0  1 0.24 0  0 0.28 0  0.04 0.28 0  0.08 0.28 0  0.12 0.28 0  0.16 0.28 0  0.2 0.28 0  0.24 0.28 0  0.28 0.28 0  0.32 0.28 0  0.36 0.28 0  0.4 0.28 0  0.44 0.28 0  0.48 0.28 0  0.52 0.28 0  0.5600000000000001 0.28 0  0.6 0.28 0  0.64 0.28 0  0.68 0.28 0  0.72 0.28 0  0.76 0.28 0  0.8 0.28 0  0.84 0.28 0  0.88 0.28 0  0.92 0.28 0  0.96 0.28 0  1 0.28 0  0 0.32 0  0.04 0.32 0  0.08 0.32 0  0.12 0.32 0  0.16 0.32 0  0.2 0.32 0  0.24 0.32 0  0.28 0.32 0  0.32 0.32 0  0.36 0.32 0  0.4 0.32 0  0.44 0.32 0  0.48 0.32 0  0.52 0.32 0  0.5600000000000001 0.32 0  0.6 0.32 0  0.64 0.32 0  0.68 0.32 0  0.72 0.32 0  0.76 0.32 0  0.8 0.32 0  0.84 0.32 0  0.88 0.32 0  0.92 0.32 0  0.96 0.32 0  1 0.32 0  0 0.36 0  0.04 0.36 0  0.08 0.36 0  0.12 0.36 0  0.16 0.36 0  0.2 0.36 0  0.24 0.36 0  0.28 0.36 0  0.32 0.36 0  0.36 0.36 0  0.4 0.36 0  0.44 0.36 0  0.48 0.36 0  0.52 0.36 0  0.5600000000000001 0.36 0  0.6 0.36 0  0.64 0.36 0  0.68 0.36 0  0.72 0.36 0  0.76 0.36 0  0.8 0.36 0  0.84 0.36 0  0.88 0.36 0  0.92 0.36 0  0.96 0.36 0  1 0.36 0  0 0.4 0  0.04 0.4 0  0.08 0.4 0  0.12 0.4 0  0.16 0.4 0  0.2 0.4 0  0.24 0.4 0  0.28 0.4 0  0.32 0.4 0  0.36 0.4 0  0.4 0.4 0  0.44 0.4 0  0.48 0.4 0  0.52 0.4 0  0.5600000000000001 0.4 0  0.6 0.4 0  0.64 0.4 0  0.68 0.4 0  0.72 0.4 0  0.76 0.4 0  0.8 0.4 0  0.84 0.4 0  0.88 0.4 0  0.92 0.4 0  0.96 0.4 0  1 0.4 0  0 0.44 0  0.04 0.44 0  0.08 0.44 0  0.12 0.44 0  0.16 0.44 0  0.2 0.44 0  0.24 0.44 0  0.28 0.44 0  0.32 0.44 0  0.36 0.44 0  0.4 0.44 0  0.44 0.44 0  0.48 0.44 0  0.52 0.44 0  0.5600000000000001 0.44 0  0.6 0.44 0  0.64 0.44 0  0.68 0.44 0  0.72 0.44 0  0.76 0.44 0  0.8 0.44 0  0.84 0.44 0  0.88 0.44 0  0.92 0.44 0  0.96 0.44 0  1 0.44 0  0 0.48 0  0.04 0.48 0  0.08 0.48 0  0.12 0.48 0  0.16 0.48 0  0.2 0.48 0  0.24 0.48 0  0.28 0.48 0  0.32 0.48 0  0.36 0.48 0  0.4 0.48 0  0.44 0.48 0  0.48 0.48 0  0.52 0.48 0  0.5600000000000001 0.48 0  0.6 0.48 0  0.64 0.48 0  0.68 0.48 0  0.72 0.48 0  0.76 0.48 0  0.8 0.48 0  0.84 0.48 0  0.88 0.48 0  0.92 0.48 0  0.96 0.48 0  1 0.48 0  0 0.52 0  0.04 0.52 0  0.08 0.52 0  0.12 0.52 0  0.16 0.52 0  0.2 0.52 0  0.24 0.52 0  0.28 0.52 0  0.32 0.52 0  0.36 0.52 0  0.4 0.52 0  0.44 0.52 0  0.48 0.52 0  0.52 0.52 0  0.5600000000000001 0.52 0  0.6 0.52 0  0.64 0.52 0  0.68 0.52 0  0.72 0.52 0  0.76 0.52 0  0.8 0.52 0  0.84 0.52 0  0.88 0.52 0  0.92 0.52 0  0.96 0.52 0  1 0.52 0  0 0.5600000000000001 0  0.04 0.5600000000000001 0  0.08 0.5600000000000001 0  0.12 0.5600000000000001 0  0.16 0.5600000000000001 0  0.2 0.5600000000000001 0  0.24 0.5600000000000001 0  0.28 0.5600000000000001 0  0.32 0.5600000000000001 0  0.36 0.5600000000000001 0  0.4 0.5600000000000001 0  0.44 0.5600000000000001 0  0.48 0.5600000000000001 0  0.52 0.5600000000000001 0  0.5600000000000001 0.5600000000000001 0  0.6 0.5600000000000001 0  0.64 0.5600000000000001 0  0.68 0.5600000000000001 0  0.72 0.5600000000000001 0  0.76 0.5600000000000001 0  0.8 0.5600000000000001 0  0.84 0.5600000000000001 0  0.88 0.5600000000000001 0  0.92 0.5600000000000001 0  0.96 0.5600000000000001 0  1 0.5600000000000001 0  0 0.6 0  0.04 0.6 0  0.08 0.6 0  0.12 0.6 0  0.16 0.6 0  0.2 0.6 0  0.24 0.6 0  0.28 0.6 0  0.32 0.6 0  0.36 0.6 0  0.4 0.6 0  0.44 0.6 0  0.48 0.6 0  0.52 0.6 0  0.5600000000000001 0.6 0  0.6 0.6 0  0.64 0.6 0  0.68 0.6 0  0.72 0.6 0  0.76 0.6 0  0.8 0.6 0  0.84 0.6 0  0.88 0.6 0  0.92 0.6 0  0.96 0.6 0  1 0.6 0  0 0.64 0  0.04 0.64 0  0.08 0.64 0  0.12 0.64 0  0.16 0.64 0  0.2 0.64 0  0.24 0.64 0  0.28 0.64 0  0.32 0.64 0  0.36 0.64 0  0.4 0.64 0  0.44 0.64 0  0.48 0.64 0  0.52 0.64 0  0.5600000000000001 0.64 0  0.6 0.64 0  0.64 0.64 0  0.68 0.64 0  0.72 0.64 0  0.76 0.64 0  0.8 0.64 0  0.84 0.64 0  0.88 0.64 0  0.92 0.64 0  0.96 0.64 0  1 0.64 0  0 0.68 0  0.04 0.68 0  0.08 0.68 0  0.12 0.68 0  0.16 0.68 0  0.2 0.68 0  0.24 0.68 0  0.28 0.68 0  0.32 0.68 0  0.36 0.68 0  0.4 0.68 0  0.44 0.68 0  0.48 0.68 0  0.52 0.68 0  0.5600000000000001 0.68 0  0.6 0.68 0  0.64 0.68 0  0.68 0.68 0  0.72 0.68 0  0.76 0.68 0  0.8 0.68 0  0.84 0.68 0  0.88 0.68 0  0.92 0.68 0  0.96 0.68 0  1 0.68 0  0 0.72 0  0.04 0.72 0  0.08 0.72 0  0.12 0.72 0  0.16 0.72 0  0.2 0.72 0  0.24 0.72 0  0.28 0.72 0  0.32 0.72 0  0.36 0.72 0  0.4 0.72 0  0.44 0.72 0  0.48 0.72 0  0.52 0.72 0  0.5600000000000001 0.72 0  0.6 0.72 0  0.64 0.72 0  0.68 0.72 0  0.72 0.72 0  0.76 0.72 0  0.8 0.72 0  0.84 0.72 0  0.88 0.72 0  0.92 0.72 0  0.96 0.72 0  1 0.72 0  0 0.76 0  0.04 0.76 0  0.08 0.76 0  0.12 0.76 0  0.16 0.76 0  0.2 0.76 0  0.24 0.76 0  0.28 0.76 0  0.32 0.76 0  0.36 0.76 0  0.4 0.76 0  0.44 0.76 0  0.48 0.76 0  0.52 0.76 0  0.5600000000000001 0.76 0  0.6 0.76 0  0.64 0.76 0  0.68 0.76 0  0.72 0.76 0  0.76 0.76 0  0.8 0.76 0  0.84 0.76 0  0.88 0.76 0  0.92 0.76 0  0.96 0.76 0  1 0.76 0  0 0.8 0  0.04 0.8 0  0.08 0.8 0  0.12 0.8 0  0.16 0.8 0  0.2 0.8 0  0.24 0.8 0  0.28 0.8 0  0.32 0.8 0  0.36 0.8 0  0.4 0.8 0  0.44 0.8 0  0.48 0.8 0  0.52 0.8 0  0.5600000000000001 0.8 0  0.6 0.8 0  0.64 0.8 0  0.68 0.8 0  0.72 0.8 0  0.76 0.8 0  0.8 0.8 0  0.84 0.8 0  0.88 0.8 0  0.92 0.8 0  0.96 0.8 0  1 0.8 0  0 0.84 0  0.04 0.84 0  0.08 0.84 0  0.12 0.84 0  0.16 0.84 0  0.2 0.84 0  0.24 0.84 0  0.28 0.84 0  0.32 0.84 0  0.36 0.84 0  0.4 0.84 0  0.44 0.84 0  0.48 0.84 0  0.52 0.84 0  0.5600000000000001 0.84 0  0.6 0.84 0  0.64 0.84 0  0.68 0.84 0  0.72 0.84 0  0.76 0.84 0  0.8 0.84 0  0.84 0.84 0  0.88 0.84 0  0.92 0.84 0  0.96 0.84 0  1 0.84 0  0 0.88 0  0.04 0.88 0  0.08 0.88 0  0.12 0.88 0  0.16 0.88 0  0.2 0.88 0  0.24 0.88 0  0.28 0.88 0  0.32 0.88 0  0.36 0.88 0  0.4 0.88 0  0.44 0.88 0  0.48 0.88 0  0.52 0.88 0  0.5600000000000001 0.88 0  0.6 0.88 0  0.64 0.88 0  0.68 0.88 0  0.72 0.88 0  0.76 0.88 0  0.8 0.88 0  0.84 0.88 0  0.88 0.88 0  0.92 0.88 0  0.96 0.88 0  1 0.88 0  0 0.92 0  0.04 0.92 0  0.08 0.92 0  0.12 0.92 0  0.16 0.92 0  0.2 0.92 0  0.24 0.92 0  0.28 0.92 0  0.32 0.92 0  0.36 0.92 0  0.4 0.92 0  0.44 0.92 0  0.48 0.92 0  0.52 0.92 0  0.5600000000000001 0.92 0  0.6 0.92 0  0.64 0.92 0  0.68 0.92 0  0.72 0.92 0  0.76 0.92 0  0.8 0.92 0  0.84 0.92 0  0.88 0.92 0  0.92 0.92 0  0.96 0.92 0  1 0.92 0  0 0.96 0  0.04 0.96 0  0.08 0.96 0  0.12 0.96 0  0.16 0.96 0  0.2 0.96 0  0.24 0.96 0  0.28 0.96 0  0.32 0.96 0  0.36 0.96 0  0.4 0.96 0  0.44 0.96 0  0.48 0.96 0  0.52 0.96 0  0.5600000000000001 0.96 0  0.6 0.96 0  0.64 0.96 0  0.68 0.96 0  0.72 0.96 0  0.76 0.96 0  0.8 0.96 0  0.84 0.96 0  0.88 0.96 0  0.92 0.96 0  0.96 0.96 0  1 0.96 0  0 1 0  0.04 1 0  0.08 1 0  0.12 1 0  0.16 1 0  0.2 1 0  0.24 1 0  0.28 1 0  0.32 1 0  0.36 1 0  0.4 1 0  0.44 1 0  0.48 1 0  0.52 1 0  0.5600000000000001 1 0  0.6 1 0  0.64 1 0  0.68 1 0  0.72 1 0  0.76 1 0  0.8 1 0  0.84 1 0  0.88 1 0  0.92 1 0  0.96 1 0  1 1 0  </DataArray>
</Points>
<Cells>
[...]
<PointData  Scalars="Indicator Function"> 
<DataArray  type="Float64"  Name="Indicator Function"  format="ascii">-2.6351684718341269e-20  -8.7380477345985657e-19  1.6913173695467887e-17  1.5952756874153077e-17  -5.3506065030067870e-19  -1.2646605375627152e-19  -7.5947608858855848e-20  -1.0711441546240216e-18  -9.2551282770424259e-18  -5.3709514556445102e-19  5.2209609071168329e-17  8.1653058946902563e-18  -3.5400579299106168e-35  -3.1860521369195551e-34  2.5748481211856783e-17  2.2125362061941355e-36  1.2168949134067746e-35  4.1573686730268003e-18  2.2125362061941355e-36  1.1062681030970678e-36  6.0036701992059390e-19  -4.4604250663593935e-21  -8.6624828998046522e-21  2.2319088374522636e-19  -3.0289075198077700e-21  0.0000000000000000e+00  -3.2869292514425944e-21  4.7470974991242548e-04  3.3829132402731629e-03  1.5116763792051492e-02  2.8348567681430879e-04  4.5564197805740897e-03  2.7363009836512200e-03  1.2983860479113162e-02  8.0379533414904249e-03  1.5724998205570471e-02  1.8129468869209787e-03  1.5130102112282263e-02  8.1104543777148035e-03  2.0851629667361011e-03  1.7175729927592742e-03  1.5339392980442924e-03  9.6577715667093970e-04  7.5761991045328087e-04  3.6731939965753212e-04  2.7716616571722848e-04  1.6878042655920147e-04  1.4276714928346997e-04  1.5713608537172287e-04  7.7481376352791907e-05  1.0912789422036765e-04  3.0289075198077787e-21  -2.6182902252984075e-19  5.9212053407958152e-05  1.9597104000815388e-04  4.5254744160349034e-03  2.4149077631438760e-02  4.8191320611475569e-03  2.6571009240716419e-02  2.5323610391732934e-02  4.8045316419605445e-02  1.1943620641278654e-03  2.2846448774826712e-02  1.1013349796377773e-02  3.1441317756182481e-02  3.8804953524626675e-04  4.8909521310616568e-03  4.5412388886969654e-03  3.1327365028071550e-03  2.1150810178974383e-03  1.2173423244754139e-03  6.9404066975557374e-04  5.8196635302940178e-04  3.2494833643575022e-04  4.5470329792451968e-04  3.5321758297111953e-04  9.4312229890852558e-05  -3.6042382210943412e-20  -9.2503450371761041e-20  4.7166923532006898e-03  6.4124352009539013e-03  7.2100298701140084e-03  4.0409590889529397e-02  3.9062034813750817e-03  9.1267238556085404e-03  3.4155425180416220e-04  2.7844599733155735e-02  2.6578231159116398e-02  4.3400613260296504e-02  1.0200368600560547e-02  4.7383316781997822e-02  2.9119265215493413e-02  9.9358000593734210e-03  1.0772270339972870e-02  8.6012449685858514e-03  4.8428976667364244e-03  3.1387858043428539e-03  1.5127324250084934e-03  1.0447757526855087e-03  6.6761182718396382e-04  4.3926798752338617e-04  5.6631448750593585e-04  3.9672334782389217e-04  -5.5056424395057429e-20  -4.6750474437996107e-19  3.9978259526709317e-03  3.7605656320585414e-03  1.9992187085157505e-03  1.1071343704099140e-05  5.7783853540534849e-02  5.4396670212270102e-03  6.6175491417670762e-02  4.7676843826552816e-02  1.2301519609464266e-01  2.0457311704171956e-02  7.2677351954628711e-02  5.0305214649393519e-02  1.0125113450598552e-01  2.9204133313717802e-02  2.4177985331232259e-02  2.0608831164820575e-02  1.3577909067784050e-02  7.4061119435761364e-03  3.7542414715241359e-03  1.6830858664727835e-03  1.1306958365620266e-03  5.0814887427893249e-04  5.0933832550229343e-04  3.8865388946539260e-04  9.5908157767103126e-20  -8.8501448247765429e-35  9.5854411953472281e-03  8.3941580672431699e-03  5.3599223251313216e-03  6.7502457583326026e-03  7.9602256285047066e-02  2.6311201631036556e-02  2.1254916808545209e-02  1.9442187549738074e-02  9.5392512173550312e-02  1.0856533155694005e-01  1.8501364838818654e-01  1.0229984009454533e-01  1.6397030436081234e-01  1.1741290566051923e-01  6.4546440505846583e-02  4.6436482807424552e-02  3.1085019028582073e-02  1.6255008838097572e-02  8.3692468489207725e-03  3.5935774764444955e-03  1.7624001397474997e-03  8.6168378689076492e-04  2.9234212967371964e-04  3.6249523511466759e-04  -2.0122527817060639e-20  -9.9564129278736100e-35  1.4610384146509597e-02  9.3880706104690938e-03  7.9385857044796098e-03  6.2877064799811179e-03  3.0951715644575346e-02  1.7401415773473775e-01  2.1737900971965762e-02  1.9759391227175699e-01  1.5757247284000010e-02  3.6572949739733607e-01  1.1951011753198805e-01  2.0947139600325493e-01  2.2100200056572636e-01  2.7423017427656549e-01  1.2242546811623511e-01  6.7151730725867997e-02  4.8677810467589185e-02  3.2932693930390805e-02  1.7739817912780401e-02  8.1781221596566572e-03  3.2230993829234214e-03  1.6647710779542461e-03  5.2862314101373854e-04  1.9214587242170886e-04  -1.0666238582463443e-20  -1.7516623951927298e-22  9.9716662786339949e-03  3.3177968128851663e-03  2.1286409960785325e-02  3.7555810205228315e-02  3.0241272756110899e-02  1.3766961673305519e-01  1.5504401495269485e-03  1.7083055553768517e-01  1.3035619913962582e-01  6.7021710058713213e-02  3.7036971950228273e-02  4.0373294157955031e-01  3.7167222931672327e-03  3.8725289050319001e-01  5.0021031081135403e-01  8.0369323926073079e-03  4.9293081036957453e-02  5.7375232764629733e-02  3.4938438420329163e-02  1.7352831186341643e-02  7.0040053513169961e-03  2.9035749802546525e-03  1.2528845547107579e-03  2.8837609505941115e-04  -1.3828351288713348e-34  -2.1240347579463702e-34  1.8692333515124861e-02  1.7506226010498123e-02  5.7567904028932469e-03  1.4775245021446311e-02  5.6294634156349221e-02  9.3106734168324906e-02  1.4226693930932821e-01  2.0054493219191624e-01  3.0388695873539517e-01  1.1321745929730449e-01  1.9421016129025376e-01  3.7438277807164945e-02  1.2546438487365855e-01  1.0042023042518963e-02  8.5410761296959473e-02  7.3118660619070047e-02  1.3183779908024659e-02  7.4260854303918808e-02  5.3644040573112270e-02  3.1178843822487919e-02  1.4180610430852671e-02  5.3949006689663400e-03  2.3973736014160653e-03  7.2434741548437615e-04  -2.8320463439284935e-34  -1.0537564941063739e-19  3.0835762801579374e-03  1.3618154785538033e-02  3.9649683473042548e-02  8.6413950922483454e-02  7.6105274144542476e-02  4.4749444627228435e-02  2.2570565309945492e-01  4.4147249173890296e-01  8.6926309974707974e-02  4.0232227235158485e-02  6.5738682361187219e-03  1.1400617109359158e-01  1.0398310801428109e-01  6.1018331514438369e-02  5.4976336643123895e-02  1.1432180443770959e-01  7.1739670008823100e-02  2.0133019324778196e-02  6.1758588924028295e-02  4.2840365149418448e-02  2.3807930519046793e-02  9.7685618586666415e-03  3.8729447777278189e-03  1.4649496276430895e-03  3.5400579299106168e-35  2.9205477921762591e-34  2.6762265017370051e-03  4.4484829176771575e-03  3.8667265099347507e-03  2.9831522018037689e-02  1.2353323866236292e-01  3.8032498414054450e-01  1.1624910551917085e-01  1.5285943965940613e-01  4.7180120721297222e-02  5.8475652028772550e-02  1.6402821783123907e-02  8.7972413294117369e-02  8.0372201935875187e-02  9.8880031940747889e-02  5.6791338631409859e-02  1.3802868198196144e-01  1.1535883108848814e-01  6.4012614796936637e-02  4.5604119199960401e-02  4.1572177127857754e-02  2.9466779426649839e-02  1.5446881353848325e-02  6.1558428032914957e-03  2.3442317063260372e-03  4.6905767571315673e-34  -1.0620173789731851e-34  3.5411689664861081e-03  7.0635551346760750e-04  2.4449105408464733e-02  5.0831059722632702e-02  1.0422138460893361e-01  6.9513015415496718e-02  4.8823824407098487e-01  6.2050396756929437e-02  2.0437452528353117e-02  3.0630473850929943e-02  2.9134352130174387e-02  2.2913435034243493e-02  1.0937607771957289e-01  1.0129819116121447e-01  3.5100042517735089e-02  8.6315692951528716e-02  2.5963425344219648e-01  2.7105634909313298e-01  4.7777213768410327e-02  8.9385694849911396e-03  2.2919756440163936e-02  1.8758526995306751e-02  9.1547326801371433e-03  3.6055312616479328e-03  -5.6640926878569870e-34  -2.7478825070344883e-19  1.1702854842494403e-02  9.1138505893042579e-03  7.9456876271313346e-03  3.7160854810533599e-02  1.2871615835068084e-01  1.7286613758969033e-01  3.4122293476519849e-02  1.5841623671685592e-01  6.2618731691423943e-02  1.7260633191720071e-02  4.5585938050319949e-02  2.7198022338877543e-02  9.0500780918943743e-02  8.2702538638905157e-02  1.2549362606659084e-01  6.0983104880199007e-02  1.7529496489015567e-01  1.9675648418563199e-01  4.8289317236451451e-01  4.1896589565576764e-02  1.5652521906299567e-03  1.5305917883962279e-02  1.1333691600570614e-02  5.0984956205633097e-03  1.4160231719642467e-34  -7.0801158598212337e-35  4.9501450538953730e-03  1.5840866862026300e-02  3.2168981392096993e-02  6.6458375274657880e-02  9.6467872434035026e-02  1.3569793230907945e-01  2.5883966491479898e-01  8.2339485463123807e-02  9.8747025399581065e-02  3.1921779466211823e-02  3.0130799558511952e-03  2.2049461545708700e-02  2.4094547137776472e-02  1.2174122192491851e-01  1.1111897971784919e-01  4.2482721145909851e-04  2.3191161380994332e-01  4.9429521318822056e-01  4.1342855201794079e-02  6.6014422131069769e-02  4.6210246917618256e-02  1.0031179150702487e-03  1.0961715869591234e-02  6.2031164588235684e-03  1.4160231719642467e-34  -3.1449346261078990e-20  1.5938692840329811e-03  5.6423944658799408e-03  1.3569820797127468e-02  4.8809654194852233e-02  1.3802218469748379e-01  2.0416169418131339e-01  1.3251891949812944e-01  1.1338184825787223e-01  1.3640052502552780e-01  6.8077777787523663e-02  5.8877729626164083e-02  2.2282652521318190e-02  8.5027142088669894e-03  1.2261282722294352e-01  3.3589162779212978e-02  1.1488343778833660e-01  5.5715718444231656e-02  2.4917035725496281e-01  7.8142395343983551e-01  8.3722238802849930e-02  2.7650228411925305e-02  3.8204627662232794e-02  5.2997236286068091e-03  6.9955363219907779e-03  4.8675796536270987e-33  -4.8486559087621378e-20  8.1139842666179650e-03  7.2470538021681529e-03  1.8446347100347617e-02  3.1613908177218042e-02  6.0126144648997341e-02  8.6316580442731397e-02  2.8538205465892230e-01  1.3384065473447340e-01  9.8280480404580692e-02  1.2739352603851134e-01  7.4629565350376140e-02  8.2291085619096413e-02  1.9289954454493271e-02  9.1342495352619967e-03  3.1907575450399439e-01  2.4190011853490526e-01  1.4086084148931610e-01  1.2269587340451411e-01  1.2058738698625083e-02  1.2582795711833680e-01  3.5967884208607186e-02  4.1629838558005436e-02  2.5680679233352158e-02  8.5293418141498337e-03  -4.7347358334836279e-19  -8.8501448247765421e-36  8.7345619775795584e-04  7.4233400633175401e-03  1.5695315655561232e-02  3.7676635544966204e-02  7.4574948156424889e-02  1.0149423372524180e-01  3.4941898710116200e-03  1.9179742634708513e-01  5.8168555753391700e-02  1.9707785572549022e-01  6.3834886312707562e-02  1.3675790450351710e-01  1.3399242657304385e-02  6.5619738430995417e-02  2.3064585437235924e-01  1.0917469531900514e-01  5.6257114628914073e-01  3.8240125186346702e-01  1.9228446678751607e-01  7.1034161668601353e-02  5.1718300861746100e-02  1.3574412020143017e-02  2.8561532571962849e-02  1.0267729032305153e-02  0.0000000000000000e+00  -2.3148803610758045e-20  4.4940010506037904e-04  3.2568624867500501e-03  5.7155894165547352e-03  2.0565269723399775e-02  4.8388404385223356e-02  9.2963731346724393e-02  1.3864675940790008e-01  3.7464256714118383e-03  2.2638601503357311e-01  2.3749627623462854e-01  2.8085255413183535e-01  1.6825678527429910e-01  1.4869681250617353e-01  5.7863838566163936e-02  1.8767393281459152e-01  5.1735595666355616e-01  1.4406408274651999e-01  1.1355218501399002e-01  5.7643455690947372e-02  7.1353923607002490e-02  6.7356956755440345e-02  4.3774021159673854e-02  2.0400215432099647e-02  1.2066572384696411e-02  -4.0781467352570305e-32  -7.5844575402372278e-20  1.4454406963347701e-03  1.7562738935235017e-04  6.7933231744064133e-03  1.0367334455597545e-02  2.6950190916825222e-02  4.7945266415265038e-02  6.4318438841323308e-02  6.3822070934357850e-02  2.7795860099843872e-01  8.4588410007580925e-02  3.4789010977625479e-01  1.7798315714934806e-01  5.4849913870948108e-01  2.0437785893535998e-01  8.2033351874977747e-02  7.2264021792678024e-01  2.4879150328574798e-01  1.3014190267903880e-01  3.7048763541894472e-02  3.7089555112402625e-02  5.4592297445485542e-02  5.5108787763467337e-02  2.5018170386269165e-02  1.0133467956886431e-02  3.3984556127141923e-33  -8.8504201273464175e-20  1.3662944060807885e-03  1.6994031461240390e-03  3.0636594099122216e-03  8.5781419715554811e-03  1.7790955353095442e-02  3.4243469633682001e-02  4.6999721432607125e-02  4.5889219229210597e-02  7.4650409490120542e-02  1.7747541385526842e-02  4.1860450418658622e-02  5.3639339000921038e-01  3.1397381350674256e-02  6.2856726225252391e-01  4.7290406551015474e-01  7.2966550335012953e-02  8.4977696805895273e-02  8.8328380066353351e-02  8.1497307366107857e-02  2.4655280651039883e-02  5.2073829706844023e-02  4.8338334178342462e-02  4.4962949699747873e-02  9.6291697333214250e-04  3.3984556127141923e-33  -8.7986662749450527e-20  1.5943499515035865e-03  2.5052198136131234e-03  1.5720988515623368e-03  6.7361687637180036e-03  1.0690831651934242e-02  2.3506526420544314e-02  3.7139289517152327e-02  4.2557764955208313e-02  9.3931174111770693e-03  2.5437003664052989e-02  2.4802387949663312e-02  1.5036603144406252e-01  2.2921615379586490e-02  1.3254218040155605e-01  2.1699697221018971e-02  1.1370014490809172e-01  3.0583222388860340e-02  7.8994038544721382e-02  7.4521455901310790e-02  4.9079690317074771e-02  3.4314897282046751e-02  3.4585677585933006e-02  3.3367789771634800e-02  2.6899552081597763e-02  5.6717835123599301e-18  -4.1904436891674029e-20  1.5850268062879982e-03  2.3231648217383579e-03  3.2224958194398746e-03  3.1975072598899455e-03  8.6662219132739304e-03  1.4140096854968566e-02  2.6182783314661725e-02  3.6576719110431123e-02  4.5710015712814744e-02  3.0004102438748254e-02  3.8063166655522507e-02  2.6517675335009292e-02  7.9179352428539185e-02  1.9903289185770216e-02  7.1464240095764062e-02  2.8504769414665603e-02  2.8117439872809631e-02  8.1965159821488498e-03  7.1732490644310920e-02  5.4480432334466339e-02  2.5922045964079710e-02  2.6450403169270394e-02  1.4964843247909112e-02  9.8147934243827846e-03  2.2656370751427948e-33  -1.6711100385496395e-20  7.5488322548205493e-04  1.7460250543325174e-03  2.3766938231549743e-03  2.6752367863559848e-03  5.8283197841322845e-03  9.8880815484938423e-03  1.8143246411252985e-02  2.8090875375319166e-02  3.6685761249201636e-02  1.6992653580677409e-02  2.4019464190167743e-02  3.5404460716327101e-02  2.2286425698592072e-02  3.7053044846430856e-03  1.0140631849342508e-02  1.7884295850294933e-02  1.7051344411529286e-02  5.0040394230827705e-04  5.9288541499296195e-02  4.3631893658043694e-02  3.4959435609589605e-02  1.2839572430720677e-03  7.2953428236365190e-03  5.4227205561497988e-03  1.1328185375713974e-33  -1.0744886131293439e-20  3.0104042187629039e-04  9.1185575197812955e-04  1.2903751750175227e-03  1.9883875385204321e-03  2.2268706308406351e-03  6.3520526925888296e-03  1.0815160052716296e-02  2.0731859002411639e-02  3.2641329463372531e-02  4.4365756850074545e-02  4.5139129007702138e-03  1.4032987201809692e-02  2.5872411359856917e-02  2.2453756327080746e-02  2.7199382849097620e-02  2.6893435698803593e-03  1.9534407296444519e-03  6.8976224943061958e-03  2.5041461655124892e-03  3.5475190000521580e-02  2.0390522993571872e-02  1.9923199374337116e-02  4.9000280300461573e-03  4.4373874727480193e-04  1.2316224353526656e-20  -1.9359691804198686e-36  1.9356266070812592e-04  4.1097121085326236e-04  7.3698060455743236e-04  8.7238482119300306e-04  1.2523286163711957e-03  2.4633001192757146e-03  4.7578667867228192e-03  9.2336950576468995e-03  1.7735228531304954e-02  3.4198518114576582e-02  2.8783914560129808e-02  5.4334081259540075e-03  8.3511813170762429e-03  1.5462225576903367e-02  1.3770765102894317e-02  2.4236329133611505e-02  1.1062437077579694e-02  2.4538174510987782e-03  7.4732914338031279e-03  5.1550923630880978e-03  2.8449811919478971e-03  3.1436022648042529e-03  8.2112966917523376e-03  1.1096686386020189e-02  -6.1598983614020487e-19  -1.1062681030970678e-36  5.3724430656466547e-21  1.0266068266815932e-19  -1.0227660448522852e-19  2.1792188583494370e-19  -3.2223357185732056e-20  -1.3674062544908969e-19  -5.7525941361047526e-35  1.9116312821517333e-33  -5.7888682575935257e-19  -4.5870634796793053e-18  7.9891411708743352e-19  -3.0161474018098001e-19  0.0000000000000000e+00  1.4827069432291972e-17  -7.6443102419689448e-19  -1.3453865318264465e-18  3.0704430879977148e-19  -1.3621423162184186e-19  0.0000000000000000e+00  3.7533852017218679e-17  -1.5792818119630399e-19  0.0000000000000000e+00  -2.0390733676285153e-32  -6.1598983614020372e-19  5.0583134564953070e-18  </DataArray> 
</PointData> 
</Piece>
</UnstructuredGrid>
</VTKFile>