<?xml version="1.0"?>
<VTKFile type="UnstructuredGrid"  version="0.1"  >
<UnstructuredGrid>
<Piece  NumberOfPoints="2601" NumberOfCells="5000">
<Points>
<DataArray  type="Float64"  NumberOfComponents="3"  format="ascii">0 0 0  0.02 0 0  0.04 0 0  0.06 0 0  0.08 0 0  0.1 0 0  0.12 0 0  0.14 0 0  0.16 0 0  0.18 0 0  0.2 0 0  0.22 0 0  0.24 0 0  0.26 0 0  0.28 0 0  0.3 0 0  0.32 0 0  0.34 0 0  0.36 0 0  0.38 0 0  0.4 0 0  0.42 0 0  0.44 0 0  0.46 0 0  0.48 0 0  0.5 0 0  0.52 0 0  0.54 0 0  0.5600000000000001 0 0  0.58 0 0  0.6 0 0  0.62 0 0  0.64 0 0  0.66 0 0  0.68 0 0  0.7 0 0  0.72 0 0  0.74 0 0  0.76 0 0  0.78 0 0  0.8 0 0  0.82 0 0  0.84 0 0  0.86 0 0  0.88 0 0  0.9 0 0  0.92 0 0  0.9399999999999999 0 0  0.96 0 0  0.98 0 0  1 0 0  0 0.02 0  0.02 0.02 0  0.04 0.02 0  0.06 0.02 0  0.08 0.02 0  0.1 0.02 0  0.12 0.02 0  0.14 0.02 0  0.16 0.02 0  0.18 0.02 0  0.2 0.02 0  0.22 0.02 0  0.24 0.02 0  0.26 0.02 0  0.28 0.02 0  0.3 0.02 0  0.32 0.02 0  0.34 0.02 0  0.36 0.02 0  0.38 0.02 0  0.4 0.02 0  0.42 0.02 0  0.44 0.02 0  0.46 0.02 0  0.48 0.02 0  0.5 0.02 0  0.52 0.02 0  0.54 0.02 0  0.5600000000000001 0.02 0  0.58 0.02 0  0.6 0.02 0  0.62 0.02 0  0.64 0.02 0  0.66 0.02 0  0.68 0.02 0  0.7 0.02 0  0.72 0.02 0  0.74 0.02 0  0.76 0.02 0  0.78 0.02 0  0.8 0.02 0  0.82 0.02 0  0.84 0.02 0  0.86 0.02 0  0.88 0.02 0  0.9 0.02 0  0.92 0.02 0  0.9399999999999999 0.02 0  0.96 0.02 0  0.98 0.02 0  1 0.02 0  0 0.04 0  0.02 0.04 0  0.04 0.04 0  0.06 0.04 0  0.08 0.04 0  0.1 0.04 0  0.12 0.04 0  0.14 0.04 0  0.16 0.04 0  0.18 0.04 0  0.2 0.04 0  0.22 0.04 0  0.24 0.04 0  0.26 0.04 0  0.28 0.04 0  0.3 0.04 0  0.32 0.04 0  0.34 0.04 0  0.36 0.04 0  0.38 0.04 0  0.4 0.04 0  0.42 0.04 0  0.44 0.04 0  0.46 0.04 0  0.48 0.04 0  0.5 0.04 0  0.52 0.04 0  0.54 0.04 0  0.5600000000000001 0.04 0  0.58 0.04 0  0.6 0.04 0  0.62 0.04 0  0.64 0.04 0  0.66 0.04 0  0.68 0.04 0  0.7 0.04 0  0.72 0.04 0  0.74 0.04 0  0.76 0.04 0  0.78 0.04 0  0.8 0.04 0  0.82 0.04 0  0.84 0.04 0  0.86 0.04 0  0.88 0.04 0  0.9 0.04 0  0.92 0.04 0  0.9399999999999999 0.04 0  0.96 0.04 0  0.98 0.04 0  1 0.04 0  0 0.06 0  0.02 0.06 0  0.04 0.06 0  0.06 0.06 0  0.08 0.06 0  0.1 0.06 0  0.12 0.06 0  0.14 0.06 0  0.16 0.06 0  0.18 0.06 0  0.2 0.06 0  0.22 0.06 0  0.24 0.06 0  0.26 0.06 0  0.28 0.06 0  0.3 0.06 0  0.32 0.06 0  0.34 0.06 0  0.36 0.06 0  0.38 0.06 0  0.4 0.06 0  0.42 0.06 0  0.44 0.06 0  0.46 0.06 0  0.48 0.06 0  0.5 0.06 0  0.52 0.06 0  0.54 0.06 0  0.5600000000000001 0.06 0  0.58 0.06 0  0.6 0.06 0  0.62 0.06 0  0.64 0.06 0  0.66 0.06 0  0.68 0.06 0  0.7 0.06 0  0.72 0.06 0  0.74 0.06 0  0.76 0.06 0  0.78 0.06 0  0.8 0.06 0  0.82 0.06 0  0.84 0.06 0  0.86 0.06 0  0.88 0.06 0  0.9 0.06 0  0.92 0.06 0  0.9399999999999999 0.06 0  0.96 0.06 0  0.98 0.06 0  1 0.06 0  0 0.08 0  0.02 0.08 0  0.04 0.08 0  0.06 0.08 0  0.08 0.08 0  0.1 0.08 0  0.12 0.08 0  0.14 0.08 0  0.16 0.08 0  0.18 0.08 0  0.2 0.08 0  0.22 0.08 0  0.24 0.08 0  0.26 0.08 0  0.28 0.08 0  0.3 0.08 0  0.32 0.08 0  0.34 0.08 0  0.36 0.08 0  0.38 0.08 0  0.4 0.08 0  0.42 0.08 0  0.44 0.08 0  0.46 0.08 0  0.48 0.08 0  0.5 0.08 0  0.52 0.08 0  0.54 0.08 0  0.5600000000000001 0.08 0  0.58 0.08 0  0.6 0.08 0  0.62 0.08 0  0.64 0.08 0  0.66 0.08 0  0.68 0.08 0  0.7 0.08 0  0.72 0.08 0  0.74 0.08 0  0.76 0.08 0  0.78 0.08 0  0.8 0.08 0  0.82 0.08 0  0.84 0.08 0  0.86 0.08 0  0.88 0.08 0  0.9 0.08 0  0.92 0.08 0  0.9399999999999999 0.08 0  0.96 0.08 0  0.98 0.08 0  1 0.08 0  0 0.1 0  0.02 0.1 0  0.04 0.1 0  0.06 0.1 0  0.08 0.1 0  0.1 0.1 0  0.12 0.1 0  0.14 0.1 0  0.16 0.1 0  0.18 0.1 0  0.2 0.1 0  0.22 0.1 0  0.24 0.1 0  0.26 0.1 0  0.28 0.1 0  0.3 0.1 0  0.32 0.1 0  0.34 0.1 0  0.36 0.1 0  0.38 0.1 0  0.4 0.1 0  0.42 0.1 0  0.44 0.1 0  0.46 0.1 0  0.48 0.1 0  0.5 0.1 0  0.52 0.1 0  0.54 0.1 0  0.5600000000000001 0.1 0  0.58 0.1 0  0.6 0.1 0  0.62 0.1 0  0.64 0.1 0  0.66 0.1 0  0.68 0.1 0  0.7 0.1 0  0.72 0.1 0  0.74 0.1 0  0.76 0.1 0  0.78 0.1 0  0.8 0.1 0  0.82 0.1 0  0.84 0.1 0  0.86 0.1 0  0.88 0.1 0  0.9 0.1 0  0.92 0.1 0  0.9399999999999999 0.1 0  0.96 0.1 0  0.98 0.1 0  1 0.1 0  0 0.12 0  0.02 0.12 0  0.04 0.12 0  0.06 0.12 0  0.08 0.12 0  0.1 0.12 0  0.12 0.12 0  0.14 0.12 0  0.16 0.12 0  0.18 0.12 0  0.2 0.12 0  0.22 0.12 0  0.24 0.12 0  0.26 0.12 0  0.28 0.12 0  0.3 0.12 0  0.32 0.12 0  0.34 0.12 0  0.36 0.12 0  0.38 0.12 0  0.4 0.12 0  0.42 0.12 0  0.44 0.12 0  0.46 0.12 0  0.48 0.12 0  0.5 0.12 0  0.52 0.12 0  0.54 0.12 0  0.5600000000000001 0.12 0  0.58 0.12 0  0.6 0.12 0  0.62 0.12 0  0.64 0.12 0  0.66 0.12 0  0.68 0.12 0  0.7 0.12 0  0.72 0.12 0  0.74 0.12 0  0.76 0.12 0  0.78 0.12 0  0.8 0.12 0  0.82 0.12 0  0.84 0.12 0  0.86 0.12 0  0.88 0.12 0  0.9 0.12 0  0.92 0.12 0  0.9399999999999999 0.12 0  0.96 0.12 0  0.98 0.12 0  1 0.12 0  0 0.14 0  0.02 0.14 0  0.04 0.14 0  0.06 0.14 0  0.08 0.14 0  0.1 0.14 0  0.12 0.14 0  0.14 0.14 0  0.16 0.14 0  0.18 0.14 0  0.2 0.14 0  0.22 0.14 0  0.24 0.14 0  0.26 0.14 0  0.28 0.14 0  0.3 0.14 0  0.32 0.14 0  0.34 0.14 0  0.36 0.14 0  0.38 0.14 0  0.4 0.14 0  0.42 0.14 0  0.44 0.14 0  0.46 0.14 0  0.48 0.14 0  0.5 0.14 0  0.52 0.14 0  0.54 0.14 0  0.5600000000000001 0.14 0  0.58 0.14 0  0.6 0.14 0  0.62 0.14 0  0.64 0.14 0  0.66 0.14 0  0.68 0.14 0  0.7 0.14 0  0.72 0.14 0  0.74 0.14 0  0.76 0.14 0  0.78 0.14 0  0.8 0.14 0  0.82 0.14 0  0.84 0.14 0  0.86 0.14 0  0.88 0.14 0  0.9 0.14 0  0.92 0.14 0  0.9399999999999999 0.14 0  0.96 0.14 0  0.98 0.14 0  1 0.14 0  0 0.16 0  0.02 0.16 0  0.04 0.16 0  0.06 0.16 0  0.08 0.16 0  0.1 0.16 0  0.12 0.16 0  0.14 0.16 0  0.16 0.16 0  0.18 0.16 0  0.2 0.16 0  0.22 0.16 0  0.24 0.16 0  0.26 0.16 0  0.28 0.16 0  0.3 0.16 0  0.32 0.16 0  0.34 0.16 0  0.36 0.16 0  0.38 0.16 0  0.4 0.16 0  0.42 0.16 0  0.44 0.16 0  0.46 0.16 0  0.48 0.16 0  0.5 0.16 0  0.52 0.16 0  0.54 0.16 0  0.5600000000000001 0.16 0  0.58 0.16 0  0.6 0.16 0  0.62 0.16 0  0.64 0.16 0  0.66 0.16 0  0.68 0.16 0  0.7 0.16 0  0.72 0.16 0  0.74 0.16 0  0.76 0.16 0  0.78 0.16 0  0.8 0.16 0  0.82 0.16 0  0.84 0.16 0  0.86 0.16 0  0.88 0.16 0  0.9 0.16 0  0.92 0.16 0  0.9399999999999999 0.16 0  0.96 0.16 0  0.98 0.16 0  1 0.16 0  0 0.18 0  0.02 0.18 0  0.04 0.18 0  0.06 0.18 0  0.08 0.18 0  0.1 0.18 0  0.12 0.18 0  0.14 0.18 0  0.16 0.18 0  0.18 0.18 0  0.2 0.18 0  0.22 0.18 0  0.24 0.18 0  0.26 0.18 0  0.28 0.18 0  0.3 0.18 0  0.32 0.18 0  0.34 0.18 0  0.36 0.18 0  0.38 0.18 0  0.4 0.18 0  0.42 0.18 0  0.44 0.18 0  0.46 0.18 0  0.48 0.18 0  0.5 0.18 0  0.52 0.18 0  0.54 0.18 0  0.5600000000000001 0.18 0  0.58 0.18 0  0.6 0.18 0  0.62 0.18 0  0.64 0.18 0  0.66 0.18 0  0.68 0.18 0  0.7 0.18 0  0.72 0.18 0  0.74 0.18 0  0.76 0.18 0  0.78 0.18 0  0.8 0.18 0  0.82 0.18 0  0.84 0.18 0  0.86 0.18 0  0.88 0.18 0  0.9 0.18 0  0.92 0.18 0  0.9399999999999999 0.18 0  0.96 0.18 0  0.98 0.18 0  1 0.18 0  0 0.2 0  0.02 0.2 0  0.04 0.2 0  0.06 0.2 0  0.08 0.2 0  0.1 0.2 0  0.12 0.2 0  0.14 0.2 0  0.16 0.2 0  0.18 0.2 0  0.2 0.2 0  0.22 0.2 0  0.24 0.2 0  0.26 0.2 0  0.28 0.2 0  0.3 0.2 0  0.32 0.2 0  0.34 0.2 0  0.36 0.2 0  0.38 0.2 0  0.4 0.2 0  0.42 0.2 0  0.44 0.2 0  0.46 0.2 0  0.48 0.2 0  0.5 0.2 0  0.52 0.2 0  0.54 0.2 0  0.5600000000000001 0.2 0  0.58 0.2 0  0.6 0.2 0  0.62 0.2 0  0.64 0.2 0  0.66 0.2 0  0.68 0.2 0  0.7 0.2 0  0.72 0.2 0  0.74 0.2 0  0.76 0.2 0  0.78 0.2 0  0.8 0.2 0  0.82 0.2 0  0.84 0.2 0  0.86 0.2 0  0.88 0.2 0  0.9 0.2 0  0.92 0.2 0  0.9399999999999999 0.2 0  0.96 0.2 0  0.98 0.2 0  1 0.2 0  0 0.22 0  0.02 0.22 0  0.04 0.22 0  0.06 0.22 0  0.08 0.22 0  0.1 0.22 0  0.12 0.22 0  0.14 0.22 0  0.16 0.22 0  0.18 0.22 0  0.2 0.22 0  0.22 0.22 0  0.24 0.22 0  0.26 0.22 0  0.28 0.22 0  0.3 0.22 0  0.32 0.22 0  0.34 0.22 0  0.36 0.22 0  0.38 0.22 0  0.4 0.22 0  0.42 0.22 0  0.44 0.22 0  0.46 0.22 0  0.48 0.22 0  0.5 0.22 0  0.52 0.22 0  0.54 0.22 0  0.5600000000000001 0.22 0  0.58 0.22 0  0.6 0.22 0  0.62 0.22 0  0.64 0.22 0  0.66 0.22 0  0.68 0.22 0  0.7 0.22 0  0.72 0.22 0  0.74 0.22 0  0.76 0.22 0  0.78 0.22 0  0.8 0.22 0  0.82 0.22 0  0.84 0.22 0  0.86 0.22 0  0.88 0.22 0  0.9 0.22 0  0.92 0.22 0  0.9399999999999999 0.22 0  0.96 0.22 0  0.98 0.22 0  1 0.22 0  0 0.24 0  0.02 0.24 0  0.04 0.24 0  0.06 0.24 0  0.08 0.24 0  0.1 0.24 0  0.12 0.24 0  0.14 0.24 0  0.16 0.24 0  0.18 0.24 0  0.2 0.24 0  0.22 0.24 0  0.24 0.24 0  0.26 0.24 0  0.28 0.24 0  0.3 0.24 0  0.32 0.24 0  0.34 0.24 0  0.36 0.24 0  0.38 0.24 0  0.4 0.24 0  0.42 0.24 0  0.44 0.24 0  0.46 0.24 0  0.48 0.24 0  0.5 0.24 0  0.52 0.24 0  0.54 0.24 0  0.5600000000000001 0.24 0  0.58 0.24 0  0.6 0.24 0  0.62 0.24 0  0.64 0.24 0  0.66 0.24 0  0.68 0.24 0  0.7 0.24 0  0.72 0.24 0  0.74 0.24 0  0.76 0.24 0  0.78 0.24 0  0.8 0.24 0  0.82 0.24 0  0.84 0.24 0  0.86 0.24 0  0.88 0.24 0  0.9 0.24 0  0.92 0.24 0  0.9399999999999999 0.24 0  0.96 0.24 0  0.98 0.24 0  1 0.24 0  0 0.26 0  0.02 0.26 0  0.04 0.26 0  0.06 0.26 0  0.08 0.26 0  0.1 0.26 0  0.12 0.26 0  0.14 0.26 0  0.16 0.26 0  0.18 0.26 0  0.2 0.26 0  0.22 0.26 0  0.24 0.26 0  0.26 0.26 0  0.28 0.26 0  0.3 0.26 0  0.32 0.26 0  0.34 0.26 0  0.36 0.26 0  0.38 0.26 0  0.4 0.26 0  0.42 0.26 0  0.44 0.26 0  0.46 0.26 0  0.48 0.26 0  0.5 0.26 0  0.52 0.26 0  0.54 0.26 0  0.5600000000000001 0.26 0  0.58 0.26 0  0.6 0.26 0  0.62 0.26 0  0.64 0.26 0  0.66 0.26 0  0.68 0.26 0  0.7 0.26 0  0.72 0.26 0  0.74 0.26 0  0.76 0.26 0  0.78 0.26 0  0.8 0.26 0  0.82 0.26 0  0.84 0.26 0  0.86 0.26 0  0.88 0.26 0  0.9 0.26 0  0.92 0.26 0  0.9399999999999999 0.26 0  0.96 0.26 0  0.98 0.26 0  1 0.26 0  0 0.28 0  0.02 0.28 0  0.04 0.28 0  0.06 0.28 0  0.08 0.28 0  0.1 0.28 0  0.12 0.28 0  0.14 0.28 0  0.16 0.28 0  0.18 0.28 0  0.2 0.28 0  0.22 0.28 0  0.24 0.28 0  0.26 0.28 0  0.28 0.28 0  0.3 0.28 0  0.32 0.28 0  0.34 0.28 0  0.36 0.28 0  0.38 0.28 0  0.4 0.28 0  0.42 0.28 0  0.44 0.28 0  0.46 0.28 0  0.48 0.28 0  0.5 0.28 0  0.52 0.28 0  0.54 0.28 0  0.5600000000000001 0.28 0  0.58 0.28 0  0.6 0.28 0  0.62 0.28 0  0.64 0.28 0  0.66 0.28 0  0.68 0.28 0  0.7 0.28 0  0.72 0.28 0  0.74 0.28 0  0.76 0.28 0  0.78 0.28 0  0.8 0.28 0  0.82 0.28 0  0.84 0.28 0  0.86 0.28
[...]
<PointData  Scalars="u"> 
<DataArray  type="Float64"  Name="u"  format="ascii">0.0000000000000000e+00  0.0000000000000000e+00  0.0000000000000000e+00  0.0000000000000000e+00  0.0000000000000000e+00  0.0000000000000000e+00  0.0000000000000000e+00  0.0000000000000000e+00  0.0000000000000000e+00  0.0000000000000000e+00  0.0000000000000000e+00  0.0000000000000000e+00  0.0000000000000000e+00  0.0000000000000000e+00  0.0000000000000000e+00  0.0000000000000000e+00  0.0000000000000000e+00  0.0000000000000000e+00  0.0000000000000000e+00  0.0000000000000000e+00  0.0000000000000000e+00  0.0000000000000000e+00  0.0000000000000000e+00  0.0000000000000000e+00  0.0000000000000000e+00  0.0000000000000000e+00  0.0000000000000000e+00  0.0000000000000000e+00  0.0000000000000000e+00  0.0000000000000000e+00  0.0000000000000000e+00  0.0000000000000000e+00  0.0000000000000000e+00  0.0000000000000000e+00  0.0000000000000000e+00  0.0000000000000000e+00  0.0000000000000000e+00  0.0000000000000000e+00  0.0000000000000000e+00  0.0000000000000000e+00  0.0000000000000000e+00  0.0000000000000000e+00  0.0000000000000000e+00  0.0000000000000000e+00  0.0000000000000000e+00  0.0000000000000000e+00  0.0000000000000000e+00  0.0000000000000000e+00  0.0000000000000000e+00  0.0000000000000000e+00  0.0000000000000000e+00  0.0000000000000000e+00  2.4576345832212655e-06  5.0520759775454561e-06  7.7889288633438804e-06  1.0671538447756302e-05  1.3701750086481960e-05  1.6879530909774035e-05  2.0202471137622568e-05  2.3665168135708750e-05  2.7258601590318314e-05  3.0969409664171612e-05  3.4779126825759516e-05  3.8663651331126592e-05  4.2592083260123095e-05  4.6527728683108750e-05  5.0424509767022177e-05  5.4232107733752744e-05  5.7892825334388025e-05  6.1343047314875215e-05  6.4516847753685628e-05  6.7346862441646353e-05  6.9769069730743304e-05  7.1722162084363118e-05  7.3156620170367062e-05  7.4032972564849143e-05  7.4326908788968849e-05  7.4030148227789669e-05  7.3151171861085264e-05  7.1714588047486693e-05  6.9759450446221902e-05  6.7336680340070840e-05  6.4505916090224736e-05  6.1332130892546966e-05  5.7882341716756636e-05  5.4222670774181544e-05  5.0415934405268117e-05  4.6519843496924136e-05  4.2585819885278674e-05  3.8658373736226010e-05  3.4774950359542923e-05  3.0966139260827304e-05  2.7256138747577058e-05  2.3663380549392593e-05  2.0201235634352998e-05  1.6878740785391416e-05  1.3701302905952365e-05  1.0671352862279955e-05  7.7889314128585620e-06  5.0521880584322292e-06  2.4576893052670130e-06  0.0000000000000000e+00  0.0000000000000000e+00  5.0516152149925096e-06  1.0412266670080628e-05  1.6095531068578491e-05  2.2113425847426549e-05  2.8475201990514187e-05  3.5186505217805848e-05  4.2248237444169781e-05  4.9655156472482037e-05  5.7394269964602898e-05  6.5442812109928379e-05  7.3766682790113835e-05  8.2317463789695767e-05  9.1032103833471638e-05  9.9829552965493987e-05  1.0860984179012378e-04  1.1725191921035374e-04  1.2562305594578091e-04  1.3357120688528372e-04  1.4093031272660215e-04  1.4753211648991187e-04  1.5321189570034410e-04  1.5781508516172504e-04  1.6120500048470913e-04  1.6328222295456339e-04  1.6398019412818408e-04  1.6327717359483708e-04  1.6119557151515014e-04  1.5780080872383433e-04  1.5319610963135480e-04  1.4751493261135054e-04  1.4091185181047984e-04  1.3355297132755552e-04  1.2560687112458523e-04  1.1723682952372911e-04  1.0859476534422322e-04  9.9817047745542447e-05  9.1022083250304664e-05  8.2309430289672370e-05  7.3760111835516798e-05  6.5437781673533983e-05  5.7390429124465181e-05  4.9652360535440307e-05  4.2246257706623831e-05  3.5185172849634341e-05  2.8474370701742590e-05  2.2112968539936042e-05  1.6095352857420665e-05  1.0412360129187836e-05  5.0521419201911261e-06  0.0000000000000000e+00  0.0000000000000000e+00  7.7885457054820085e-06  1.6095877804182946e-05  2.4950277374834195e-05  3.4379800216113564e-05  4.4408542543884777e-05  5.5056225788312962e-05  6.6335918467582094e-05  7.8251855929177883e-05  9.0795594098387253e-05  1.0394406344058489e-04  1.1765323692388061e-04  1.3185654394431322e-04  1.4645778258960912e-04  1.6132406008786620e-04  1.7631341012484862e-04  1.9117433544365390e-04  2.0570028470710467e-04  2.1961701102745634e-04  2.3260140979933976e-04  2.4433528391034720e-04  2.5448523829027200e-04  2.6277701671810635e-04  2.6889094100328905e-04  2.7265429880631963e-04  2.7391993439163033e-04  2.7264455805775393e-04  2.6887485887427465e-04  2.6274497420534251e-04  2.5446508542294096e-04  2.4430427897799981e-04  2.3256991091804113e-04  2.1958673561524051e-04  2.0567790036633604e-04  1.9114940800247224e-04  1.7627883463153574e-04  1.6130835916341725e-04  1.4644163586573323e-04  1.3184374508311473e-04  1.1764336253591837e-04  1.0393633689933219e-04  9.0789996846426925e-05  7.8247671345986423e-05  6.6333065950616336e-05  5.5054273861534157e-05  4.4407306323083961e-05  3.4379102399176734e-05  2.4950026142256847e-05  1.6095874471312654e-05  7.7893267740500673e-06  0.0000000000000000e+00  0.0000000000000000e+00  1.0671261823424129e-05  2.2113672426437844e-05  3.4380308743200567e-05  4.7522299205530289e-05  6.1590467043637703e-05  7.6630360683866309e-05  9.2680743973377723e-05  1.0976858918183645e-04  1.2790745567401812e-04  1.4708587131082100e-04  1.6726672540353692e-04  1.8837637544745278e-04  2.1028882769939705e-04  2.3284966665207830e-04  2.5576165412310195e-04  2.7888508502726277e-04  3.0152995888128354e-04  3.2347586664710184e-04  3.4424286545802743e-04  3.6312405099043371e-04  3.7959871714570451e-04  3.9306246577867449e-04  4.0322298018509933e-04  4.0934852065698879e-04  4.1145225832633881e-04  4.0934510424787843e-04  4.0313568438476289e-04  3.9307307945006710e-04  3.7955269438114971e-04  3.6307110324928664e-04  3.4418605103242851e-04  3.2347474347799285e-04  3.0149764491739327e-04  2.7877085384539295e-04  2.5574796457291120e-04  2.3281083390461213e-04  2.1026768387379165e-04  1.8835656596592396e-04  1.6725224652153981e-04  1.4707486748398677e-04  1.2789913697149169e-04  1.0976320357202687e-04  9.2676708292650420e-05  7.6627767178683899e-05  6.1588817153591341e-05  4.7521370163209290e-05  3.4379780748184620e-05  2.2114141879085475e-05  1.0672298491745159e-05  0.0000000000000000e+00  0.0000000000000000e+00  1.3701566043949976e-05  2.8475689459143464e-05  4.4409159433879674e-05  6.1590983682534379e-05  8.0111140994685741e-05  1.0005875719517185e-04  1.2151660110615139e-04  1.4455909417043252e-04  1.6924104177543978e-04  1.9559264559099626e-04  2.2361562719467324e-04  2.5323296639675016e-04  2.8435594288443890e-04  3.1670906475850084e-04  3.5011054759813258e-04  3.8409238837977939e-04  4.1800509797468386e-04  4.5096143688149631e-04  4.8250653059012262e-04  5.1176906012630760e-04  5.3745611892413634e-04  5.5861831951703662e-04  5.7458347940590108e-04  5.8457262838612037e-04  5.8779534782686356e-04  5.8446078584158123e-04  5.7456887016871607e-04  5.5865086332874882e-04  5.3740245143951162e-04  5.1171555827889419e-04  4.8257108517341828e-04  4.5095613851280021e-04  4.1779991896712354e-04  3.8392819690401438e-04  3.5003792612513517e-04  3.1668911527901972e-04  2.8430952816053978e-04  2.5320760961570511e-04  2.2358965969006259e-04  1.9557826314989279e-04  1.6922998939003237e-04  1.4455122819739900e-04  1.2151165740154688e-04  1.0005525714626574e-04  8.0109032474692126e-05  6.1589728562934533e-05  4.4408861796497838e-05  2.8476362043036535e-05  1.3702931050130756e-05  0.0000000000000000e+00  0.0000000000000000e+00  1.6879448277837721e-05  3.5187215886104092e-05  5.5056990669954473e-05  7.6631328969793618e-05  1.0005919034029550e-04  1.2549552366865183e-04  1.5309751991673641e-04  1.8301491904356120e-04  2.1538060187577151e-04  2.5034142092508120e-04  2.8789424653082610e-04  3.2816589369942517e-04  3.7095621657578864e-04  4.1617934453251360e-04  4.6336072513552661e-04  5.1147927130672536e-04  5.6373124852415757e-04  6.1000856459709433e-04  6.5679638037777243e-04  7.0260050477635770e-04  7.4206512015066077e-04  7.7498172209511797e-04  7.9869911176952836e-04  8.1743686626227355e-04  8.2065114351905584e-04  8.1581449422831235e-04  8.0022845187070703e-04  7.7516442319389882e-04  7.4199326273616262e-04  7.0235873176340772e-04  6.5795644391867896e-04  6.1045501162875729e-04  5.6136362488985357e-04  5.1196229548635796e-04  4.6327454574058056e-04  4.1607152420099376e-04  3.7089655357028538e-04  3.2810006040779796e-04  2.8787742143679640e-04  2.5030494589475919e-04  2.1537142825363151e-04  1.8300428563004196e-04  1.5309028346943313e-04  1.2549138634476221e-04  1.0005649448391542e-04  7.6629862526200840e-05  5.5056930168603128e-05  3.5188162452072515e-05  1.6881190229950454e-05  0.0000000000000000e+00  0.0000000000000000e+00  2.0202479381369210e-05  4.2249176306445519e-05  6.6337038720146622e-05  9.2681702862904003e-05  1.2151785123728995e-04  1.5309765671494820e-04  1.8768876949575551e-04  2.2556694097471917e-04  2.6703776069745053e-04  3.1225064064655824e-04  3.6173594653444405e-04  4.1529131010682952e-04  4.7312259567696335e-04  5.3545760599972851e-04  6.0112430041335703e-04  6.7222126851008317e-04  7.3761753046575236e-04  8.2746730069130283e-04  8.8542568172334034e-04  9.4507785653955695e-04  1.0158189216000202e-03  1.0692515975848748e-03  1.1086453796811770e-03  1.1245069653727914e-03  1.1522056537127750e-03  1.1330305029053995e-03  1.1093044323030633e-03  1.0685824685937656e-03  1.0163815946576179e-03  9.5456479614789531e-04  8.8642950126436757e-04  8.1484316728065167e-04  7.4223730646356956e-04  6.7054628195560085e-04  6.0120030185391337e-04  5.3517571986623144e-04  4.7307093527294397e-04  4.1518864456162411e-04  3.6161260299843952e-04  3.1227297224675847e-04  2.6699849792088861e-04  2.2555616967712271e-04  1.8768014203656910e-04  1.5309202369679086e-04  1.2151454415537437e-04  9.2680317979142691e-05  6.6337084233632424e-05  4.2250448905032433e-05  2.0204659283190254e-05  0.0000000000000000e+00  0.0000000000000000e+00  2.3665260408039019e-05  4.9656333890914144e-05  7.8253156237634861e-05  1.0977018145680047e-04  1.4456002715009298e-04  1.8301563778028539e-04  2.2556806081088348e-04  2.7271181088724372e-04  3.2486736886750415e-04  3.8281035154748972e-04  4.4671160660614766e-04  5.1712940812653231e-04  5.9609633628551566e-04  6.7950812687442167e-04  7.7317882305388645e-04  8.6729997576452254e-04  9.8388574624609648e-04  1.0990382619497773e-03  1.1969177314749364e-03  1.2980751555496694e-03  1.3901919042511547e-03  1.4770086202540505e-03  1.5436317471542104e-03  1.5834715997257568e-03  1.6085948281079334e-03  1.5972735666405986e-03  1.5537944501808282e-03  1.4926760214790614e-03  1.4026707971766443e-03  1.3022581392071731e-03  1.1948668339242807e-03  1.0848083350100783e-03  9.7595991873606865e-04  8.7109585900161464e-04  7.7203562690087910e-04  6.7981358056862554e-04  5.9487014023738491e-04  5.1722868576277762e-04  4.4663975792403482e-04  3.8269014973755383e-04  3.2488091228085502e-04  2.7268042697371867e-04  2.2555873399237512e-04  1.8300842593546812e-04  1.4455627919410924e-04  1.0976872263831374e-04  7.8253351635363633e-05  4.9657978553101548e-05  2.3667942934760931e-05  0.0000000000000000e+00  0.0000000000000000e+00  2.7258756533394069e-05  5.7395643721966440e-05  9.0797287404376819e-05  1.2790870419609722e-04  1.6924241444973980e-04  2.1538558545916621e-04  2.6702478924673653e-04  3.2488430236070830e-04  3.9003286029650462e-04  4.6302444390239632e-04  5.4452165479387956e-04  6.4091165100927077e-04  7.3891384819895346e-04  8.6296170404571537e-04  9.9153780368457204e-04  1.1341575278890929e-03  1.2667979100198653e-03  1.3752096424168969e-03  2.0916882226315516e-03  1.6249775946560619e-03  1.6517907609248173e-03  2.1714943102758345e-03  2.2810083813007238e-03  2.2676529172873617e-03  2.0995592645517156e-03  2.7030291993851846e-03  2.1782914550136433e-03  2.1079274185907665e-03  1.9664290721619327e-03  1.8077367634458633e-03  1.6309065943389779e-03  1.4556668336489175e-03  1.2878654318014898e-03  1.1313393613945756e-03  9.8795172673656019e-04  8.5820117048396620e-04  7.4175135446960397e-04  6.3778468247542607e-04  5.4524365777185028e-04  4.6298781196292283e-04  3.8988904672667541e-04  3.2488492932421248e-04  2.6700475838595928e-04  2.1537882398106113e-04  1.6923783874625182e-04  1.2790703008735103e-04  9.0797677589808960e-05  5.7397718451922886e-05  2.7262013228911958e-05  0.0000000000000000e+00  0.0000000000000000e+00  3.0969596310192869e-05  6.5444447994027690e-05  1.0394575655460558e-04  1.4708751248943393e-04  1.9559437050638433e-04  2.5032994703818136e-04  3.1229543131817131e-04  3.8274792831876400e-04  4.6300493647760687e-04  5.5490497300940726e-04  6.6326910638421532e-04  7.7141477382870239e-04  9.3841182921477649e-04  1.0907348522418943e-03  1.2542396317847542e-03  1.5280539861786944e-03  1.7365705380639829e-03  2.0977231569456619e-03  1.0755711640980455e-03  4.9711175982100177e-03  3.6512969588964545e-03  1.6465574470555570e-03  2.8693020804676206e-03  3.5005723798272395e-03  3.3901358845870285e-03  1.3117941741688222e-03  4.5727467308295053e-03  3.2723026324108541e-03  3.1721378125632916e-03  2.6275172562292186e-03  2.2987879484069836e-03  1.9953517148911075e-03  1.7223205021921846e-03  1.4803237061273798e-03  1.2677266440435291e-03  1.0823114097810753e-03  9.2124702616802427e-04  7.8152648078471125e-04  6.6026790357207607e-04  5.5485664507315391e-04  4.6299463388792955e-04  3.8270029581285563e-04  3.1228446345478092e-04  2.5031668856718715e-04  1.9558967749063144e-04  1.4708566958998375e-04  1.0394639081025827e-04  6.5447000870499201e-05  3.0973503384645595e-05  0.0000000000000000e+00  0.0000000000000000e+00  3.4779334087567934e-05  7.3768365270665252e-05  1.1765543239791141e-04  1.6726854532280030e-04  2.2361212063334127e-04  2.8790272810412862e-04  3.6165433509303680e-04  4.4678173364920973e-04  5.4510371379356323e-04  6.6178308590402032e-04  7.8967088833828880e-04  9.7468595312643052e-04  1.1325122221260704e-03  1.3210732457499352e-03  1.8690350383640324e-03  1.8554149586793229e-03  2.5209694390336658e-03  2.9695882797538143e-03  6.0764907847916539e-03  3.3352057230163212e-03  -3.6690516155040509e-03  4.7518390412132462e-03  1.0444581085888317e-02  8.8264176144437750e-03  8.7037070960636065e-03  1.0760661883434733e-02  1.0403108505678996e-02  2.3408183624491759e-03  2.3504379896332138e-03  3.8102935531422813e-03  3.3429882546810283e-03  2.8175098412397646e-03  2.3620740895702618e-03  1.9691914869193845e-03  1.6418851143573353e-03  1.3702442714215988e-03  1.1440104031909674e-03  9.5465655666016926e-04  7.9526529300212459e-04  6.6028082651682434e-04  5.4526169393048025e-04  4.4665906691820098e-04  3.6163137335513403e-04  2.8789487680854864e-04  2.2360554407535406e-04  1.6726655669205992e-04  1.1765618757658138e-04  7.3771525346198302e-05  3.4783979545515212e-05  0.0000000000000000e+00  0.0000000000000000e+00  3.8663755411602465e-05  8.2319525018092649e-05  1.3185833423855927e-04  1.8837698728712857e-04  2.5323869032927994e-04  3.2814566862390322e-04  4.1524998608078085e-04  5.1706196522559387e-04  6.3905351452160912e-04  7.7979403612326150e-04  9.7002748590902725e-04  1.1403466506410408e-03  1.3475054350152648e-03  2.3273739073226278e-03  1.3545159982122144e-03  3.3186251894339238e-03  3.9182060318565344e-03  3.6536014405212009e-03  5.7488216237300419e-03  2.7349557717898262e-02  1.4624991508873769e-01  -1.9451683588209770e-02  -9.4587213473618703e-02  -2.2015730931365940e-02  -1.6906515763073792e-02  -4.4955203122056912e-02  -6.1089079089998506e-02  9.6012290287962529e-02  2.2402680949191386e-02  1.5376901860433322e-02  6.1871018141062472e-03  4.6428693894320092e-03  3.4307461927005531e-03  2.6963107411655616e-03  2.1631919104349471e-03  1.7506355857897626e-03  1.4255498011878206e-03  1.1655371272028777e-03  9.5468511262107537e-04  7.8156290088023084e-04  6.3782075114798701e-04  5.1726145663630384e-04  4.1521737620822408e-04  3.2812489532893562e-04  2.5322900044806476e-04  1.8837503150060365e-04  1.3185974937010298e-04  8.2323297038355546e-05  3.8669233398488184e-05  0.0000000000000000e+00  0.0000000000000000e+00  4.2592238604741937e-05  9.1034045152211447e-05  1.4645978531096316e-04  2.1029331919489728e-04  2.8433521457451249e-04  3.7096680350308397e-04  4.7319295686741060e-04  5.9539415336338597e-04  7.4026916676947550e-04  9.2414430153740334e-04  1.1531079968695979e-03  1.4878726673145171e-03  2.0924562693466209e-03  3.9706284016261353e-04  7.2705833697751989e-03  5.9589757969827897e-03  1.0837942742741573e-05  1.2150141400475526e-02  -4.0377239780284516e-03  -6.8853734626516169e-03  5.5711044015243787e-02  2.8138781641048749e-01  1.6404371759895953e+00  4.6020495851934473e-01  3.9158868237258976e-01  4.6534514789723147e-01  1.3559402610153990e+00  2.4100313472649867e-01  3.4747947218065178e-02  -1.0568625555326652e-01  1.2454843463839094e-02  3.7859830317231104e-03  4.7837106636314936e-03  3.8750158323599387e-03  2.9357306169017442e-03  2.2715576503135122e-03  1.7892163772998929e-03  1.4256283738291805e-03  1.1440991175987679e-03  9.2132526258303178e-04  7.4181595992472928e-04  5.9492237030002915e-04  4.7311305836055429e-04  3.7093073930541929e-04  2.8433756635645713e-04  2.1029097192761729e-04  1.4646121594753757e-04  9.1038642377931465e-05  4.2598656524153023e-05  0.0000000000000000e+00  0.0000000000000000e+00  4.6527262990531916e-05  9.9830960331821062e-05  1.6132963219981015e-04  2.3284149179118155e-04  3.1674906341525868e-04  4.1606709673310677e-04  5.3518788217488795e-04  6.8000651123816599e-04  8.6145090655478896e-04  1.0938159687738803e-03  1.3232477598540495e-03  2.0010325375271238e-03  2.2614112160244098e-03  7.8804105442221023e-03  -1.6520422167969127e-04  5.4877857782308732e-03  9.3476255671576400e-02  6.5021733098570150e-02  4.5869450923060501e-01  1.2340590101238866e+00  1.3252356638597269e+00  6.1634016601797481e-01  7.3569871038971307e-02  1.4695095169184362e+00  3.8284804757350555e-01  3.9913521303395261e-01  3.4125174054819352e-01  1.2364126463425040e+00  5.0549671973698118e-01  7.7924070532714362e-01  3.9598818086571813e-01  6.6487877765670889e-02  1.9190192737876307e-02  6.3668633358509759e-03  4.1325778083099330e-03  3.0184919960436034e-03  2.2720267331589128e-03  1.7509319040902925e-03  1.3704565035120315e-03  1.0824635102502651e-03  8.5831044469269070e-04  6.7989350186728481e-04  5.3523550097276144e-04  4.1611730209918185e-04  3.1672499393080951e-04  2.3283958965360159e-04  1.6133187260704287e-04  9.9836502889570573e-05  4.6534775939242714e-05  0.0000000000000000e+00  0.0000000000000000e+00  5.0424341151642401e-05  1.0861057111286076e-04  1.7630279020568380e-04  2.5578475963647200e-04  3.5007977133477415e-04  4.6345398017085454e-04  6.0152864267604968e-04  7.7013024854983604e-04  9.8323190035995520e-04  1.2577791152135513e-03  1.8897382070844988e-03  1.9039972076069116e-03  5.0517935557254220e-03  5.2297011242423896e-03  3.5222065014537923e-02  1.7999577386949267e-01  3.8383714193340121e-02  1.1046143575847616e+00  6.6312187810627077e-01  5.2222501295022139e-01  6.2727664268945760e-01  9.5724971947711779e-01  8.3701005404259632e-01  7.6685005713162224e-01  9.7008356289948761e-01  4.3699424361122530e-01  4.7709990926149215e-01  8.1025631710641632e-01  8.2381897732959364e-01  5.9430735396990331e-01  1.1718015077331578e+00  8.6173773787982000e-01  -1.1076055495532840e-01  6.4966171209630960e-03  6.9013168621592956e-03  4.1978141294432402e-03  2.9323538009608202e-03  2.1641515999464649e-03  1.6423667515202502e-03  1.2680115821945637e-03  9.8813045295794094e-04  7.7215441758848760e-04  6.0128289716786742e-04  4.6333434729453491e-04  3.5008281232091310e-04  2.5578275904801116e-04  1.7630657056600180e-04  1.0861727044460429e-04  5.0433047205289234e-05  0.0000000000000000e+00  0.0000000000000000e+00  5.4231825038057739e-05  1.1725444259146863e-04  1.9117826734106104e-04  2.7880857069494135e-04  3.8397824861781914e-04  5.1198894749562905e-04  6.7034311310440887e-04  8.7818251542569543e-04  1.1240965806304584e-03  1.4057652123448327e-03  1.5674410230070031e-03  3.7408494629358469e-03  7.76820393461