<?xml version="1.0"?>
<VTKFile type="UnstructuredGrid"  version="0.1"  >
<UnstructuredGrid>
<Piece  NumberOfPoints="10201" NumberOfCells="20000">
<Points>
<DataArray  type="Float64"  NumberOfComponents="3"  format="ascii">0 0 0  0.01 0 0  0.02 0 0  0.03 0 0  0.04 0 0  0.05 0 0  0.06 0 0  0.07000000000000001 0 0  0.08 0 0  0.09 0 0  0.1 0 0  0.11 0 0  0.12 0 0  0.13 0 0  0.14 0 0  0.15 0 0  0.16 0 0  0.17 0 0  0.18 0 0  0.19 0 0  0.2 0 0  0.21 0 0  0.22 0 0  0.23 0 0  0.24 0 0  0.25 0 0  0.26 0 0  0.27 0 0  0.28 0 0  0.29 0 0  0.3 0 0  0.31 0 0  0.32 0 0  0.33 0 0  0.34 0 0  0.35 0 0  0.36 0 0  0.37 0 0  0.38 0 0  0.39 0 0  0.4 0 0  0.41 0 0  0.42 0 0  0.43 0 0  0.44 0 0  0.45 0 0  0.46 0 0  0.47 0 0  0.48 0 0  0.49 0 0  0.5 0 0  0.51 0 0  0.52 0 0  0.53 0 0  0.54 0 0  0.55 0 0  0.5600000000000001 0 0  0.57 0 0  0.58 0 0  0.59 0 0  0.6 0 0  0.61 0 0  0.62 0 0  0.63 0 0  0.64 0 0  0.65 0 0  0.66 0 0  0.67 0 0  0.68 0 0  0.6899999999999999 0 0  0.7 0 0  0.71 0 0  0.72 0 0  0.73 0 0  0.74 0 0  0.75 0 0  0.76 0 0  0.77 0 0  0.78 0 0  0.79 0 0  0.8 0 0  0.8100000000000001 0 0  0.82 0 0  0.83 0 0  0.84 0 0  0.85 0 0  0.86 0 0  0.87 0 0  0.88 0 0  0.89 0 0  0.9 0 0  0.91 0 0  0.92 0 0  0.93 0 0  0.9399999999999999 0 0  0.95 0 0  0.96 0 0  0.97 0 0  0.98 0 0  0.99 0 0  1 0 0  0 0.01 0  0.01 0.01 0  0.02 0.01 0  0.03 0.01 0  0.04 0.01 0  0.05 0.01 0  0.06 0.01 0  0.07000000000000001 0.01 0  0.08 0.01 0  0.09 0.01 0  0.1 0.01 0  0.11 0.01 0  0.12 0.01 0  0.13 0.01 0  0.14 0.01 0  0.15 0.01 0  0.16 0.01 0  0.17 0.01 0  0.18 0.01 0  0.19 0.01 0  0.2 0.01 0  0.21 0.01 0  0.22 0.01 0  0.23 0.01 0  0.24 0.01 0  0.25 0.01 0  0.26 0.01 0  0.27 0.01 0  0.28 0.01 0  0.29 0.01 0  0.3 0.01 0  0.31 0.01 0  0.32 0.01 0  0.33 0.01 0  0.34 0.01 0  0.35 0.01 0  0.36 0.01 0  0.37 0.01 0  0.38 0.01 0  0.39 0.01 0  0.4 0.01 0  0.41 0.01 0  0.42 0.01 0  0.43 0.01 0  0.44 0.01 0  0.45 0.01 0  0.46 0.01 0  0.47 0.01 0  0.48 0.01 0  0.49 0.01 0  0.5 0.01 0  0.51 0.01 0  0.52 0.01 0  0.53 0.01 0  0.54 0.01 0  0.55 0.01 0  0.5600000000000001 0.01 0  0.57 0.01 0  0.58 0.01 0  0.59 0.01 0  0.6 0.01 0  0.61 0.01 0  0.62 0.01 0  0.63 0.01 0  0.64 0.01 0  0.65 0.01 0  0.66 0.01 0  0.67 0.01 0  0.68 0.01 0  0.6899999999999999 0.01 0  0.7 0.01 0  0.71 0.01 0  0.72 0.01 0  0.73 0.01 0  0.74 0.01 0  0.75 0.01 0  0.76 0.01 0  0.77 0.01 0  0.78 0.01 0  0.79 0.01 0  0.8 0.01 0  0.8100000000000001 0.01 0  0.82 0.01 0  0.83 0.01 0  0.84 0.01 0  0.85 0.01 0  0.86 0.01 0  0.87 0.01 0  0.88 0.01 0  0.89 0.01 0  0.9 0.01 0  0.91 0.01 0  0.92 0.01 0  0.93 0.01 0  0.9399999999999999 0.01 0  0.95 0.01 0  0.96 0.01 0  0.97 0.01 0  0.98 0.01 0  0.99 0.01 0  1 0.01 0  0 0.02 0  0.01 0.02 0  0.02 0.02 0  0.03 0.02 0  0.04 0.02 0  0.05 0.02 0  0.06 0.02 0  0.07000000000000001 0.02 0  0.08 0.02 0  0.09 0.02 0  0.1 0.02 0  0.11 0.02 0  0.12 0.02 0  0.13 0.02 0  0.14 0.02 0  0.15 0.02 0  0.16 0.02 0  0.17 0.02 0  0.18 0.02 0  0.19 0.02 0  0.2 0.02 0  0.21 0.02 0  0.22 0.02 0  0.23 0.02 0  0.24 0.02 0  0.25 0.02 0  0.26 0.02 0  0.27 0.02 0  0.28 0.02 0  0.29 0.02 0  0.3 0.02 0  0.31 0.02 0  0.32 0.02 0  0.33 0.02 0  0.34 0.02 0  0.35 0.02 0  0.36 0.02 0  0.37 0.02 0  0.38 0.02 0  0.39 0.02 0  0.4 0.02 0  0.41 0.02 0  0.42 0.02 0  0.43 0.02 0  0.44 0.02 0  0.45 0.02 0  0.46 0.02 0  0.47 0.02 0  0.48 0.02 0  0.49 0.02 0  0.5 0.02 0  0.51 0.02 0  0.52 0.02 0  0.53 0.02 0  0.54 0.02 0  0.55 0.02 0  0.5600000000000001 0.02 0  0.57 0.02 0  0.58 0.02 0  0.59 0.02 0  0.6 0.02 0  0.61 0.02 0  0.62 0.02 0  0.63 0.02 0  0.64 0.02 0  0.65 0.02 0  0.66 0.02 0  0.67 0.02 0  0.68 0.02 0  0.6899999999999999 0.02 0  0.7 0.02 0  0.71 0.02 0  0.72 0.02 0  0.73 0.02 0  0.74 0.02 0  0.75 0.02 0  0.76 0.02 0  0.77 0.02 0  0.78 0.02 0  0.79 0.02 0  0.8 0.02 0  0.8100000000000001 0.02 0  0.82 0.02 0  0.83 0.02 0  0.84 0.02 0  0.85 0.02 0  0.86 0.02 0  0.87 0.02 0  0.88 0.02 0  0.89 0.02 0  0.9 0.02 0  0.91 0.02 0  0.92 0.02 0  0.93 0.02 0  0.9399999999999999 0.02 0  0.95 0.02 0  0.96 0.02 0  0.97 0.02 0  0.98 0.02 0  0.99 0.02 0  1 0.02 0  0 0.03 0  0.01 0.03 0  0.02 0.03 0  0.03 0.03 0  0.04 0.03 0  0.05 0.03 0  0.06 0.03 0  0.07000000000000001 0.03 0  0.08 0.03 0  0.09 0.03 0  0.1 0.03 0  0.11 0.03 0  0.12 0.03 0  0.13 0.03 0  0.14 0.03 0  0.15 0.03 0  0.16 0.03 0  0.17 0.03 0  0.18 0.03 0  0.19 0.03 0  0.2 0.03 0  0.21 0.03 0  0.22 0.03 0  0.23 0.03 0  0.24 0.03 0  0.25 0.03 0  0.26 0.03 0  0.27 0.03 0  0.28 0.03 0  0.29 0.03 0  0.3 0.03 0  0.31 0.03 0  0.32 0.03 0  0.33 0.03 0  0.34 0.03 0  0.35 0.03 0  0.36 0.03 0  0.37 0.03 0  0.38 0.03 0  0.39 0.03 0  0.4 0.03 0  0.41 0.03 0  0.42 0.03 0  0.43 0.03 0  0.44 0.03 0  0.45 0.03 0  0.46 0.03 0  0.47 0.03 0  0.48 0.03 0  0.49 0.03 0  0.5 0.03 0  0.51 0.03 0  0.52 0.03 0  0.53 0.03 0  0.54 0.03 0  0.55 0.03 0  0.5600000000000001 0.03 0  0.57 0.03 0  0.58 0.03 0  0.59 0.03 0  0.6 0.03 0  0.61 0.03 0  0.62 0.03 0  0.63 0.03 0  0.64 0.03 0  0.65 0.03 0  0.66 0.03 0  0.67 0.03 0  0.68 0.03 0  0.6899999999999999 0.03 0  0.7 0.03 0  0.71 0.03 0  0.72 0.03 0  0.73 0.03 0  0.74 0.03 0  0.75 0.03 0  0.76 0.03 0  0.77 0.03 0  0.78 0.03 0  0.79 0.03 0  0.8 0.03 0  0.8100000000000001 0.03 0  0.82 0.03 0  0.83 0.03 0  0.84 0.03 0  0.85 0.03 0  0.86 0.03 0  0.87 0.03 0  0.88 0.03 0  0.89 0.03 0  0.9 0.03 0  0.91 0.03 0  0.92 0.03 0  0.93 0.03 0  0.9399999999999999 0.03 0  0.95 0.03 0  0.96 0.03 0  0.97 0.03 0  0.98 0.03 0  0.99 0.03 0  1 0.03 0  0 0.04 0  0.01 0.04 0  0.02 0.04 0  0.03 0.04 0  0.04 0.04 0  0.05 0.04 0  0.06 0.04 0  0.07000000000000001 0.04 0  0.08 0.04 0  0.09 0.04 0  0.1 0.04 0  0.11 0.04 0  0.12 0.04 0  0.13 0.04 0  0.14 0.04 0  0.15 0.04 0  0.16 0.04 0  0.17 0.04 0  0.18 0.04 0  0.19 0.04 0  0.2 0.04 0  0.21 0.04 0  0.22 0.04 0  0.23 0.04 0  0.24 0.04 0  0.25 0.04 0  0.26 0.04 0  0.27 0.04 0  0.28 0.04 0  0.29 0.04 0  0.3 0.04 0  0.31 0.04 0  0.32 0.04 0  0.33 0.04 0  0.34 0.04 0  0.35 0.04 0  0.36 0.04 0  0.37 0.04 0  0.38 0.04 0  0.39 0.04 0  0.4 0.04 0  0.41 0.04 0  0.42 0.04 0  0.43 0.04 0  0.44 0.04 0  0.45 0.04 0  0.46 0.04 0  0.47 0.04 0  0.48 0.04 0  0.49 0.04 0  0.5 0.04 0  0.51 0.04 0  0.52 0.04 0  0.53 0.04 0  0.54 0.04 0  0.55 0.04 0  0.5600000000000001 0.04 0  0.57 0.04 0  0.58 0.04 0  0.59 0.04 0  0.6 0.04 0  0.61 0.04 0  0.62 0.04 0  0.63 0.04 0  0.64 0.04 0  0.65 0.04 0  0.66 0.04 0  0.67 0.04 0  0.68 0.04 0  0.6899999999999999 0.04 0  0.7 0.04 0  0.71 0.04 0  0.72 0.04 0  0.73 0.04 0  0.74 0.04 0  0.75 0.04 0  0.76 0.04 0  0.77 0.04 0  0.78 0.04 0  0.79 0.04 0  0.8 0.04 0  0.8100000000000001 0.04 0  0.82 0.04 0  0.83 0.04 0  0.84 0.04 0  0.85 0.04 0  0.86 0.04 0  0.87 0.04 0  0.88 0.04 0  0.89 0.04 0  0.9 0.04 0  0.91 0.04 0  0.92 0.04 0  0.93 0.04 0  0.9399999999999999 0.04 0  0.95 0.04 0  0.96 0.04 0  0.97 0.04 0  0.98 0.04 0  0.99 0.04 0  1 0.04 0  0 0.05 0  0.01 0.05 0  0.02 0.05 0  0.03 0.05 0  0.04 0.05 0  0.05 0.05 0  0.06 0.05 0  0.07000000000000001 0.05 0  0.08 0.05 0  0.09 0.05 0  0.1 0.05 0  0.11 0.05 0  0.12 0.05 0  0.13 0.05 0  0.14 0.05 0  0.15 0.05 0  0.16 0.05 0  0.17 0.05 0  0.18 0.05 0  0.19 0.05 0  0.2 0.05 0  0.21 0.05 0  0.22 0.05 0  0.23 0.05 0  0.24 0.05 0  0.25 0.05 0  0.26 0.05 0  0.27 0.05 0  0.28 0.05 0  0.29 0.05 0  0.3 0.05 0  0.31 0.05 0  0.32 0.05 0  0.33 0.05 0  0.34 0.05 0  0.35 0.05 0  0.36 0.05 0  0.37 0.05 0  0.38 0.05 0  0.39 0.05 0  0.4 0.05 0  0.41 0.05 0  0.42 0.05 0  0.43 0.05 0  0.44 0.05 0  0.45 0.05 0  0.46 0.05 0  0.47 0.05 0  0.48 0.05 0  0.49 0.05 0  0.5 0.05 0  0.51 0.05 0  0.52 0.05 0  0.53 0.05 0  0.54 0.05 0  0.55 0.05 0  0.5600000000000001 0.05 0  0.57 0.05 0  0.58 0.05 0  0.59 0.05 0  0.6 0.05 0  0.61 0.05 0  0.62 0.05 0  0.63 0.05 0  0.64 0.05 0  0.65 0.05 0  0.66 0.05 0  0.67 0.05 0  0.68 0.05 0  0.6899999999999999 0.05 0  0.7 0.05 0  0.71 0.05 0  0.72 0.05 0  0.73 0.05 0  0.74 0.05 0  0.75 0.05 0  0.76 0.05 0  0.77 0.05 0  0.78 0.05 0  0.79 0.05 0  0.8 0.05 0  0.8100000000000001 0.05 0  0.82 0.05 0  0.83 0.05 0  0.84 0.05 0  0.85 0.05 0  0.86 0.05 0  0.87 0.05 0  0.88 0.05 0  0.89 0.05 0  0.9 0.05 0  0.91 0.05 0  0.92 0.05 0  0.93 0.05 0  0.9399999999999999 0.05 0  0.95 0.05 0  0.96 0.05 0  0.97 0.05 0  0.98 0.05 0  0.99 0.05 0  1 0.05 0  0 0.06 0  0.01 0.06 0  0.02 0.06 0  0.03 0.06 0  0.04 0.06 0  0.05 0.06 0  0.06 0.06 0  0.07000000000000001 0.06 0  0.08 0.06 0  0.09 0.06 0  0.1 0.06 0  0.11 0.06 0  0.12 0.06 0  0.13 0.06 0  0.14 0.06 0  0.15 0.06 0  0.16 0.06 0  0.17 0.06 0  0.18 0.06 0  0.19 0.06 0  0.2 0.06 0  0.21 0.06 0  0.22 0.06 0  0.23 0.06 0  0.24 0.06 0  0.25 0.06 0  0.26 0.06 0  0.27 0.06 0  0.28 0.06 0  0.29 0.06 0  0.3 0.06 0  0.31 0.06 0  0.32 0.06 0  0.33 0.06 0  0.34 0.06 0  0.35 0.06 0  0.36 0.06 0  0.37 0.06 0  0.38 0.06 0  0.39 0.06 0  0.4 0.06 0  0.41 0.06 0  0.42 0.06 0  0.43 0.06 0  0.44 0.06 0  0.45 0.06 0  0.46 0.06 0  0.47 0.06 0  0.48 0.06 0  0.49 0.06 0  0.5 0.06 0  0.51 0.06 0  0.52 0.06 0  0.53 0.06 0  0.54 0.06 0  0.55 0.06 0  0.5600000000000001 0.06 0  0.57 0.06 0  0.58 0.06 0  0.59 0.06 0  0.6 0.06 0  0.61 0.06 0  0.62 0.06 0  0.63 0.06 0  0.64 0.06 0  0.65 0.06 0  0.66 0.06 0  0.67 0.06 0  0.68 0.06 0  0.6899999999999999 0.06 0  0.7 0.06 0  0.71 0.06 0  0.72 0.06 0  0.73 0.06 0  0.74 0.06 0  0.75 0.06 0  0.76 0.06 0  0.77 0.06 0  0.78 0.06 0  0.79 0.06 0  0.8 0.06 0  0.8100000000000001 0.06 0  0.82 0.06 0  0.83 0.06 0  0.84 0.06 0  0.85 0.06 0  0.86 0.06 0  0.87 0.06 0  0.88 0.06 0  0.89 0.06 0  0.9 0.06 0  0.91 0.06 0  0.92 0.06 0  0.93 0.06 0  0.9399999999999999 0.06 0  0.95 0.06 0  0.96 0.06 0  0.97 0.06 0  0.98 0.06 0  0.99 0.06 0  1 0.06 0  0 0.07000000000000001 0  0.01 0.07000000000000001 0  0.02 0.07000000000000001 0  0.03 0.07000000000000001 0  0.04 0.07000000000000001 0  0.05 0.07000000000000001 0  0.06 0.07000000000000001 0  0.07000000000000001 0.07000000000000001 0  0.08 0.07000000000000001 0  0.09 0.07000000000000001 0  0.1 0.07000000000000001 0  0.11 0.07000000000000001 0  0.12 0.07000000000000001 0  0.13 0.07000000000000001 0  0.14 0.07000000000000001 0  0.15 0.07000000000000001 0  0.16 0.07000000000000001 0  0.17 0.0700
[...]
<PointData  Scalars="Indicator Function"> 
<DataArray  type="Float64"  Name="Indicator Function"  format="ascii">-4.5954271365416139e-19  1.5067063026778697e-18  3.2821767581950419e-17  1.0852129319758285e-18  8.3569594077056389e-17  -1.8321206990220230e-19  -6.4543171006011946e-20  3.5443788204801864e-17  1.4837497461794961e-16  -2.4559420368441123e-19  5.7093650956916051e-17  4.6373821468269682e-17  -2.2792516071027758e-20  -6.0999483482197695e-19  3.1967830599189133e-16  3.8518598887744717e-34  -4.5330581891507320e-19  3.5507013746315841e-16  -7.8039557989723406e-19  -9.9979684900980155e-19  8.3381707128635480e-16  -1.8974385168410387e-18  -9.9016229958321479e-19  4.8517952679578043e-17  -3.2694367584500260e-19  -8.3195324717611791e-19  -8.0138326747276553e-19  -9.0027789401955810e-19  1.2279080922090301e-15  -1.2828033275871623e-18  -2.8922782100257997e-18  -1.4461391050129000e-18  -1.4086590798168763e-18  -1.7499804971900399e-18  7.8605568650546648e-17  -7.2006468384759695e-19  -3.6052381277496833e-18  -6.1917122004962601e-18  -6.9391282150235630e-18  -5.6899364904595108e-18  7.4781875987341644e-16  -4.6360242319727795e-20  -1.3753251895381391e-18  -1.2362359457231630e-18  -1.6331030404105022e-18  -8.1655152020521641e-19  1.9300300510693811e-16  -8.1526249180360983e-19  -2.8563855181950926e-19  -5.2989534868247701e-19  -2.6494767434123865e-19  -3.8603418751525922e-19  -8.7665797008166633e-20  -5.5897926547229466e-19  -2.7998118456740601e-19  -1.8537075714727145e-33  1.4298103907130839e-30  -7.6650681880387582e-20  -3.3516652964420461e-20  -4.5311212245985402e-20  -1.3255563136407745e-21  -8.7036368601367506e-20  -3.9243042423405235e-20  -3.2072660464208255e-20  -4.3041384111828020e-20  -4.9488561428164109e-20  -2.4707404924990514e-20  -1.2939841813851741e-34  2.5071002355757121e-17  -5.2563827445821516e-20  -1.5287340384401395e-20  -4.6162694221234641e-21  -2.6193048282284109e-21  -1.0065907651916548e-19  -1.5628203500626014e-19  -8.4215264229361265e-20  -2.6432302820588369e-20  -6.6578829065969617e-20  -6.9896677594817365e-20  -5.8081585339505205e-20  -2.0934403487883908e-20  4.7967233988100105e-17  -1.6232589461843992e-21  -9.0558995418864995e-20  -8.2693593279219809e-20  -5.6694844799081359e-20  -1.1071685973268580e-21  -2.2757181605951755e-20  -2.8559916548272034e-20  -7.4697457213140203e-21  -3.9822326408572838e-22  -6.4306647882137484e-22  -1.1368823856285746e-20  6.7653964227394363e-18  -9.2216281644567903e-21  -5.0994044594886451e-21  -7.0428754846903147e-23  -5.6445410659940736e-22  -1.2702884398960678e-21  -2.3509887016445750e-37  5.6423728839469800e-37  -1.9259299443872359e-34  1.6728104169079216e-02  3.0362260425202868e-02  6.4232088669935582e-03  8.8760501235717170e-03  1.9889127769397619e-03  2.3254128071358076e-03  1.3557494731930902e-03  2.6447277791481379e-02  2.4388708106590985e-02  4.4242318567898412e-03  3.3096014982187519e-02  8.2118693507453289e-04  2.1977380086416917e-02  1.7410551854021517e-02  4.0521911619822701e-02  1.6332063337206840e-02  8.3773001559912536e-04  2.8116713942614124e-02  3.6021477733173365e-02  2.5975881127728539e-02  4.3607578592376427e-02  3.4181213589614907e-02  1.7837178253757285e-02  1.1779387333653552e-02  2.9974274671776317e-02  2.8872875078170365e-02  1.6614411123597166e-02  7.9107591903467556e-03  1.6371755193141189e-02  1.4923052755874112e-02  5.2102652275695979e-02  3.5621990975881722e-02  7.5651505398805297e-03  2.7742270790262504e-02  1.3878969026490270e-02  1.8791639233696030e-02  5.5550376738013489e-02  8.3764782666754495e-02  8.3121829640447578e-02  6.0939868612557221e-02  3.3607371845788797e-02  8.3515188014372614e-04  2.4358080104397009e-02  1.0091006925804894e-02  2.9419368977001446e-02  3.5618607761143367e-02  1.4726129112090945e-02  1.4686463417183515e-02  5.1456067021479609e-03  9.5457459794870501e-03  7.5913609725420843e-03  3.1584932059129317e-03  4.2555989171646977e-03  7.9418757881730886e-03  1.0727547398675318e-03  3.6661058436987081e-05  2.7616318588336627e-03  1.2075646864101615e-03  1.6325084686938023e-03  4.7758199361369778e-05  3.0805643784748214e-04  1.4138796098794582e-03  1.6789881892156924e-04  4.9382027740076996e-04  5.2845450708977092e-04  6.2727941368304161e-04  1.3144933161239592e-04  1.8889910956026887e-04  7.9224250224653404e-04  5.5078448366940825e-04  1.6631863399453622e-04  9.4370401987033700e-05  5.4212104863160689e-04  1.6134839618106767e-03  2.0085848775702460e-03  5.1279489162391317e-04  4.7616203653338360e-04  9.6129654082236676e-04  7.7849833427063740e-04  6.5705565723301457e-04  4.8592858372528294e-05  5.8484067081294639e-05  1.0081803369764197e-03  1.1272756636055775e-03  9.2603751171009779e-04  5.5830477178883469e-04  3.9661616611097212e-04  4.9072753144324840e-04  2.6912595237649738e-04  1.4347505149974088e-05  1.3710952025397980e-05  5.7572041206865174e-05  1.7601650292780330e-04  1.1147194934917092e-04  1.1038610998620200e-04  5.2029890218021280e-05  1.4169181427137364e-05  1.0168301216595347e-05  1.7799331569978237e-05  4.9403069329818431e-22  -1.0848626466036930e-18  3.1218424896795843e-03  7.2262861572252347e-03  2.6267881866989984e-03  1.0011965417972259e-02  3.0637726194652919e-02  6.1654033859547567e-03  2.3274508189876204e-02  4.7827509405367124e-03  1.6597481569999108e-02  4.3171464456803817e-02  3.0809783041439876e-02  1.3088110777802109e-02  5.3940032333594672e-02  5.8762463079915277e-02  3.4063799460105820e-02  1.5272849189106326e-02  6.4983172974172235e-02  2.2815164471759249e-02  1.4202458594816352e-02  1.0436526380737750e-02  3.3814964889570129e-02  4.2284041131868934e-02  4.5241861964870414e-02  2.3397094040616857e-02  4.7408357890858744e-04  2.5685234583379162e-02  3.7001224055508743e-02  5.8269683625067403e-02  2.8509107390845938e-02  5.1558831323268162e-02  6.4370433603443911e-02  1.6715668091294867e-02  4.5242247398354099e-02  3.1778410933615345e-02  2.9935777694305360e-02  1.7955934300150040e-02  6.0792177497330770e-02  9.7597374742445606e-02  1.0479919109179228e-01  1.2228655584849524e-01  6.2067400482993841e-02  1.1131837794306992e-02  2.2542455871481701e-03  3.1774381404799462e-02  2.6470719672503293e-02  9.0349281238636617e-03  7.3592063798526928e-03  1.7938731378406330e-02  1.3616598745344989e-02  1.8248260030336225e-02  6.6858128992472333e-03  5.1262557553895987e-03  2.8974958199377127e-03  1.6254100757943861e-02  3.0271298084318288e-03  1.3688893369417665e-03  2.6997234521816105e-03  1.9194416193731676e-03  1.2362552104258600e-03  2.9077420865214047e-03  1.6184762903801366e-03  2.2199556840476558e-03  7.6473747423898785e-04  1.0705462450793903e-03  5.5842746008959350e-04  8.5015732833478106e-04  5.9304155404434023e-04  3.2317620797794575e-05  8.2140290532616727e-04  1.2700680046263083e-03  7.5169223971213712e-05  1.9310700108882153e-04  1.2032955387584145e-05  1.7325927085820728e-03  2.8077264561221335e-03  1.7430697322519120e-03  6.1469776537094922e-04  1.1289064730697546e-03  1.1477799401790126e-03  7.6592456001668273e-04  6.5087815526183868e-04  4.1199563036250825e-04  8.3971686812397560e-04  1.8765440475010246e-03  1.2659097790961773e-03  9.3197516209279116e-04  4.6728982431757613e-04  7.1288597104824573e-04  5.3243625613511578e-04  1.1892638715532484e-04  1.2924545617841877e-04  6.0383041894421642e-05  2.4060938599986093e-04  2.0123980764991001e-04  1.6721007876569426e-04  1.1689894441982617e-04  5.5657098799485675e-05  1.0418457920391853e-05  1.7192441815903189e-05  4.2946750695474725e-21  4.8148248609680896e-34  2.2703983760662298e-02  8.6504689503959318e-03  4.4149820370060093e-02  2.3586968822065370e-02  3.7644988508944997e-04  1.7394926591436069e-04  1.1848866496037571e-03  3.6191402119992752e-03  4.8994232243731804e-02  8.0417168931853841e-02  5.0868566977383969e-02  5.0532630991701466e-02  3.7397832555252600e-02  1.8875632037533584e-02  3.7639529561288625e-02  1.0522628790565276e-01  1.1187433214880102e-02  7.6405006073489564e-03  4.4953126393115897e-02  8.0451413725193724e-02  7.6151743844510761e-02  1.1304265868137336e-01  1.1632155202005755e-01  7.7484305243886401e-02  3.5880056057885905e-02  5.8975379314494557e-02  6.6706554828717263e-02  3.1527945443689309e-02  3.3344266366484618e-02  4.3296096656508506e-02  4.1897631546934801e-02  1.2734928618363553e-01  9.5551083854459776e-02  1.4971404305018253e-03  4.6216594732834668e-02  1.6472236191428798e-02  5.0802603380738741e-02  1.0324712519973893e-01  1.3552479658633121e-01  1.1145297163251809e-01  8.8307634509512109e-02  4.7741598823038280e-02  2.3909678214258014e-02  3.5183379569801165e-02  5.8005804367659156e-03  7.5455681115761675e-02  9.5221736260280077e-02  5.1979545060783221e-02  4.3482946131107196e-02  2.6158749757778110e-02  2.9045228522792114e-02  2.2910803985531435e-02  1.3216106861807058e-03  9.4528607870332775e-03  1.6942641956494569e-02  4.5492672641345468e-03  2.0904250651693703e-03  7.1988041999204236e-03  3.1271206986228498e-03  3.1074782778494213e-03  7.0100235278208357e-05  3.7328796030380781e-04  3.0924624486668049e-03  1.2155475971360791e-03  1.1749343905167828e-03  5.5277628331310263e-04  9.9682277520016607e-04  1.2713446080738440e-04  2.2520159534597438e-04  1.6157343388390922e-03  9.1680561326465285e-04  8.2601897383698878e-04  2.7659282743792898e-04  8.3451248158655051e-04  2.9239261695736987e-03  3.1547995838421394e-03  1.7789728366878968e-04  1.4265073452273218e-03  1.3850675469829080e-03  7.7624145511278264e-04  7.5473056057405571e-04  9.6071009664098015e-06  2.2080433819974475e-04  2.2104484902884690e-03  1.8857966340291908e-03  1.0570132818190448e-03  5.8198574366554422e-04  4.9810397760149873e-04  9.2120336730984985e-04  3.3666215688279804e-04  1.8160511146893843e-04  9.8265731376742987e-06  4.4600794846527775e-05  3.6155005655602140e-04  1.5088927120683821e-04  1.8826962044007987e-04  9.1729661144136524e-05  4.7989822459035458e-05  1.5489126325153954e-05  -2.1495480846892091e-21  -4.3536032106558212e-19  9.8938106619190433e-03  1.1220215721439024e-02  1.9963739751516479e-02  9.9905554399174531e-05  3.9303878508008165e-03  3.0719289304736538e-02  3.3891080499893082e-02  3.5163930988860920e-02  1.7504874644231845e-02  5.3683782056332509e-03  2.6369817168480813e-02  4.4311355834095394e-02  5.8222867450052181e-02  5.5170586426749123e-02  1.1770983810718173e-01  3.8551309634052522e-04  4.2890141225566869e-03  8.4646264639316307e-02  5.3893108265515841e-02  4.5664747626764209e-02  4.9848035991105571e-02  5.8121340417428263e-03  2.1142337723423912e-02  2.5342164119219690e-02  1.9480081466106233e-02  8.1163395029389390e-03  6.5224567164145028e-02  8.5164198331571142e-02  9.4744763010593563e-02  4.4102530135640992e-02  7.4219528138764493e-02  9.0420678608830810e-02  5.2528156601929409e-02  1.1162858461791894e-01  2.3869588712986715e-02  3.0846618920072500e-02  3.1212625662634757e-02  8.3744118095149783e-02  1.2524173381988674e-01  1.3359604385093257e-01  1.4290263796455771e-01  4.9008403722869069e-02  2.8262452481594747e-02  1.4447775301976629e-03  4.5830852733810136e-02  4.6638904034979008e-02  1.6281800865739021e-02  4.8963919149983798e-02  1.5201145188418446e-03  1.0049028549953327e-02  1.6296924798239919e-02  2.0107584683521458e-03  1.4318275986389701e-02  2.2710962703705808e-03  2.6551432147972526e-02  3.7743281695312219e-03  7.2938780985911944e-03  2.2761824325499749e-03  5.2448825574984244e-03  3.8436819245354563e-03  5.4019148025791002e-03  3.2203234427412605e-03  2.9891871794777490e-03  1.3590465790388557e-03  2.3848977717081362e-03  7.4336368993036840e-04  8.3799058225966577e-04  7.4728050025311575e-04  2.5209643269207232e-04  1.0405429274508544e-03  1.9722869561052286e-03  2.5643232333739030e-04  6.4433155355569916e-04  3.9382893052131092e-04  2.1821104595756507e-03  3.7405321555734135e-03  2.0092644204723741e-03  1.9070049971745477e-03  1.7780188872114329e-03  1.1816969640082297e-03  4.7930953795716631e-04  6.5545345745210404e-04  8.1973344806066594e-04  1.0340690127791116e-03  2.9313321787491483e-03  1.3961900636720891e-03  7.7764796569319459e-04  2.5139917457235687e-04  8.4356561388494332e-04  7.6092636055220722e-04  4.4048825752522684e-05  3.1175395858962874e-04  1.3851097127624899e-04  2.8664382435309295e-04  2.9234250738397984e-04  1.7032477046126707e-04  1.4725860875936710e-04  7.1440279215015414e-05  2.9475299587449759e-05  -2.6983220168968298e-21  -1.4371213428913297e-18  4.3444175309642626e-02  3.8513039869050407e-02  5.0642405999778619e-03  4.9834450090684511e-02  4.8923083159765506e-02  5.6204586090017250e-03  1.7599236800830132e-02  9.6689243594075165e-03  2.6166816593357355e-02  4.7204682628093901e-02  9.4641321882400389e-02  9.2370111607836550e-02  2.4090748492309640e-02  4.1213900773850301e-02  1.8614896559659685e-02  7.1092164471711818e-03  1.2747845644276101e-01  4.3006348011514643e-02  3.2470231753265404e-02  2.5070524843645380e-02  8.0186561517011173e-02  8.2940225939135928e-02  1.3607705281874496e-01  1.5900629423904100e-01  1.2059560329493375e-01  5.7202583417890834e-02  5.9260767730188131e-02  6.4576346295703704e-02  2.0537107621314100e-02  7.1885177646713663e-02  7.6834943639477973e-02  7.0239613493152678e-02  1.8429509439076433e-01  1.0332303803611166e-01  2.5978121483349673e-02  5.7997382126500130e-02  1.9137543500037883e-02  7.4815627259680176e-02  1.2874379584987303e-01  1.5189876226473609e-01  1.1706680425155681e-01  1.0758886603782364e-01  4.0252127331102748e-02  5.8227261938704943e-02  3.5450501006399161e-02  5.0277671508792803e-03  1.0585415120946055e-01  1.1376290477922288e-01  5.6711355217032744e-02  5.4620709007436194e-02  4.1965646410057338e-02  4.1658783757344664e-02  3.1561900874552018e-02  2.9115582008795693e-03  1.0361151888679580e-02  2.6467305998761376e-02  8.8380057165144583e-03  6.1067733211597605e-03  8.9904841767352289e-03  2.6866064188115564e-03  2.1430126631835837e-03  1.4611548013727519e-03  1.9322472860885279e-03  4.4704306300886914e-03  1.6478857731638090e-03  2.0525467845696095e-03  4.9740460284534548e-04  1.0681418184310828e-03  1.4656419507500784e-04  1.8164830131828614e-05  2.0279389278378603e-03  1.3686971057876942e-03  1.2959331232548230e-03  2.7150852001958588e-04  5.1807592966567615e-04  3.5079337182928401e-03  3.8057419460817304e-03  5.6766909685588781e-04  2.5455078764753817e-03  1.7262161514843594e-03  6.3986500688936125e-04  5.4820962735523278e-04  6.0124827641005754e-05  6.3883179130554428e-04  2.7261861863043689e-03  2.5615182407146457e-03  9.1597085358855065e-04  3.8411952021211231e-04  3.1669351771261431e-04  1.1316541866261242e-03  3.9527503301024140e-04  3.1257519839123643e-04  1.0647581634314017e-04  3.6057058368858490e-05  4.4262842122386859e-04  1.6941162420147079e-04  1.9668111612793180e-04  9.8611998004079777e-05  4.8814511403499759e-05  1.8807909613156600e-36  -1.4680469788977242e-19  2.7436885401307714e-02  5.4371163845441635e-03  8.4749215651418932e-03  4.0298713675230531e-02  2.3718429118682303e-02  3.1635115770893185e-03  2.1794320446885722e-02  4.1511859726632010e-02  3.2078247344759267e-02  1.4515824994522359e-02  1.8999699997261331e-02  1.0246458788665360e-02  8.3429206768985756e-03  8.1722873482332870e-02  2.5964894055707542e-02  1.2358690513221729e-01  2.1546886434806345e-02  2.6274388576213552e-02  6.6019559450532034e-02  5.1482933358357429e-02  5.0503922854848941e-02  7.6810392908485320e-02  2.1893074161029598e-02  1.3660634552028096e-02  2.5932406734672033e-02  1.3793030505500565e-02  1.6835417650512451e-02  8.6282352211662583e-02  1.1700919447168930e-01  1.0543978122189650e-01  2.8531027115758958e-02  9.4570505962658744e-02  8.7440407696546693e-02  9.2435463316393102e-02  1.5641832303364456e-01  1.6914442594698102e-02  3.4871510051179118e-02  3.0145083347472880e-02  1.0138868589904836e-01  1.4965849913371362e-01  1.5518139391295971e-01  1.4329915077282437e-01  4.4017902392082503e-02  3.2784865384820318e-02  1.9329698417629493e-02  5.5199040147845040e-02  5.8177478865311619e-02  4.5216592727749576e-02  8.7511932917181193e-02  2.5625158795360672e-02  5.5511230484933125e-03  2.4069383813243956e-03  1.0464028801631895e-02  2.6283231160384540e-02  5.4335693296300161e-04  3.1303209461987211e-02  8.3150810206402085e-03  1.3376581033195051e-02  3.4967820660843768e-04  8.2345497221771712e-03  5.4887350193988009e-03  6.2351400543596098e-03  3.4895492829866781e-03  2.5295602802908449e-03  2.3651196583666413e-03  3.4436462547268718e-03  1.1422644213818008e-03  7.2175019607518859e-04  8.1299222628719071e-04  3.1297386255952909e-04  1.0046726889932037e-03  2.5013811375080943e-03  1.2094349422040211e-04  1.1208783361657860e-03  7.1083356666267134e-04  2.1719074577713844e-03  4.4222932752733240e-03  2.3177676562439148e-03  2.8222831382896233e-03  2.5729797827068065e-03  1.2353491764283673e-03  2.5105133305555153e-04  5.2091318084034825e-04  9.8847521583789850e-04  9.0426315079849206e-04  3.6747940070007076e-03  1.6792098693152581e-03  5.3226695598471846e-04  3.3298858254878799e-05  8.1325298005752362e-04  9.8801638469238557e-04  4.1881683082579535e-06  4.4826792872398359e-04  1.3029400550289093e-04  2.5416834830044538e-04  3.7400184301740995e-04  1.6343756408559174e-04  1.5600791991136757e-04  6.3346423822335544e-05  -3.5164329127610219e-21  -5.6601788519056618e-19  2.6445983308504852e-03  1.7401020190756022e-02  9.5691263340554646e-03  3.1444626340459268e-02  3.2581139567551397e-02  5.4656682479797318e-02  2.9470270333903188e-03  3.4983169936363322e-02  2.2996228484050901e-02  3.7858933598683329e-02  3.6240153857392800e-02  8.0278244505186155e-02  7.8792916436143029e-02  1.2919941902684780e-02  1.0678156526842578e-02  2.5953947783713897e-02  2.9967161044449023e-02  1.1110934473670941e-01  3.5479600261462636e-02  3.2922138281447015e-02  6.5655145256283522e-03  6.1051488717597316e-02  5.4790558600669947e-02  1.1473428041098213e-01  1.4189175622308356e-01  1.0624408720584469e-01  5.0920036462919011e-02  4.8077300172202575e-02  4.1739188155003847e-02  4.4875086879410289e-04  9.6159352106000309e-02  9.8619230448791784e-02  8.4602009635192127e-02  2.1222662920222157e-01  7.8975992687261451e-02  7.6285618962347895e-02  5.9478840559997977e-02  1.8839558878097237e-02  9.1078050801388352e-02  1.4876255734104718e-01  1.6510674409828524e-01  1.3211079970901624e-01  1.1855216625578999e-01  2.4994700043613208e-02  7.8992551820174547e-02  4.0211042812832089e-02  4.7449245064802676e-03  1.2122676478915884e-01  1.0050218505909181e-01  2.5408757299313866e-02  3.7346781411908059e-02  3.5938505313800599e-02  3.8098851008337639e-02  2.7284240785351754e-02  1.0739194649359929e-02  1.2492601230194689e-02  3.3870704408018308e-02  9.0449297854339507e-03  1.1523788030544236e-02  8.4805108188886740e-03  6.1278190598632829e-05  7.7047159228705263e-05  3.0300082737662699e-03  3.1366668663540599e-03  5.0453270613496368e-03  1.4094325038836166e-03  3.1638076959914583e-03  6.5908164419425930e-04  9.9601926518432145e-04  2.0517155606259826e-04  7.3539575040370276e-05  2.1904738126773226e-03  1.8665997631402607e-03  1.4118891707616851e-03  2.3924688859903002e-06  1.1496578547727554e-04  3.8061387035760500e-03  4.4098971050389353e-03  5.9883978079517590e-04  3.6806129643012623e-03  2.2412182189436472e-03  5.4939601595637084e-04  3.0920839175188126e-04  1.6463600505043225e-04  8.8243916032687867e-04  2.8960026620818637e-03  3.3321212908412590e-03  9.3264991314428666e-04  1.5702738607077936e-04  1.0837456102975198e-04  1.2305010640783819e-03  5.5534356585893005e-04  3.9671322188954600e-04  2.0784514331676464e-04  7.8244149578267542e-05  4.4884954412062564e-04  2.2530110861813000e-04  1.8699000748376328e-04  9.7023546726100315e-05  -1.3464721938263917e-20  -2.5838494251170685e-19  1.0819928643042659e-02  1.0258234210142101e-02  1.0925950131590050e-02  1.4777185277457972e-02  1.9445428804922879e-02  4.4749145365088602e-02  7.5305156519975954e-03  9.7233869831717876e-03  3.2930543636145601e-02  2.9621208059748549e-02  6.3924453013290347e-03  7.6153724551056455e-03  1.5188515840263241e-02  2.1090538284922699e-02  6.7657940901861349e-02  1.6577432903048799e-0