<?xml version="1.0"?>
<VTKFile type="UnstructuredGrid"  version="0.1"  >
<UnstructuredGrid>
<Piece  NumberOfPoints="676" NumberOfCells="1250">
<Points>
<DataArray  type="Float64"  NumberOfComponents="3"  format="ascii">0 0 0  0.04 0 0  0.08 0 0  0.12 0 0  0.16 0 0  0.2 0 0  0.24 0 0  0.28 0 0  0.32 0 0  0.36 0 0  0.4 0 0  0.44 0 0  0.48 0 0  0.52 0 0  0.5600000000000001 0 0  0.6 0 0  0.64 0 0  0.68 0 0  0.72 0 0  0.76 0 0  0.8 0 0  0.84 0 0  0.88 0 0  0.92 0 0  0.96 0 0  1 0 0  0 0.04 0  0.04 0.04 0  0.08 0.04 0  0.12 0.04 0  0.16 0.04 0  0.2 0.04 0  0.24 0.04 0  0.28 0.04 0  0.32 0.04 0  0.36 0.04 0  0.4 0.04 0  0.44 0.04 0  0.48 0.04 0  0.52 0.04 0  0.5600000000000001 0.04 0  0.6 0.04 0  0.64 0.04 0  0.68 0.04 0  0.72 0.04 0  0.76 0.04 0  0.8 0.04 0  0.84 0.04 0  0.88 0.04 0  0.92 0.04 0  0.96 0.04 0  1 0.04 0  0 0.08 0  0.04 0.08 0  0.08 0.08 0  0.12 0.08 0  0.16 0.08 0  0.2 0.08 0  0.24 0.08 0  0.28 0.08 0  0.32 0.08 0  0.36 0.08 0  0.4 0.08 0  0.44 0.08 0  0.48 0.08 0  0.52 0.08 0  0.5600000000000001 0.08 0  0.6 0.08 0  0.64 0.08 0  0.68 0.08 0  0.72 0.08 0  0.76 0.08 0  0.8 0.08 0  0.84 0.08 0  0.88 0.08 0  0.92 0.08 0  0.96 0.08 0  1 0.08 0  0 0.12 0  0.04 0.12 0  0.08 0.12 0  0.12 0.12 0  0.16 0.12 0  0.2 0.12 0  0.24 0.12 0  0.28 0.12 0  0.32 0.12 0  0.36 0.12 0  0.4 0.12 0  0.44 0.12 0  0.48 0.12 0  0.52 0.12 0  0.5600000000000001 0.12 0  0.6 0.12 0  0.64 0.12 0  0.68 0.12 0  0.72 0.12 0  0.76 0.12 0  0.8 0.12 0  0.84 0.12 0  0.88 0.12 0  0.92 0.12 0  0.96 0.12 0  1 0.12 0  0 0.16 0  0.04 0.16 0  0.08 0.16 0  0.12 0.16 0  0.16 0.16 0  0.2 0.16 0  0.24 0.16 0  0.28 0.16 0  0.32 0.16 0  0.36 0.16 0  0.4 0.16 0  0.44 0.16 0  0.48 0.16 0  0.52 0.16 0  0.5600000000000001 0.16 0  0.6 0.16 0  0.64 0.16 0  0.68 0.16 0  0.72 0.16 0  0.76 0.16 0  0.8 0.16 0  0.84 0.16 0  0.88 0.16 0  0.92 0.16 0  0.96 0.16 0  1 0.16 0  0 0.2 0  0.04 0.2 0  0.08 0.2 0  0.12 0.2 0  0.16 0.2 0  0.2 0.2 0  0.24 0.2 0  0.28 0.2 0  0.32 0.2 0  0.36 0.2 0  0.4 0.2 0  0.44 0.2 0  0.48 0.2 0  0.52 0.2 0  0.5600000000000001 0.2 0  0.6 0.2 0  0.64 0.2 0  0.68 0.2 0  0.72 0.2 0  0.76 0.2 0  0.8 0.2 0  0.84 0.2 0  0.88 0.2 0  0.92 0.2 0  0.96 0.2 0  1 0.2 0  0 0.24 0  0.04 0.24 0  0.08 0.24 0  0.12 0.24 0  0.16 0.24 0  0.2 0.24 0  0.24 0.24 0  0.28 0.24 0  0.32 0.24 0  0.36 0.24 0  0.4 0.24 0  0.44 0.24 0  0.48 0.24 0  0.52 0.24 0  0.5600000000000001 0.24 0  0.6 0.24 0  0.64 0.24 0  0.68 0.24 0  0.72 0.24 0  0.76 0.24 0  0.8 0.24 0  0.84 0.24 0  0.88 0.24 0  0.92 0.24 0  0.96 0.24 0  1 0.24 0  0 0.28 0  0.04 0.28 0  0.08 0.28 0  0.12 0.28 0  0.16 0.28 0  0.2 0.28 0  0.24 0.28 0  0.28 0.28 0  0.32 0.28 0  0.36 0.28 0  0.4 0.28 0  0.44 0.28 0  0.48 0.28 0  0.52 0.28 0  0.5600000000000001 0.28 0  0.6 0.28 0  0.64 0.28 0  0.68 0.28 0  0.72 0.28 0  0.76 0.28 0  0.8 0.28 0  0.84 0.28 0  0.88 0.28 0  0.92 0.28 0  0.96 0.28 0  1 0.28 0  0 0.32 0  0.04 0.32 0  0.08 0.32 0  0.12 0.32 0  0.16 0.32 0  0.2 0.32 0  0.24 0.32 0  0.28 0.32 0  0.32 0.32 0  0.36 0.32 0  0.4 0.32 0  0.44 0.32 0  0.48 0.32 0  0.52 0.32 0  0.5600000000000001 0.32 0  0.6 0.32 0  0.64 0.32 0  0.68 0.32 0  0.72 0.32 0  0.76 0.32 0  0.8 0.32 0  0.84 0.32 0  0.88 0.32 0  0.92 0.32 0  0.96 0.32 0  1 0.32 0  0 0.36 0  0.04 0.36 0  0.08 0.36 0  0.12 0.36 0  0.16 0.36 0  0.2 0.36 0  0.24 0.36 0  0.28 0.36 0  0.32 0.36 0  0.36 0.36 0  0.4 0.36 0  0.44 0.36 0  0.48 0.36 0  0.52 0.36 0  0.5600000000000001 0.36 0  0.6 0.36 0  0.64 0.36 0  0.68 0.36 0  0.72 0.36 0  0.76 0.36 0  0.8 0.36 0  0.84 0.36 0  0.88 0.36 0  0.92 0.36 0  0.96 0.36 0  1 0.36 0  0 0.4 0  0.04 0.4 0  0.08 0.4 0  0.12 0.4 0  0.16 0.4 0  0.2 0.4 0  0.24 0.4 0  0.28 0.4 0  0.32 0.4 0  0.36 0.4 0  0.4 0.4 0  0.44 0.4 0  0.48 0.4 0  0.52 0.4 0  0.5600000000000001 0.4 0  0.6 0.4 0  0.64 0.4 0  0.68 0.4 0  0.72 0.4 0  0.76 0.4 0  0.8 0.4 0  0.84 0.4 0  0.88 0.4 0  0.92 0.4 0  0.96 0.4 0  1 0.4 0  0 0.44 0  0.04 0.44 0  0.08 0.44 0  0.12 0.44 0  0.16 0.44 0  0.2 0.44 0  0.24 0.44 0  0.28 0.44 0  0.32 0.44 0  0.36 0.44 0  0.4 0.44 0  0.44 0.44 0  0.48 0.44 0  0.52 0.44 0  0.5600000000000001 0.44 0  0.6 0.44 0  0.64 0.44 0  0.68 0.44 0  0.72 0.44 0  0.76 0.44 0  0.8 0.44 0  0.84 0.44 0  0.88 0.44 0  0.92 0.44 0  0.96 0.44 0  1 0.44 0  0 0.48 0  0.04 0.48 0  0.08 0.48 0  0.12 0.48 0  0.16 0.48 0  0.2 0.48 0  0.24 0.48 0  0.28 0.48 0  0.32 0.48 0  0.36 0.48 0  0.4 0.48 0  0.44 0.48 0  0.48 0.48 0  0.52 0.48 0  0.5600000000000001 0.48 0  0.6 0.48 0  0.64 0.48 0  0.68 0.48 0  0.72 0.48 0  0.76 0.48 0  0.8 0.48 0  0.84 0.48 0  0.88 0.48 0  0.92 0.48 0  0.96 0.48 0  1 0.48 0  0 0.52 0  0.04 0.52 0  0.08 0.52 0  0.12 0.52 0  0.16 0.52 0  0.2 0.52 0  0.24 0.52 0  0.28 0.52 0  0.32 0.52 0  0.36 0.52 0  0.4 0.52 0  0.44 0.52 0  0.48 0.52 0  0.52 0.52 0  0.5600000000000001 0.52 0  0.6 0.52 0  0.64 0.52 0  0.68 0.52 0  0.72 0.52 0  0.76 0.52 0  0.8 0.52 0  0.84 0.52 0  0.88 0.52 0  0.92 0.52 0  0.96 0.52 0  1 0.52 0  0 0.5600000000000001 0  0.04 0.5600000000000001 0  0.08 0.5600000000000001 0  0.12 0.5600000000000001 0  0.16 0.5600000000000001 0  0.2 0.5600000000000001 0  0.24 0.5600000000000001 0  0.28 0.5600000000000001 0  0.32 0.5600000000000001 0  0.36 0.5600000000000001 0  0.4 0.5600000000000001 0  0.44 0.5600000000000001 0  0.48 0.5600000000000001 0  0.52 0.5600000000000001 0  0.5600000000000001 0.5600000000000001 0  0.6 0.5600000000000001 0  0.64 0.5600000000000001 0  0.68 0.5600000000000001 0  0.72 0.5600000000000001 0  0.76 0.5600000000000001 0  0.8 0.5600000000000001 0  0.84 0.5600000000000001 0  0.88 0.5600000000000001 0  0.92 0.5600000000000001 0  0.96 0.5600000000000001 0  1 0.5600000000000001 0  0 0.6 0  0.04 0.6 0  0.08 0.6 0  0.12 0.6 0  0.16 0.6 0  0.2 0.6 0  0.24 0.6 0  0.28 0.6 0  0.32 0.6 0  0.36 0.6 0  0.4 0.6 0  0.44 0.6 0  0.48 0.6 0  0.52 0.6 0  0.5600000000000001 0.6 0  0.6 0.6 0  0.64 0.6 0  0.68 0.6 0  0.72 0.6 0  0.76 0.6 0  0.8 0.6 0  0.84 0.6 0  0.88 0.6 0  0.92 0.6 0  0.96 0.6 0  1 0.6 0  0 0.64 0  0.04 0.64 0  0.08 0.64 0  0.12 0.64 0  0.16 0.64 0  0.2 0.64 0  0.24 0.64 0  0.28 0.64 0  0.32 0.64 0  0.36 0.64 0  0.4 0.64 0  0.44 0.64 0  0.48 0.64 0  0.52 0.64 0  0.5600000000000001 0.64 0  0.6 0.64 0  0.64 0.64 0  0.68 0.64 0  0.72 0.64 0  0.76 0.64 0  0.8 0.64 0  0.84 0.64 0  0.88 0.64 0  0.92 0.64 0  0.96 0.64 0  1 0.64 0  0 0.68 0  0.04 0.68 0  0.08 0.68 0  0.12 0.68 0  0.16 0.68 0  0.2 0.68 0  0.24 0.68 0  0.28 0.68 0  0.32 0.68 0  0.36 0.68 0  0.4 0.68 0  0.44 0.68 0  0.48 0.68 0  0.52 0.68 0  0.5600000000000001 0.68 0  0.6 0.68 0  0.64 0.68 0  0.68 0.68 0  0.72 0.68 0  0.76 0.68 0  0.8 0.68 0  0.84 0.68 0  0.88 0.68 0  0.92 0.68 0  0.96 0.68 0  1 0.68 0  0 0.72 0  0.04 0.72 0  0.08 0.72 0  0.12 0.72 0  0.16 0.72 0  0.2 0.72 0  0.24 0.72 0  0.28 0.72 0  0.32 0.72 0  0.36 0.72 0  0.4 0.72 0  0.44 0.72 0  0.48 0.72 0  0.52 0.72 0  0.5600000000000001 0.72 0  0.6 0.72 0  0.64 0.72 0  0.68 0.72 0  0.72 0.72 0  0.76 0.72 0  0.8 0.72 0  0.84 0.72 0  0.88 0.72 0  0.92 0.72 0  0.96 0.72 0  1 0.72 0  0 0.76 0  0.04 0.76 0  0.08 0.76 0  0.12 0.76 0  0.16 0.76 0  0.2 0.76 0  0.24 0.76 0  0.28 0.76 0  0.32 0.76 0  0.36 0.76 0  0.4 0.76 0  0.44 0.76 0  0.48 0.76 0  0.52 0.76 0  0.5600000000000001 0.76 0  0.6 0.76 0  0.64 0.76 0  0.68 0.76 0  0.72 0.76 0  0.76 0.76 0  0.8 0.76 0  0.84 0.76 0  0.88 0.76 0  0.92 0.76 0  0.96 0.76 0  1 0.76 0  0 0.8 0  0.04 0.8 0  0.08 0.8 0  0.12 0.8 0  0.16 0.8 0  0.2 0.8 0  0.24 0.8 0  0.28 0.8 0  0.32 0.8 0  0.36 0.8 0  0.4 0.8 0  0.44 0.8 0  0.48 0.8 0  0.52 0.8 0  0.5600000000000001 0.8 0  0.6 0.8 0  0.64 0.8 0  0.68 0.8 0  0.72 0.8 0  0.76 0.8 0  0.8 0.8 0  0.84 0.8 0  0.88 0.8 0  0.92 0.8 0  0.96 0.8 0  1 0.8 0  0 0.84 0  0.04 0.84 0  0.08 0.84 0  0.12 0.84 0  0.16 0.84 0  0.2 0.84 0  0.24 0.84 0  0.28 0.84 0  0.32 0.84 0  0.36 0.84 0  0.4 0.84 0  0.44 0.84 0  0.48 0.84 0  0.52 0.84 0  0.5600000000000001 0.84 0  0.6 0.84 0  0.64 0.84 0  0.68 0.84 0  0.72 0.84 0  0.76 0.84 0  0.8 0.84 0  0.84 0.84 0  0.88 0.84 0  0.92 0.84 0  0.96 0.84 0  1 0.84 0  0 0.88 0  0.04 0.88 0  0.08 0.88 0  0.12 0.88 0  0.16 0.88 0  0.2 0.88 0  0.24 0.88 0  0.28 0.88 0  0.32 0.88 0  0.36 0.88 0  0.4 0.88 0  0.44 0.88 0  0.48 0.88 0  0.52 0.88 0  0.5600000000000001 0.88 0  0.6 0.88 0  0.64 0.88 0  0.68 0.88 0  0.72 0.88 0  0.76 0.88 0  0.8 0.88 0  0.84 0.88 0  0.88 0.88 0  0.92 0.88 0  0.96 0.88 0  1 0.88 0  0 0.92 0  0.04 0.92 0  0.08 0.92 0  0.12 0.92 0  0.16 0.92 0  0.2 0.92 0  0.24 0.92 0  0.28 0.92 0  0.32 0.92 0  0.36 0.92 0  0.4 0.92 0  0.44 0.92 0  0.48 0.92 0  0.52 0.92 0  0.5600000000000001 0.92 0  0.6 0.92 0  0.64 0.92 0  0.68 0.92 0  0.72 0.92 0  0.76 0.92 0  0.8 0.92 0  0.84 0.92 0  0.88 0.92 0  0.92 0.92 0  0.96 0.92 0  1 0.92 0  0 0.96 0  0.04 0.96 0  0.08 0.96 0  0.12 0.96 0  0.16 0.96 0  0.2 0.96 0  0.24 0.96 0  0.28 0.96 0  0.32 0.96 0  0.36 0.96 0  0.4 0.96 0  0.44 0.96 0  0.48 0.96 0  0.52 0.96 0  0.5600000000000001 0.96 0  0.6 0.96 0  0.64 0.96 0  0.68 0.96 0  0.72 0.96 0  0.76 0.96 0  0.8 0.96 0  0.84 0.96 0  0.88 0.96 0  0.92 0.96 0  0.96 0.96 0  1 0.96 0  0 1 0  0.04 1 0  0.08 1 0  0.12 1 0  0.16 1 0  0.2 1 0  0.24 1 0  0.28 1 0  0.32 1 0  0.36 1 0  0.4 1 0  0.44 1 0  0.48 1 0  0.52 1 0  0.5600000000000001 1 0  0.6 1 0  0.64 1 0  0.68 1 0  0.72 1 0  0.76 1 0  0.8 1 0  0.84 1 0  0.88 1 0  0.92 1 0  0.96 1 0  1 1 0  </DataArray>
</Points>
<Cells>
[...]
<PointData  Scalars="u"> 
<DataArray  type="Float64"  Name="u"  format="ascii">0.0000000000000000e+00  0.0000000000000000e+00  0.0000000000000000e+00  0.0000000000000000e+00  0.0000000000000000e+00  0.0000000000000000e+00  0.0000000000000000e+00  0.0000000000000000e+00  0.0000000000000000e+00  0.0000000000000000e+00  0.0000000000000000e+00  0.0000000000000000e+00  0.0000000000000000e+00  0.0000000000000000e+00  0.0000000000000000e+00  0.0000000000000000e+00  0.0000000000000000e+00  0.0000000000000000e+00  0.0000000000000000e+00  0.0000000000000000e+00  0.0000000000000000e+00  0.0000000000000000e+00  0.0000000000000000e+00  0.0000000000000000e+00  0.0000000000000000e+00  0.0000000000000000e+00  0.0000000000000000e+00  8.2278354424326265e-04  -6.3233877831344405e-04  1.5095283586184260e-03  -5.5975830309262353e-03  -4.9154048811282432e-03  4.6359284637307891e-03  -4.8433154913351843e-03  4.4488339248053357e-03  -7.9752241994541975e-04  4.8682167340591736e-03  -5.8125633799579568e-04  4.2341066915381103e-03  1.3200356277948554e-03  -5.6547047220309086e-04  -5.1940362893652286e-04  -2.1016148284426011e-05  -2.5163842143225292e-05  -1.3639364193893789e-05  4.1598525314564008e-05  -7.0114176942705063e-05  -8.7123203974048819e-05  -6.2266258971086657e-05  6.6790167675983981e-05  8.5787413288384185e-05  0.0000000000000000e+00  0.0000000000000000e+00  2.5975138136543740e-04  8.7571534234070570e-04  4.5081481038924693e-03  1.1139154818518456e-03  -2.3876091185945350e-03  -8.9926079784674508e-03  1.0626529553792216e-02  -8.5634936804821517e-03  7.2775759455084186e-03  4.7173255738912313e-04  1.6805361158011309e-03  -4.5174940565723099e-04  9.5132759134515226e-03  4.4956779574117082e-04  -1.0862797971290747e-03  -3.1735353251130999e-04  2.7370633275658782e-06  7.8343619578379560e-05  9.5866870265411269e-05  -1.1782697510408163e-04  -1.3315098577785204e-04  -2.0512251807771928e-04  -2.1314000152079519e-04  1.5231169281180996e-04  0.0000000000000000e+00  0.0000000000000000e+00  -3.6830483302927376e-03  -3.6535154890695145e-03  -3.9521880876781440e-03  1.1205912076294976e-02  -7.8162835501375729e-03  -8.1374197774183241e-03  6.2050649058336960e-03  -6.0261743427092659e-03  1.7778660844782459e-03  -2.8093998131916461e-03  1.0768382877209983e-02  -3.7009111630087288e-03  5.1420542020450292e-03  6.3917842004955240e-03  -3.0619146226036723e-04  -1.0478741185758712e-03  2.8100955601912921e-04  1.6835768923329896e-04  1.6900485479753698e-04  1.3544731581775326e-04  -6.1743754737689089e-05  -2.8970569216122088e-04  -3.5619891033114923e-04  -1.9671330999618277e-04  0.0000000000000000e+00  0.0000000000000000e+00  2.9916164859810669e-03  2.2834853421605321e-03  -4.6676227806075835e-04  3.4118180694161977e-03  1.0252737631426966e-02  -8.0881626215759811e-04  -1.7830889677119058e-02  1.9470024084553492e-02  -1.5512338622479091e-02  1.1853188014263128e-02  3.4932117633301517e-03  8.9198225303908744e-03  -2.1895522444802078e-03  1.3592046269552521e-02  4.5598577177994089e-03  -5.9921189171134408e-04  -4.1045492236852578e-04  4.5778276833466456e-04  4.3438986521598819e-04  3.6335885365986479e-04  1.6656800587238363e-04  1.1150405645103252e-04  -2.8696904489505462e-04  -3.8275440792878755e-04  0.0000000000000000e+00  0.0000000000000000e+00  3.9226976360145164e-03  4.9102556872601911e-03  3.6505982685467761e-03  4.5978448836756832e-03  1.9631184207166280e-02  -1.0766282439560657e-02  -6.6931512964888045e-03  1.0822049128261185e-02  -1.0573446973127986e-03  2.1203896108924977e-02  3.0194046839179908e-02  6.1206025166062022e-02  4.0327093375271628e-02  3.3350345376076888e-02  2.1856447371239880e-02  5.9266479188675508e-03  1.3000658565651195e-04  6.8748415040607793e-04  9.0296781106718213e-04  8.7049142732663473e-04  6.6180742448805803e-04  5.5663332015305940e-04  1.2608463095484525e-04  -1.9687636957267787e-04  0.0000000000000000e+00  0.0000000000000000e+00  -1.2786247801098766e-02  -6.0910610257822826e-03  4.1731098101094478e-03  3.9774688943634475e-03  1.7092151156178917e-02  2.3981672182781077e-02  1.2309758949728465e-02  -5.9448355635960820e-03  7.5440919720340865e-02  1.2942250007939782e-01  3.6420309336389950e-01  3.9443833961739933e-01  3.1174052999616958e-01  2.8531800669196344e-01  8.5303341240173289e-02  5.0037418776946861e-02  1.7329670345904873e-02  3.4200372770079109e-03  1.3503189038269140e-03  1.1319076833813074e-03  1.1610862657904083e-03  7.2848069775671991e-04  8.9714165106308458e-04  1.6122271046729864e-04  0.0000000000000000e+00  0.0000000000000000e+00  6.7774893867794126e-03  -6.1399091044426907e-05  -9.2298799899733931e-03  -1.1138612881408027e-02  -4.9807108331937147e-03  3.1628681456046859e-02  1.9209996866181078e-02  1.1320067310103619e-01  2.8610046894107161e-01  4.7234085878779675e-01  6.1379479731913145e-01  7.0335803593974000e-01  5.7905572473856504e-01  6.2223601214124602e-01  4.8577142632072307e-01  2.7788552639518921e-01  1.0514805480949964e-01  2.3586317361416375e-02  4.2874319163048293e-03  1.3139516880156187e-03  1.0841778953386981e-03  9.6582226685452044e-04  5.1071151788062842e-04  6.0955402241246197e-04  0.0000000000000000e+00  0.0000000000000000e+00  -1.1403532416890813e-02  -9.9065558468490501e-03  -2.1574011161782330e-03  1.1007718169188363e-02  -3.1045225516237477e-03  1.0931064594655066e-02  9.2130239232261907e-02  1.7786780831125851e-01  3.8868045573659926e-01  4.7420657068557365e-01  6.9682891091099419e-01  6.9924562239800359e-01  7.2943145534430409e-01  6.2436580991651336e-01  6.0765551342790047e-01  4.4690857170435649e-01  3.0060523370388315e-01  8.3709314975725382e-02  2.1096001111382795e-02  3.4496477614164179e-03  1.0654269394531836e-03  1.1091754785649854e-03  4.5854944115105979e-04  1.8129639937668917e-04  0.0000000000000000e+00  0.0000000000000000e+00  4.0356481336428253e-03  -6.9963593752844829e-03  -1.4696907247469998e-02  -1.7754324447282786e-02  -1.1606788090480448e-03  5.3689587935664515e-02  2.8463060930329526e-01  3.0705328473247306e-01  3.4602584396962183e-01  5.2402734475772306e-01  6.0279825944660437e-01  7.3170911051244603e-01  7.5397579108722246e-01  7.2016997780678937e-01  6.5606131521700217e-01  5.9054620107514888e-01  4.2893410612225558e-01  2.0775281722539674e-01  6.1090910347834197e-02  1.4531234951801137e-02  2.0957507266768077e-03  9.6860497952270836e-04  1.0304388702839294e-03  2.0537783591499789e-04  0.0000000000000000e+00  0.0000000000000000e+00  7.6066358761947084e-04  8.2553765771272992e-05  2.3539904693411170e-03  -1.8072311500609100e-03  7.9666551138506403e-03  1.0467358030634934e-01  4.0088527956440662e-01  5.0405973538491200e-01  3.8342754753173142e-01  4.3446687390452615e-01  5.8765480262854897e-01  7.0966836309899350e-01  7.5363272558109828e-01  7.5904041558472690e-01  7.0276603604156751e-01  6.4990168810905069e-01  5.4198859682333189e-01  3.6675136080065052e-01  1.2393072628933052e-01  3.9693730749755310e-02  8.1915539566263657e-03  1.1211354871670739e-03  9.5937688624064875e-04  5.6849314971396561e-04  0.0000000000000000e+00  0.0000000000000000e+00  5.6433645968003623e-03  7.0545308153968939e-03  -4.4339543670741822e-03  -2.8335603710416797e-03  3.7173138656774671e-02  2.9722544668092632e-01  5.8604044177994086e-01  5.3847073982592608e-01  4.7068148854929392e-01  4.5676908277819045e-01  5.1562997599093374e-01  6.5004669384985636e-01  7.4462936652699774e-01  7.6442564055931661e-01  7.2854975026119784e-01  6.7612454741336536e-01  6.0963273288887088e-01  4.4360520308315382e-01  1.6534809751498725e-01  7.2717716648149647e-02  2.2677216106040763e-02  3.8031291315470520e-03  7.4876320017363564e-04  6.0340894259118495e-04  0.0000000000000000e+00  0.0000000000000000e+00  -6.0447494854791416e-03  -9.2556882855015737e-05  6.1370012241785381e-03  5.9534809665660838e-03  4.6495182812952229e-02  4.2102849016193161e-01  6.0484526561727170e-01  6.3864964660931234e-01  5.8781854543558532e-01  4.9535836620158441e-01  5.0418093523278984e-01  5.7548607304940502e-01  7.0920584566667966e-01  7.4611139967232010e-01  7.4623511576725099e-01  6.9537082689694840e-01  6.2455038731673684e-01  4.7476752350678431e-01  2.0111372574828201e-02  1.3599975003765508e-01  4.7008769946288727e-02  1.1379297964388017e-02  1.4336074279508852e-03  6.2561154589127856e-04  0.0000000000000000e+00  0.0000000000000000e+00  -8.4580978922547826e-04  -3.8114329865024644e-03  -2.2495896044334523e-03  -5.6204259564413299e-04  5.2701552335684319e-02  2.8830109607428278e-01  6.4738075383032045e-01  6.4316900393763099e-01  6.4374293596526577e-01  5.8286013823218374e-01  5.2965777002817072e-01  5.4755436039662819e-01  6.2787334124948013e-01  7.1456710286147840e-01  7.3051713393269813e-01  6.7204738387707241e-01  6.4069804372046812e-01  4.5957706435910228e-01  5.0796177815944886e-02  -3.3297034862314924e-03  7.8603563843355692e-02  2.6622367033310113e-02  4.9051300056821212e-03  5.9468617619057621e-04  0.0000000000000000e+00  0.0000000000000000e+00  4.7850909440214449e-03  1.4715056331559002e-03  3.4528319783460998e-03  4.2511604580538409e-03  3.0801204978249730e-02  3.0267094195576777e-01  5.6136576724068343e-01  6.4847440078279062e-01  6.6635917059060423e-01  6.3544733874587955e-01  5.7320219238440617e-01  5.3633747332389248e-01  5.6908628469067046e-01  6.6232098691343200e-01  6.7705193093676996e-01  6.6934668841904410e-01  5.6079306973749221e-01  3.8840447861591959e-01  -1.0236963860755278e-01  -1.8739352603725366e-02  4.6897875484483910e-02  5.4094418537378286e-02  1.2689379154846518e-02  1.5411684079014016e-03  0.0000000000000000e+00  0.0000000000000000e+00  -3.8962955563626046e-03  9.8644279970562109e-04  -8.3748572379204237e-04  5.0354571687235734e-03  3.1373922357798567e-02  1.3600930813589671e-01  5.3009738313699828e-01  6.0698244530297507e-01  6.4971801439879950e-01  6.5533419104285073e-01  6.1467874795974942e-01  5.6434271555359050e-01  5.4469015751826422e-01  5.7993560456920212e-01  6.5482152534905869e-01  6.2963944991329535e-01  5.0945953585486936e-01  1.6301681536520232e-01  -6.3712466074247687e-02  -1.2032802499486396e-01  -3.4919092520948762e-02  4.5459053743686778e-02  3.5208962630467987e-02  4.8311233633591402e-03  0.0000000000000000e+00  0.0000000000000000e+00  2.1815815339488983e-03  -9.8137491846693936e-04  -4.8641486951832091e-04  -1.2131084922445033e-03  1.0140903764743124e-02  7.5626176551845586e-02  2.9559316606402625e-01  5.4201994948387822e-01  5.9603217138133080e-01  6.4362605620218494e-01  6.1086545504519041e-01  5.7503363353497883e-01  5.1342357033516062e-01  5.3175313717927908e-01  5.6384163540249899e-01  5.4224493135739138e-01  4.4746089214506535e-01  1.3726699088256356e-01  -8.9488115957084058e-02  -1.0554311281902548e-01  -8.5517216383701022e-02  -9.3868447500413841e-04  3.6469130724381009e-02  1.9197757529812898e-02  0.0000000000000000e+00  0.0000000000000000e+00  2.6851064965511830e-03  1.3511935042099729e-03  3.6314066796629277e-03  1.3445909560815792e-03  4.5477761387208073e-03  3.2626365642099274e-02  1.1809881942605807e-01  4.0201786023012026e-01  5.1041338319054275e-01  5.7782406077789761e-01  5.9312781079821930e-01  5.5479366327190516e-01  5.0902724145094891e-01  4.3677050538496509e-01  4.1386048745316362e-01  4.1092790112151545e-01  3.2315683089275971e-01  1.2402130177989112e-01  3.9052175024976529e-02  -8.3011947980002457e-02  -1.0019548085596038e-01  -6.5347115834047217e-02  1.8062534773456370e-02  2.2926130846725061e-02  0.0000000000000000e+00  0.0000000000000000e+00  2.0657929021458875e-04  3.8060688522502319e-03  -1.7912167646250170e-04  3.8357897367912583e-03  3.3910869462471928e-03  1.6977197213608516e-02  6.6230840720120351e-02  1.9524200443550579e-01  2.4506550395903401e-01  3.5779196777414290e-01  4.0856210752063726e-01  4.1542204862896431e-01  3.7107835703414677e-01  2.1424441329606114e-01  9.2889487118791261e-02  7.6537759564410307e-02  2.1811790478878484e-01  2.2214217349704138e-01  4.9478547929897101e-02  -3.0572093259303580e-02  -8.2579879418908167e-02  -8.6321807273266687e-02  -4.3876126329152797e-02  1.0965984402063828e-02  0.0000000000000000e+00  0.0000000000000000e+00  -2.2014629824115310e-04  8.7515777702114772e-04  2.1909605086366498e-03  1.0757476520419740e-03  2.5104349360034438e-03  5.9404734092648181e-03  2.9893859319412585e-02  8.8077626545911114e-02  2.2279180307369362e-01  2.0475084845999916e-01  1.2402332253802294e-01  -3.4284309823672317e-02  -1.0558399924613169e-02  -1.7024996888216207e-01  -1.7628769974568917e-01  -2.1112493313448803e-03  9.6964941193934291e-03  1.8382379245150557e-01  1.6871309181861693e-01  2.1626665190518157e-02  -5.3743814806168834e-02  -7.9989604531361960e-02  -7.0270764148330875e-02  -1.7875185639150443e-02  0.0000000000000000e+00  0.0000000000000000e+00  -5.1531964229382715e-04  -4.1167805498023939e-04  2.2962796219024553e-03  -3.5596252046048778e-04  2.5599062515932270e-03  2.2813057942320395e-03  1.1030478144294977e-02  4.1660569277642154e-02  1.0926081053648411e-01  1.7415384221339583e-01  1.6335798507612179e-01  -7.1199382418145746e-02  -5.4296038845133066e-02  -2.0625632275365741e-01  -1.7535644878054465e-01  -1.6895154302047102e-01  7.6059744319277528e-03  1.2207658836532759e-01  1.6450427742452667e-01  1.2094634040786502e-01  -8.2661141525643463e-03  -5.7404938031283638e-02  -7.0318900758823771e-02  -4.7416668576999985e-02  0.0000000000000000e+00  0.0000000000000000e+00  -2.2611511863161106e-04  -5.8269855817750149e-04  -4.2997598034400891e-04  2.0256854916134554e-03  -6.0838763302875415e-04  2.0676913107803966e-03  3.3481975750168968e-03  1.7204010978565890e-02  5.0636363016645702e-02  1.3638650712987893e-01  1.5257198364339530e-01  9.2914774787530158e-02  -7.1424173979724448e-02  -8.1052386741271382e-02  -1.9177310018673210e-01  -1.6047870060092698e-01  -1.0441812956617468e-01  2.6992603087082762e-03  1.2929385958940223e-01  1.3867747300016048e-01  7.2416224934531426e-02  -2.3680263349790443e-02  -5.5282061934269044e-02  -5.1024571877373824e-02  0.0000000000000000e+00  0.0000000000000000e+00  -6.0040986984564953e-05  -4.5799777508345225e-04  -4.1487682728721280e-04  5.7280998791101761e-04  -1.5017662781949300e-04  7.0096998201658921e-04  9.8210000709518606e-04  5.2435727992898610e-03  2.2461884623529296e-02  6.2071054768660060e-02  1.2660949554448733e-01  1.1857369648672043e-01  1.3566554755494224e-02  -5.6865171101224181e-02  -1.2822425929998590e-01  -1.5700941538551971e-01  -1.2914555201476696e-01  -4.9401319281203414e-02  7.5673289777056618e-02  1.2201091622303595e-01  1.0870177012092173e-01  2.6236899989492201e-02  -2.9890678036221162e-02  -4.5814660426410178e-02  0.0000000000000000e+00  0.0000000000000000e+00  1.8877027334586612e-04  4.6744977633847044e-05  -2.5184778585532990e-04  -2.5768241992386344e-04  1.0139978702354542e-03  -1.0134057576704711e-03  1.0394132309556755e-03  8.3217415824674273e-04  6.8670081547671947e-03  2.4385550158128655e-02  7.7436065804042026e-02  1.0620419829464987e-01  8.0888579815076106e-02  -2.7213670589541369e-02  -5.5608368682124425e-02  -1.2408093716833372e-01  -1.2455587468470651e-01  -9.1859012115449390e-02  -2.3370107267757935e-02  8.0980478709453699e-02  1.0411886452612584e-01  7.3293440408301408e-02  3.9663556063895943e-03  -2.9710459609371045e-02  0.0000000000000000e+00  0.0000000000000000e+00  3.7068827849987229e-05  8.6727265732969129e-05  6.9494401408147604e-06  5.7035721072556528e-05  2.4684444685586191e-04  3.2652460510956312e-04  3.1237361047662822e-05  4.1379854736666816e-04  1.3670229648584872e-03  7.2657196413797049e-03  2.3588678850802510e-02  6.8259305046540972e-02  7.4565535912294686e-02  3.9613068509286309e-02  -3.2277308802582907e-02  -6.4458829454445227e-02  -9.6373564044121812e-02  -8.6584885332839701e-02  -4.9367189304660754e-02  2.1274108843545535e-02  7.0959692017772233e-02  7.3143504753937716e-02  3.6344571237477738e-02  -4.2727461123872219e-03  0.0000000000000000e+00  0.0000000000000000e+00  0.0000000000000000e+00  0.0000000000000000e+00  0.0000000000000000e+00  0.0000000000000000e+00  0.0000000000000000e+00  0.0000000000000000e+00  0.0000000000000000e+00  0.0000000000000000e+00  0.0000000000000000e+00  0.0000000000000000e+00  0.0000000000000000e+00  0.0000000000000000e+00  0.0000000000000000e+00  0.0000000000000000e+00  0.0000000000000000e+00  0.0000000000000000e+00  0.0000000000000000e+00  0.0000000000000000e+00  0.0000000000000000e+00  0.0000000000000000e+00  0.0000000000000000e+00  0.0000000000000000e+00  0.0000000000000000e+00  0.0000000000000000e+00  0.0000000000000000e+00  </DataArray> 
</PointData> 
</Piece>
</UnstructuredGrid>
</VTKFile>