<?xml version="1.0"?>
<VTKFile type="UnstructuredGrid"  version="0.1"  >
<UnstructuredGrid>
<Piece  NumberOfPoints="10201" NumberOfCells="20000">
<Points>
<DataArray  type="Float64"  NumberOfComponents="3"  format="ascii">0 0 0  0.01 0 0  0.02 0 0  0.03 0 0  0.04 0 0  0.05 0 0  0.06 0 0  0.07000000000000001 0 0  0.08 0 0  0.09 0 0  0.1 0 0  0.11 0 0  0.12 0 0  0.13 0 0  0.14 0 0  0.15 0 0  0.16 0 0  0.17 0 0  0.18 0 0  0.19 0 0  0.2 0 0  0.21 0 0  0.22 0 0  0.23 0 0  0.24 0 0  0.25 0 0  0.26 0 0  0.27 0 0  0.28 0 0  0.29 0 0  0.3 0 0  0.31 0 0  0.32 0 0  0.33 0 0  0.34 0 0  0.35 0 0  0.36 0 0  0.37 0 0  0.38 0 0  0.39 0 0  0.4 0 0  0.41 0 0  0.42 0 0  0.43 0 0  0.44 0 0  0.45 0 0  0.46 0 0  0.47 0 0  0.48 0 0  0.49 0 0  0.5 0 0  0.51 0 0  0.52 0 0  0.53 0 0  0.54 0 0  0.55 0 0  0.5600000000000001 0 0  0.57 0 0  0.58 0 0  0.59 0 0  0.6 0 0  0.61 0 0  0.62 0 0  0.63 0 0  0.64 0 0  0.65 0 0  0.66 0 0  0.67 0 0  0.68 0 0  0.6899999999999999 0 0  0.7 0 0  0.71 0 0  0.72 0 0  0.73 0 0  0.74 0 0  0.75 0 0  0.76 0 0  0.77 0 0  0.78 0 0  0.79 0 0  0.8 0 0  0.8100000000000001 0 0  0.82 0 0  0.83 0 0  0.84 0 0  0.85 0 0  0.86 0 0  0.87 0 0  0.88 0 0  0.89 0 0  0.9 0 0  0.91 0 0  0.92 0 0  0.93 0 0  0.9399999999999999 0 0  0.95 0 0  0.96 0 0  0.97 0 0  0.98 0 0  0.99 0 0  1 0 0  0 0.01 0  0.01 0.01 0  0.02 0.01 0  0.03 0.01 0  0.04 0.01 0  0.05 0.01 0  0.06 0.01 0  0.07000000000000001 0.01 0  0.08 0.01 0  0.09 0.01 0  0.1 0.01 0  0.11 0.01 0  0.12 0.01 0  0.13 0.01 0  0.14 0.01 0  0.15 0.01 0  0.16 0.01 0  0.17 0.01 0  0.18 0.01 0  0.19 0.01 0  0.2 0.01 0  0.21 0.01 0  0.22 0.01 0  0.23 0.01 0  0.24 0.01 0  0.25 0.01 0  0.26 0.01 0  0.27 0.01 0  0.28 0.01 0  0.29 0.01 0  0.3 0.01 0  0.31 0.01 0  0.32 0.01 0  0.33 0.01 0  0.34 0.01 0  0.35 0.01 0  0.36 0.01 0  0.37 0.01 0  0.38 0.01 0  0.39 0.01 0  0.4 0.01 0  0.41 0.01 0  0.42 0.01 0  0.43 0.01 0  0.44 0.01 0  0.45 0.01 0  0.46 0.01 0  0.47 0.01 0  0.48 0.01 0  0.49 0.01 0  0.5 0.01 0  0.51 0.01 0  0.52 0.01 0  0.53 0.01 0  0.54 0.01 0  0.55 0.01 0  0.5600000000000001 0.01 0  0.57 0.01 0  0.58 0.01 0  0.59 0.01 0  0.6 0.01 0  0.61 0.01 0  0.62 0.01 0  0.63 0.01 0  0.64 0.01 0  0.65 0.01 0  0.66 0.01 0  0.67 0.01 0  0.68 0.01 0  0.6899999999999999 0.01 0  0.7 0.01 0  0.71 0.01 0  0.72 0.01 0  0.73 0.01 0  0.74 0.01 0  0.75 0.01 0  0.76 0.01 0  0.77 0.01 0  0.78 0.01 0  0.79 0.01 0  0.8 0.01 0  0.8100000000000001 0.01 0  0.82 0.01 0  0.83 0.01 0  0.84 0.01 0  0.85 0.01 0  0.86 0.01 0  0.87 0.01 0  0.88 0.01 0  0.89 0.01 0  0.9 0.01 0  0.91 0.01 0  0.92 0.01 0  0.93 0.01 0  0.9399999999999999 0.01 0  0.95 0.01 0  0.96 0.01 0  0.97 0.01 0  0.98 0.01 0  0.99 0.01 0  1 0.01 0  0 0.02 0  0.01 0.02 0  0.02 0.02 0  0.03 0.02 0  0.04 0.02 0  0.05 0.02 0  0.06 0.02 0  0.07000000000000001 0.02 0  0.08 0.02 0  0.09 0.02 0  0.1 0.02 0  0.11 0.02 0  0.12 0.02 0  0.13 0.02 0  0.14 0.02 0  0.15 0.02 0  0.16 0.02 0  0.17 0.02 0  0.18 0.02 0  0.19 0.02 0  0.2 0.02 0  0.21 0.02 0  0.22 0.02 0  0.23 0.02 0  0.24 0.02 0  0.25 0.02 0  0.26 0.02 0  0.27 0.02 0  0.28 0.02 0  0.29 0.02 0  0.3 0.02 0  0.31 0.02 0  0.32 0.02 0  0.33 0.02 0  0.34 0.02 0  0.35 0.02 0  0.36 0.02 0  0.37 0.02 0  0.38 0.02 0  0.39 0.02 0  0.4 0.02 0  0.41 0.02 0  0.42 0.02 0  0.43 0.02 0  0.44 0.02 0  0.45 0.02 0  0.46 0.02 0  0.47 0.02 0  0.48 0.02 0  0.49 0.02 0  0.5 0.02 0  0.51 0.02 0  0.52 0.02 0  0.53 0.02 0  0.54 0.02 0  0.55 0.02 0  0.5600000000000001 0.02 0  0.57 0.02 0  0.58 0.02 0  0.59 0.02 0  0.6 0.02 0  0.61 0.02 0  0.62 0.02 0  0.63 0.02 0  0.64 0.02 0  0.65 0.02 0  0.66 0.02 0  0.67 0.02 0  0.68 0.02 0  0.6899999999999999 0.02 0  0.7 0.02 0  0.71 0.02 0  0.72 0.02 0  0.73 0.02 0  0.74 0.02 0  0.75 0.02 0  0.76 0.02 0  0.77 0.02 0  0.78 0.02 0  0.79 0.02 0  0.8 0.02 0  0.8100000000000001 0.02 0  0.82 0.02 0  0.83 0.02 0  0.84 0.02 0  0.85 0.02 0  0.86 0.02 0  0.87 0.02 0  0.88 0.02 0  0.89 0.02 0  0.9 0.02 0  0.91 0.02 0  0.92 0.02 0  0.93 0.02 0  0.9399999999999999 0.02 0  0.95 0.02 0  0.96 0.02 0  0.97 0.02 0  0.98 0.02 0  0.99 0.02 0  1 0.02 0  0 0.03 0  0.01 0.03 0  0.02 0.03 0  0.03 0.03 0  0.04 0.03 0  0.05 0.03 0  0.06 0.03 0  0.07000000000000001 0.03 0  0.08 0.03 0  0.09 0.03 0  0.1 0.03 0  0.11 0.03 0  0.12 0.03 0  0.13 0.03 0  0.14 0.03 0  0.15 0.03 0  0.16 0.03 0  0.17 0.03 0  0.18 0.03 0  0.19 0.03 0  0.2 0.03 0  0.21 0.03 0  0.22 0.03 0  0.23 0.03 0  0.24 0.03 0  0.25 0.03 0  0.26 0.03 0  0.27 0.03 0  0.28 0.03 0  0.29 0.03 0  0.3 0.03 0  0.31 0.03 0  0.32 0.03 0  0.33 0.03 0  0.34 0.03 0  0.35 0.03 0  0.36 0.03 0  0.37 0.03 0  0.38 0.03 0  0.39 0.03 0  0.4 0.03 0  0.41 0.03 0  0.42 0.03 0  0.43 0.03 0  0.44 0.03 0  0.45 0.03 0  0.46 0.03 0  0.47 0.03 0  0.48 0.03 0  0.49 0.03 0  0.5 0.03 0  0.51 0.03 0  0.52 0.03 0  0.53 0.03 0  0.54 0.03 0  0.55 0.03 0  0.5600000000000001 0.03 0  0.57 0.03 0  0.58 0.03 0  0.59 0.03 0  0.6 0.03 0  0.61 0.03 0  0.62 0.03 0  0.63 0.03 0  0.64 0.03 0  0.65 0.03 0  0.66 0.03 0  0.67 0.03 0  0.68 0.03 0  0.6899999999999999 0.03 0  0.7 0.03 0  0.71 0.03 0  0.72 0.03 0  0.73 0.03 0  0.74 0.03 0  0.75 0.03 0  0.76 0.03 0  0.77 0.03 0  0.78 0.03 0  0.79 0.03 0  0.8 0.03 0  0.8100000000000001 0.03 0  0.82 0.03 0  0.83 0.03 0  0.84 0.03 0  0.85 0.03 0  0.86 0.03 0  0.87 0.03 0  0.88 0.03 0  0.89 0.03 0  0.9 0.03 0  0.91 0.03 0  0.92 0.03 0  0.93 0.03 0  0.9399999999999999 0.03 0  0.95 0.03 0  0.96 0.03 0  0.97 0.03 0  0.98 0.03 0  0.99 0.03 0  1 0.03 0  0 0.04 0  0.01 0.04 0  0.02 0.04 0  0.03 0.04 0  0.04 0.04 0  0.05 0.04 0  0.06 0.04 0  0.07000000000000001 0.04 0  0.08 0.04 0  0.09 0.04 0  0.1 0.04 0  0.11 0.04 0  0.12 0.04 0  0.13 0.04 0  0.14 0.04 0  0.15 0.04 0  0.16 0.04 0  0.17 0.04 0  0.18 0.04 0  0.19 0.04 0  0.2 0.04 0  0.21 0.04 0  0.22 0.04 0  0.23 0.04 0  0.24 0.04 0  0.25 0.04 0  0.26 0.04 0  0.27 0.04 0  0.28 0.04 0  0.29 0.04 0  0.3 0.04 0  0.31 0.04 0  0.32 0.04 0  0.33 0.04 0  0.34 0.04 0  0.35 0.04 0  0.36 0.04 0  0.37 0.04 0  0.38 0.04 0  0.39 0.04 0  0.4 0.04 0  0.41 0.04 0  0.42 0.04 0  0.43 0.04 0  0.44 0.04 0  0.45 0.04 0  0.46 0.04 0  0.47 0.04 0  0.48 0.04 0  0.49 0.04 0  0.5 0.04 0  0.51 0.04 0  0.52 0.04 0  0.53 0.04 0  0.54 0.04 0  0.55 0.04 0  0.5600000000000001 0.04 0  0.57 0.04 0  0.58 0.04 0  0.59 0.04 0  0.6 0.04 0  0.61 0.04 0  0.62 0.04 0  0.63 0.04 0  0.64 0.04 0  0.65 0.04 0  0.66 0.04 0  0.67 0.04 0  0.68 0.04 0  0.6899999999999999 0.04 0  0.7 0.04 0  0.71 0.04 0  0.72 0.04 0  0.73 0.04 0  0.74 0.04 0  0.75 0.04 0  0.76 0.04 0  0.77 0.04 0  0.78 0.04 0  0.79 0.04 0  0.8 0.04 0  0.8100000000000001 0.04 0  0.82 0.04 0  0.83 0.04 0  0.84 0.04 0  0.85 0.04 0  0.86 0.04 0  0.87 0.04 0  0.88 0.04 0  0.89 0.04 0  0.9 0.04 0  0.91 0.04 0  0.92 0.04 0  0.93 0.04 0  0.9399999999999999 0.04 0  0.95 0.04 0  0.96 0.04 0  0.97 0.04 0  0.98 0.04 0  0.99 0.04 0  1 0.04 0  0 0.05 0  0.01 0.05 0  0.02 0.05 0  0.03 0.05 0  0.04 0.05 0  0.05 0.05 0  0.06 0.05 0  0.07000000000000001 0.05 0  0.08 0.05 0  0.09 0.05 0  0.1 0.05 0  0.11 0.05 0  0.12 0.05 0  0.13 0.05 0  0.14 0.05 0  0.15 0.05 0  0.16 0.05 0  0.17 0.05 0  0.18 0.05 0  0.19 0.05 0  0.2 0.05 0  0.21 0.05 0  0.22 0.05 0  0.23 0.05 0  0.24 0.05 0  0.25 0.05 0  0.26 0.05 0  0.27 0.05 0  0.28 0.05 0  0.29 0.05 0  0.3 0.05 0  0.31 0.05 0  0.32 0.05 0  0.33 0.05 0  0.34 0.05 0  0.35 0.05 0  0.36 0.05 0  0.37 0.05 0  0.38 0.05 0  0.39 0.05 0  0.4 0.05 0  0.41 0.05 0  0.42 0.05 0  0.43 0.05 0  0.44 0.05 0  0.45 0.05 0  0.46 0.05 0  0.47 0.05 0  0.48 0.05 0  0.49 0.05 0  0.5 0.05 0  0.51 0.05 0  0.52 0.05 0  0.53 0.05 0  0.54 0.05 0  0.55 0.05 0  0.5600000000000001 0.05 0  0.57 0.05 0  0.58 0.05 0  0.59 0.05 0  0.6 0.05 0  0.61 0.05 0  0.62 0.05 0  0.63 0.05 0  0.64 0.05 0  0.65 0.05 0  0.66 0.05 0  0.67 0.05 0  0.68 0.05 0  0.6899999999999999 0.05 0  0.7 0.05 0  0.71 0.05 0  0.72 0.05 0  0.73 0.05 0  0.74 0.05 0  0.75 0.05 0  0.76 0.05 0  0.77 0.05 0  0.78 0.05 0  0.79 0.05 0  0.8 0.05 0  0.8100000000000001 0.05 0  0.82 0.05 0  0.83 0.05 0  0.84 0.05 0  0.85 0.05 0  0.86 0.05 0  0.87 0.05 0  0.88 0.05 0  0.89 0.05 0  0.9 0.05 0  0.91 0.05 0  0.92 0.05 0  0.93 0.05 0  0.9399999999999999 0.05 0  0.95 0.05 0  0.96 0.05 0  0.97 0.05 0  0.98 0.05 0  0.99 0.05 0  1 0.05 0  0 0.06 0  0.01 0.06 0  0.02 0.06 0  0.03 0.06 0  0.04 0.06 0  0.05 0.06 0  0.06 0.06 0  0.07000000000000001 0.06 0  0.08 0.06 0  0.09 0.06 0  0.1 0.06 0  0.11 0.06 0  0.12 0.06 0  0.13 0.06 0  0.14 0.06 0  0.15 0.06 0  0.16 0.06 0  0.17 0.06 0  0.18 0.06 0  0.19 0.06 0  0.2 0.06 0  0.21 0.06 0  0.22 0.06 0  0.23 0.06 0  0.24 0.06 0  0.25 0.06 0  0.26 0.06 0  0.27 0.06 0  0.28 0.06 0  0.29 0.06 0  0.3 0.06 0  0.31 0.06 0  0.32 0.06 0  0.33 0.06 0  0.34 0.06 0  0.35 0.06 0  0.36 0.06 0  0.37 0.06 0  0.38 0.06 0  0.39 0.06 0  0.4 0.06 0  0.41 0.06 0  0.42 0.06 0  0.43 0.06 0  0.44 0.06 0  0.45 0.06 0  0.46 0.06 0  0.47 0.06 0  0.48 0.06 0  0.49 0.06 0  0.5 0.06 0  0.51 0.06 0  0.52 0.06 0  0.53 0.06 0  0.54 0.06 0  0.55 0.06 0  0.5600000000000001 0.06 0  0.57 0.06 0  0.58 0.06 0  0.59 0.06 0  0.6 0.06 0  0.61 0.06 0  0.62 0.06 0  0.63 0.06 0  0.64 0.06 0  0.65 0.06 0  0.66 0.06 0  0.67 0.06 0  0.68 0.06 0  0.6899999999999999 0.06 0  0.7 0.06 0  0.71 0.06 0  0.72 0.06 0  0.73 0.06 0  0.74 0.06 0  0.75 0.06 0  0.76 0.06 0  0.77 0.06 0  0.78 0.06 0  0.79 0.06 0  0.8 0.06 0  0.8100000000000001 0.06 0  0.82 0.06 0  0.83 0.06 0  0.84 0.06 0  0.85 0.06 0  0.86 0.06 0  0.87 0.06 0  0.88 0.06 0  0.89 0.06 0  0.9 0.06 0  0.91 0.06 0  0.92 0.06 0  0.93 0.06 0  0.9399999999999999 0.06 0  0.95 0.06 0  0.96 0.06 0  0.97 0.06 0  0.98 0.06 0  0.99 0.06 0  1 0.06 0  0 0.07000000000000001 0  0.01 0.07000000000000001 0  0.02 0.07000000000000001 0  0.03 0.07000000000000001 0  0.04 0.07000000000000001 0  0.05 0.07000000000000001 0  0.06 0.07000000000000001 0  0.07000000000000001 0.07000000000000001 0  0.08 0.07000000000000001 0  0.09 0.07000000000000001 0  0.1 0.07000000000000001 0  0.11 0.07000000000000001 0  0.12 0.07000000000000001 0  0.13 0.07000000000000001 0  0.14 0.07000000000000001 0  0.15 0.07000000000000001 0  0.16 0.07000000000000001 0  0.17 0.0700
[...]
<PointData  Scalars="Indicator Function"> 
<DataArray  type="Float64"  Name="Indicator Function"  format="ascii">-4.2776184643102221e-19  1.4460716941368919e-18  3.0996575360555427e-17  1.0324590142048516e-18  7.9116867440275465e-17  -1.8059127946204820e-19  -6.3881833905203351e-20  3.3368173283039515e-17  1.4204334488922643e-16  -2.2310910297968822e-19  5.2635471761418025e-17  4.3685283406191355e-17  -1.9780677961044797e-20  -5.7800298506804848e-19  3.0107063217074229e-16  3.8518598887744717e-34  -4.2601407779539324e-19  3.3842354598269299e-16  -7.3227292644236323e-19  -9.4510164460951542e-19  7.8546891988534254e-16  -1.7810435340835724e-18  -9.4324814912967228e-19  4.6219159307354431e-17  -3.0470139127674878e-19  -7.8948255009052430e-19  -7.4613633339801383e-19  -8.8162282724901970e-19  1.1672197853386664e-15  -1.1933626276809088e-18  -2.7323822181255043e-18  -1.3661911090627523e-18  -1.3183292350463031e-18  -1.6292523513684650e-18  7.4711940915074933e-17  -7.1893180055902332e-19  -3.4148660407199309e-18  -5.8375823337835241e-18  -6.5369922932963483e-18  -5.3605776649390525e-18  7.0081083800800068e-16  -4.5016750357415870e-20  -1.2961752877703644e-18  -1.1607865540245381e-18  -1.5379606907811695e-18  -7.6898034539055241e-19  1.8235194711176737e-16  -7.6151656603263079e-19  -2.8209196174894950e-19  -5.0369699694829331e-19  -2.5184849847414685e-19  -3.6934827142780900e-19  -8.5873674811769090e-20  -5.2291053963597761e-19  -2.6557605540089289e-19  -4.8889745269054089e-21  9.6312798180135727e-19  -7.1908018954251254e-20  -3.2058113860741843e-20  -3.8194848005282743e-20  -5.5510916767475124e-21  -7.6788539980215003e-20  -3.1561583126102688e-20  -2.7349278514693502e-20  -2.8021642182221069e-20  -3.2018117327880919e-20  -2.2558106149127866e-20  4.8148248609680896e-35  2.2327448802964649e-17  -4.6244345806170704e-20  -1.3523794501064588e-20  -4.9904271462130667e-21  -2.1528725761972709e-21  -9.3092700345839994e-20  -1.4755355004081250e-19  -8.0664654163855892e-20  -2.6717854101590038e-20  -6.1488552497694660e-20  -6.8168579109316668e-20  -5.6184353631323169e-20  -2.4658919655048134e-20  3.5334933195220625e-17  7.5231638452626401e-37  -8.4865727430050998e-20  -7.7484479516777558e-20  -5.1603123065990564e-20  -1.2138137084727247e-21  -2.0333273858698610e-20  -2.4487685714702458e-20  -7.9136827600488152e-21  -5.8000120188548831e-22  -2.9571534229200167e-21  -8.6961046832011369e-21  3.6930554280850365e-18  -6.7269023733154864e-21  -3.0253555525841129e-21  -2.5824863187484951e-22  -1.7790209892739874e-22  -8.7943347030627952e-22  -2.1158898314801175e-37  3.9966807927957775e-37  -1.9259299443872359e-34  1.5915764233772597e-02  2.8755513101856502e-02  6.1026493092854921e-03  8.4372697168025503e-03  1.9033152971937764e-03  2.3015856269696755e-03  1.2562032419581408e-03  2.4886335890509554e-02  2.3099547658957938e-02  4.0191762921691241e-03  3.1108363116029929e-02  7.1267403115597163e-04  2.0824752225371473e-02  1.6410688723100222e-02  3.8128327454611512e-02  1.5348774736111740e-02  9.3758753591744175e-04  2.6382912629274634e-02  3.4050875315924746e-02  2.4382825674729495e-02  4.1160214938774788e-02  3.2084427985717631e-02  1.6992048051753368e-02  1.0978024577705896e-02  2.8444106547225564e-02  2.6882394504471066e-02  1.6136862059771894e-02  7.8134739152339178e-03  1.5269963902643990e-02  1.3862727990044480e-02  4.9222222157535155e-02  3.3473709104954785e-02  7.0120536543472499e-03  2.5843974302888432e-02  1.2665527348548707e-02  1.8088259375219486e-02  5.2472628026416022e-02  7.8924220479480264e-02  7.8297873985112801e-02  5.7418645304684129e-02  3.1723322806187421e-02  8.1094968054035502e-04  2.2944343331767647e-02  9.4386999027625314e-03  2.7705436775650183e-02  3.3651959166028284e-02  1.3933984741975070e-02  1.3718262892084061e-02  5.0817170152671247e-03  9.0737984310558864e-03  7.1193235024462577e-03  3.0939251990657400e-03  3.8307902161622259e-03  7.5045237377296611e-03  1.0319310277031170e-03  8.8071935430429965e-05  2.5907594189385321e-03  1.1550152770995034e-03  1.3761144259525123e-03  1.9999915525519625e-04  4.9234697623474219e-04  1.1371258720475116e-03  2.5027732586207710e-04  3.6754213917946363e-04  3.2102195957090874e-04  4.1627614528234283e-04  1.9823264114841396e-04  1.2483416417770612e-04  6.9163605431522802e-04  4.8724604700503684e-04  1.7979908668883812e-04  7.7565409055505580e-05  5.1715960289616940e-04  1.5439745782767204e-03  1.8861011627856277e-03  5.1007464434443079e-04  4.8130607110424074e-04  8.6702625291255441e-04  7.9450282344410142e-04  6.1487592459026576e-04  1.3677764318420683e-04  1.3110228250769859e-05  9.1466044456783163e-04  1.0714748114380992e-03  8.6009888659597524e-04  4.9954977994660812e-04  3.7322329671116719e-04  4.2804703381769629e-04  2.2710741213075104e-04  2.9006528851761116e-05  1.0448372786743730e-05  4.8047153820787998e-05  1.3263151833296360e-04  9.3257718564299756e-05  7.7239112198264416e-05  3.9746553999518171e-05  1.5321919603681190e-05  3.2047993057514471e-06  1.4240065343798285e-05  3.9524121042128999e-22  -1.0363692586575379e-18  2.8888328668605244e-03  6.9520585315122202e-03  2.4269398504685484e-03  9.5032890573451979e-03  2.8997473662961955e-02  5.9582611263104199e-03  2.1978138293061784e-02  4.5112723253964600e-03  1.5888137228758967e-02  4.0594838626653758e-02  2.9174556571902731e-02  1.2159294616478748e-02  5.0664355601949575e-02  5.5412226018138361e-02  3.2132215696902874e-02  1.4552102475717952e-02  6.1249507964340907e-02  2.1696430822285142e-02  1.3151661573705821e-02  9.9173474682698048e-03  3.2019557169995549e-02  3.9708034050385921e-02  4.2899632860736288e-02  2.1883920629425364e-02  7.2662867058120959e-04  2.4571535953268289e-02  3.4321428644478805e-02  5.5568623674447704e-02  2.6598218010719449e-02  4.8371214300864336e-02  6.0924432806114717e-02  1.5886154228815206e-02  4.2462064012924905e-02  2.9617441437044954e-02  2.7737627723368189e-02  1.7507771164060538e-02  5.7639650775435626e-02  9.2051063933217339e-02  9.8844284305682276e-02  1.1520534602907365e-01  5.8631222025383033e-02  1.0519360415890680e-02  2.2102564744871192e-03  2.9921278722300874e-02  2.5078869911166098e-02  8.7027466715458232e-03  6.9290167696044128e-03  1.6829070814435979e-02  1.3186757820454821e-02  1.7079209904157344e-02  6.0880978918349954e-03  4.8226481133679987e-03  3.1309112281269215e-03  1.5324852782751495e-02  2.9386622301840544e-03  1.3527743460440035e-03  2.3590645561743328e-03  1.8582634444315410e-03  1.2617249277738303e-03  2.3402441422507186e-03  1.2703006086948584e-03  2.1782902918537771e-03  3.3160508839981157e-04  8.7718937501128928e-04  4.2953459735826569e-04  4.8708271144378145e-04  5.7462852504500941e-04  3.1829588728590424e-05  6.2592929018630489e-04  1.1621431088278422e-03  9.9814007751904184e-05  1.9872949581832702e-04  2.5208387988209103e-05  1.6281571406476277e-03  2.6667108919765383e-03  1.6584302306968208e-03  6.0526962860184329e-04  1.0684378945850232e-03  1.0705467214969402e-03  8.2593041534788272e-04  6.1559572647964036e-04  1.8055774268601233e-04  7.2656056494131065e-04  1.7762359613121496e-03  1.1842134988707194e-03  8.9789350851249283e-04  4.1528019493489334e-04  6.4739906860724304e-04  4.6971186660414358e-04  1.2359881022492661e-04  7.2917419825727602e-05  8.3920673323192215e-06  1.6059796350750060e-04  1.7117167166213023e-04  1.2023371820859150e-04  8.8976316430083087e-05  4.8576773993500250e-05  1.9310971849812004e-05  8.1372341701127984e-06  3.6656446054288902e-22  5.7777898331617076e-34  2.1423088410100700e-02  8.1888124663672991e-03  4.1775164686692436e-02  2.2271140043263873e-02  2.8035066420351853e-04  1.2835192471760321e-04  9.2199019441611832e-04  3.3447663449117627e-03  4.6134593303754183e-02  7.6103212830417086e-02  4.7787901860396775e-02  4.7603910949868863e-02  3.5392226591462662e-02  1.8074335468255400e-02  3.5567608271343094e-02  9.9194251605814937e-02  1.0663767372371787e-02  7.0382677251224950e-03  4.2267720493310221e-02  7.6048788411577001e-02  7.1693077654290741e-02  1.0674233014524187e-01  1.0951148151356840e-01  7.3425860049498748e-02  3.3684211389350585e-02  5.5958647905445809e-02  6.2327350067087048e-02  3.0514500204018007e-02  3.1932140468912712e-02  4.0682827918094341e-02  3.9173287943111056e-02  1.2033156760812799e-01  8.9967481696555204e-02  1.1825856035012881e-03  4.3016544535562813e-02  1.4873589078140801e-02  4.8421403094225650e-02  9.7456645064990799e-02  1.2775264950882656e-01  1.0515322386663836e-01  8.3303183477244122e-02  4.5194191368845740e-02  2.2636717822442410e-02  3.3229015368821550e-02  5.4132080977600432e-03  7.1125963389323810e-02  9.0008215179452664e-02  4.9204586482445460e-02  4.0805923638651882e-02  2.5105265482983748e-02  2.7633616071494692e-02  2.1479888921286869e-02  1.4379402656042974e-03  8.5211956858363917e-03  1.6168993964195789e-02  4.2074117115086076e-03  2.2255555739189884e-03  6.7547608285672559e-03  2.9145973236710302e-03  2.6237743555184009e-03  2.1603030999165193e-04  2.8782299236925190e-04  2.5296045380143717e-03  1.2782628711058115e-03  8.8699868992802872e-04  3.7925001349130186e-04  6.7708068189507821e-04  3.5758722450760839e-04  8.1729815461565206e-05  1.3842658618393427e-03  8.3838613019745643e-04  7.9897969945096666e-04  2.5462711788873550e-04  7.9270939329217297e-04  2.7812779908499567e-03  2.9426619370710532e-03  1.0924217712322486e-04  1.4388345295985778e-03  1.2273045101311951e-03  8.6769362713112177e-04  7.2150440917107016e-04  1.3937897529604649e-04  4.6899932745095319e-05  1.8999308114317605e-03  1.8563102532864447e-03  1.0092618619167869e-03  5.4849700903912991e-04  4.8321013827613303e-04  8.1361398483985607e-04  2.9243760819758940e-04  6.2650018285438232e-05  4.5970918446669028e-05  3.1732750335931463e-05  2.4121747004105055e-04  1.3662818052953337e-04  1.2353500043370646e-04  7.2683115159255648e-05  4.6710587978687492e-05  2.2633478032809248e-05  -3.1410260549215745e-21  -4.2344532327831890e-19  9.3263409825542574e-03  1.0596511254822092e-02  1.8734023287943418e-02  1.0031400685031176e-04  3.7048939064409439e-03  2.9056965209090721e-02  3.2224817055730229e-02  3.3217147535037239e-02  1.6567697071744061e-02  4.8154737737498956e-03  2.4760349794212502e-02  4.1988704756771730e-02  5.4772951573669480e-02  5.1831169984043614e-02  1.1109705541706955e-01  2.8660106791342314e-04  4.1882243291509460e-03  7.9917017017341427e-02  5.1100369997249900e-02  4.2867689961732354e-02  4.7082100672289878e-02  5.5943415047749181e-03  1.9697943774577689e-02  2.4163245873140237e-02  1.8146039099734647e-02  7.3690389979962790e-03  6.1961941335054019e-02  7.9607744667826316e-02  9.0226832170967303e-02  4.1360152601555143e-02  6.9815736648642560e-02  8.5566109203095722e-02  4.9752850800693978e-02  1.0504176751018098e-01  2.2071840365387351e-02  2.8478817597241995e-02  3.0136896217443941e-02  7.9276724293436449e-02  1.1807775868000213e-01  1.2604114653572340e-01  1.3473830556324115e-01  4.6464464760842115e-02  2.6577493669965192e-02  1.4810383912844552e-03  4.3208033713713491e-02  4.4086818168731938e-02  1.5074612604177010e-02  4.6219389819491967e-02  1.6497443360706902e-03  9.9609082021870701e-03  1.5161948948987689e-02  1.4469500204918712e-03  1.3474533039384760e-02  2.7253957450198898e-03  2.5029513606955382e-02  3.7884229427336429e-03  6.9110901424676080e-03  1.8254370898294966e-03  5.0568345911045911e-03  3.6720702218735086e-03  4.4803403763146767e-03  2.5986250794044559e-03  3.1539455599365281e-03  6.6394001197479270e-04  1.9524893199572291e-03  6.0947594934053940e-04  4.7497720623433545e-04  7.5967537842893892e-04  7.2404247584301768e-05  7.0673408602808091e-04  1.7917357707931563e-03  2.7562169570488398e-04  6.2851509802103189e-04  3.5433564980907629e-04  2.0512074166121842e-03  3.5672630037356574e-03  1.8889565634305644e-03  1.8068618849815506e-03  1.7140647496089148e-03  1.0607719916991506e-03  6.4949893120788249e-04  5.7563807144837083e-04  4.6155847197728786e-04  8.9192256458232595e-04  2.6624122638545722e-03  1.3793949077406562e-03  7.9925777237143433e-04  2.2349774886351091e-04  7.8336077988177069e-04  6.8283602422458580e-04  6.5438289856892509e-05  1.7666345274134206e-04  4.6238073834962599e-05  1.6046097413261880e-04  2.1740219807930841e-04  1.1488352576129871e-04  9.7798261097162961e-05  5.3603319541590008e-05  2.9716314630033095e-05  -4.2473204846409547e-22  -1.3508316008677932e-18  4.1177752808834650e-02  3.6461402965501856e-02  4.7032234597868929e-03  4.7188449811775529e-02  4.6209775783552572e-02  5.2596468131055037e-03  1.6542261329518023e-02  9.4676734131645575e-03  2.4610176237938639e-02  4.4439233445557176e-02  8.9587062163514627e-02  8.7054004419502409e-02  2.2654590162766854e-02  3.9003214599327499e-02  1.7259762740367616e-02  6.7914075342726567e-03  1.2016514504323313e-01  4.0803822289433363e-02  3.0651343074547997e-02  2.3480179662049801e-02  7.5816534208168057e-02  7.8137591269907616e-02  1.2851103620818174e-01  1.4979052037975538e-01  1.1416338681336551e-01  5.3820137802853260e-02  5.6238370745869105e-02  6.0216739547457793e-02  2.0250028234096020e-02  6.8422186576969468e-02  7.2366429985051911e-02  6.5939424518161260e-02  1.7412719916719674e-01  9.7338254673211499e-02  2.4171547880357330e-02  5.4012205595944614e-02  1.7315576625163920e-02  7.1091182139682532e-02  1.2144056195255230e-01  1.4317611057206553e-01  1.1054054672598561e-01  1.0157094808227662e-01  3.8308959422525664e-02  5.4984671959944255e-02  3.3514616601543312e-02  4.6986609950026466e-03  9.9817303145633557e-02  1.0761960535888326e-01  5.3707375579995900e-02  5.1251256236912963e-02  4.0170586953079880e-02  3.9558550879448803e-02  2.9468288823903132e-02  2.9484577225660446e-03  9.1746134892620648e-03  2.5265678215229952e-02  8.1709961176138039e-03  6.0376076525402392e-03  8.3629766477867351e-03  2.4184911501479171e-03  1.6962618529795734e-03  9.1747605063044566e-04  8.3340774225910377e-04  3.8081690535944211e-03  1.7637845646714565e-03  1.5611750766573354e-03  4.1042002873208983e-04  7.1674569940240521e-04  4.7227857276169416e-04  1.0812589151871783e-04  1.6702112615236979e-03  1.2576117125204769e-03  1.2526422049622731e-03  2.3562579658782993e-04  5.1257434706907326e-04  3.3377384695229841e-03  3.5808933654104106e-03  4.6424947713708821e-04  2.4979917504365508e-03  1.5385942912522895e-03  7.2115191920191766e-04  5.8535459171546369e-04  4.4630695509215214e-05  3.3613211956957202e-04  2.2804852218416883e-03  2.4616503123501784e-03  9.2428090903873782e-04  4.0772108214519044e-04  3.0915513339237877e-04  1.0045070165966086e-03  3.5733523208488849e-04  1.6115160874178352e-04  1.0493517078816274e-04  1.9293508237456758e-05  2.6272387941496546e-04  1.4278038074235611e-04  1.1073127942158303e-04  6.4047980750275079e-05  3.4975477355788845e-05  -1.9415290128826301e-21  -1.4835537439073846e-19  2.5952391443627119e-02  5.0944146471225051e-03  8.0649799515055565e-03  3.8088581854054331e-02  2.2383159355514215e-02  3.0189536463219764e-03  2.0609186634039278e-02  3.9439294471150410e-02  3.0388122038080778e-02  1.3765974739772143e-02  1.7776662230106835e-02  9.8659098224180824e-03  8.0086596893859403e-03  7.7055233274231152e-02  2.4270814273941774e-02  1.1668703895499366e-01  2.0536946837908333e-02  2.4747872967823971e-02  6.2250216929118481e-02  4.8798482538878113e-02  4.7506076790022979e-02  7.2588701267572012e-02  2.0633138158536003e-02  1.3290906185441152e-02  2.4268983795722305e-02  1.3321652511330292e-02  1.5639373575676196e-02  8.1879474672659158e-02  1.0955762229255758e-01  1.0043703171956410e-01  2.6703097131516321e-02  8.9064966265921086e-02  8.2753896564109961e-02  8.7533721339762866e-02  1.4735795135623572e-01  1.5395791247075515e-02  3.2175509289556460e-02  2.9189600407331255e-02  9.5880876048367925e-02  1.4104219441972549e-01  1.4638579828602041e-01  1.3521209410638926e-01  4.1868567023587745e-02  3.0650742980899461e-02  1.8357560676196677e-02  5.2085413532047695e-02  5.4912377636606058e-02  4.2372490550086753e-02  8.2676384642109121e-02  2.4529873307847803e-02  4.7016147767443787e-03  1.9708002966609848e-03  1.0435691788983530e-02  2.4712668906348528e-02  1.1722385576628791e-03  2.9393064739966987e-02  8.2087310637609674e-03  1.2599669833427416e-02  5.7029876525586548e-05  7.8390984839445624e-03  5.1238086687037110e-03  5.1242652212348961e-03  2.8440227269490043e-03  2.9725171316919564e-03  1.4560750294475549e-03  2.8232160388193942e-03  9.3827073494669438e-04  4.6916266112027568e-04  8.4065795810902156e-04  4.5132633125757178e-05  6.2060813398092242e-04  2.2346506292970050e-03  1.4546893583673910e-04  1.0812966612252152e-03  6.4426790595226559e-04  2.0616576584787079e-03  4.2237980707778349e-03  2.1911055377571353e-03  2.6369652340662562e-03  2.4687521140124278e-03  1.0784977876935411e-03  4.4141659154650636e-04  4.5946328298307378e-04  6.3265223135645313e-04  8.3802835768908538e-04  3.2012260029213526e-03  1.6830447413255123e-03  5.9357630982433747e-04  5.3675022113968836e-05  7.3187103504977757e-04  8.8000318968803261e-04  2.8600880089362143e-05  2.7758557035263785e-04  3.3131071420497817e-05  1.3378432589523096e-04  2.4920452037579567e-04  1.1033138739164238e-04  9.0364722260371618e-05  3.9045837900070863e-05  -2.1674794126220115e-21  -5.4301442036565610e-19  2.6725328352981761e-03  1.6575878583786462e-02  9.0965147859531081e-03  2.9674386646745314e-02  3.0836241093254536e-02  5.1666494085092746e-02  2.7705566971952577e-03  3.2883771007488780e-02  2.2134509504265435e-02  3.5636843033306512e-02  3.3997806041065781e-02  7.5937783979616993e-02  7.4273614827551862e-02  1.2013005105724115e-02  1.0066684973733749e-02  2.4212267440333300e-02  2.8300888067369457e-02  1.0453227180292993e-01  3.3672534978836169e-02  3.1226880195001062e-02  5.9219689994208591e-03  5.7666222231261652e-02  5.1524528994672740e-02  1.0834085086621377e-01  1.3348511724382753e-01  1.0061161479977881e-01  4.7917011682498074e-02  4.5653113643238340e-02  3.8548261011519855e-02  1.3676577805473442e-03  9.1485888504485469e-02  9.2932517418735469e-02  7.9540318764652035e-02  2.0047927550369743e-01  7.4300367222829677e-02  7.1593254972603146e-02  5.5285413569487900e-02  1.6967085457680667e-02  8.6429756632354748e-02  1.4025239247576371e-01  1.5560607701266441e-01  1.2476089275272065e-01  1.1201330957543304e-01  2.4046025845056971e-02  7.4420832268600634e-02  3.7999733310035450e-02  4.4657801229609608e-03  1.1424601883132850e-01  9.5129019855007116e-02  2.4167938970834548e-02  3.4840020919131305e-02  3.4585277195029615e-02  3.6172960541547797e-02  2.5277772240022860e-02  1.0349767490197824e-02  1.1053744018706475e-02  3.2228404207603582e-02  8.2714469819065353e-03  1.1094016635187420e-02  7.8140188034616174e-03  4.8870042954698661e-05  1.6179012947012902e-04  2.2034747595855953e-03  1.7788581246167086e-03  4.3827539532826530e-03  1.6368258383497082e-03  2.3792115953470282e-03  5.9160202632823841e-04  7.3642554147810950e-04  5.8190759612019303e-04  1.4750708917106477e-04  1.7565843146783654e-03  1.7069731276544518e-03  1.3600916401413342e-03  2.3999670578493790e-05  1.3793094134040317e-04  3.6258389088025286e-03  4.1745364392635122e-03  4.9995387050953178e-04  3.5310421024609515e-03  2.0281992398203286e-03  5.8870200174879976e-04  3.9666520338431924e-04  9.8615180799193085e-05  5.2907754555335583e-04  2.4520449762715133e-03  3.0250103388202352e-03  1.0060090774239106e-03  2.1413921539604290e-04  1.2714615078870934e-04  1.0656840225922769e-03  4.9978711117714271e-04  2.4322909487121971e-04  1.7761210261626068e-04  2.8439616469423140e-05  2.5706735969320202e-04  1.6982671870141464e-04  1.0605473851900788e-04  5.8216037818140160e-05  -8.0790981985185164e-21  -2.4406241030502607e-19  1.0330279816782272e-02  9.9037012125704812e-03  1.0509955218236928e-02  1.4121348055116674e-02  1.8418514163067046e-02  4.2281309719030942e-02  7.1684576464458244e-03  9.1952482907073866e-03  3.1358900319014275e-02  2.8206471678762803e-02  6.0879009013047160e-03  7.0012351690979229e-03  1.4628030479283740e-02  1.9880375671978045e-02  6.3696581381123038e-02  1.5485677682646743e-02