<?xml version="1.0"?>
<VTKFile type="UnstructuredGrid"  version="0.1"  >
<UnstructuredGrid>
<Piece  NumberOfPoints="2601" NumberOfCells="5000">
<Points>
<DataArray  type="Float64"  NumberOfComponents="3"  format="ascii">0 0 0  0.02 0 0  0.04 0 0  0.06 0 0  0.08 0 0  0.1 0 0  0.12 0 0  0.14 0 0  0.16 0 0  0.18 0 0  0.2 0 0  0.22 0 0  0.24 0 0  0.26 0 0  0.28 0 0  0.3 0 0  0.32 0 0  0.34 0 0  0.36 0 0  0.38 0 0  0.4 0 0  0.42 0 0  0.44 0 0  0.46 0 0  0.48 0 0  0.5 0 0  0.52 0 0  0.54 0 0  0.5600000000000001 0 0  0.58 0 0  0.6 0 0  0.62 0 0  0.64 0 0  0.66 0 0  0.68 0 0  0.7 0 0  0.72 0 0  0.74 0 0  0.76 0 0  0.78 0 0  0.8 0 0  0.82 0 0  0.84 0 0  0.86 0 0  0.88 0 0  0.9 0 0  0.92 0 0  0.9399999999999999 0 0  0.96 0 0  0.98 0 0  1 0 0  0 0.02 0  0.02 0.02 0  0.04 0.02 0  0.06 0.02 0  0.08 0.02 0  0.1 0.02 0  0.12 0.02 0  0.14 0.02 0  0.16 0.02 0  0.18 0.02 0  0.2 0.02 0  0.22 0.02 0  0.24 0.02 0  0.26 0.02 0  0.28 0.02 0  0.3 0.02 0  0.32 0.02 0  0.34 0.02 0  0.36 0.02 0  0.38 0.02 0  0.4 0.02 0  0.42 0.02 0  0.44 0.02 0  0.46 0.02 0  0.48 0.02 0  0.5 0.02 0  0.52 0.02 0  0.54 0.02 0  0.5600000000000001 0.02 0  0.58 0.02 0  0.6 0.02 0  0.62 0.02 0  0.64 0.02 0  0.66 0.02 0  0.68 0.02 0  0.7 0.02 0  0.72 0.02 0  0.74 0.02 0  0.76 0.02 0  0.78 0.02 0  0.8 0.02 0  0.82 0.02 0  0.84 0.02 0  0.86 0.02 0  0.88 0.02 0  0.9 0.02 0  0.92 0.02 0  0.9399999999999999 0.02 0  0.96 0.02 0  0.98 0.02 0  1 0.02 0  0 0.04 0  0.02 0.04 0  0.04 0.04 0  0.06 0.04 0  0.08 0.04 0  0.1 0.04 0  0.12 0.04 0  0.14 0.04 0  0.16 0.04 0  0.18 0.04 0  0.2 0.04 0  0.22 0.04 0  0.24 0.04 0  0.26 0.04 0  0.28 0.04 0  0.3 0.04 0  0.32 0.04 0  0.34 0.04 0  0.36 0.04 0  0.38 0.04 0  0.4 0.04 0  0.42 0.04 0  0.44 0.04 0  0.46 0.04 0  0.48 0.04 0  0.5 0.04 0  0.52 0.04 0  0.54 0.04 0  0.5600000000000001 0.04 0  0.58 0.04 0  0.6 0.04 0  0.62 0.04 0  0.64 0.04 0  0.66 0.04 0  0.68 0.04 0  0.7 0.04 0  0.72 0.04 0  0.74 0.04 0  0.76 0.04 0  0.78 0.04 0  0.8 0.04 0  0.82 0.04 0  0.84 0.04 0  0.86 0.04 0  0.88 0.04 0  0.9 0.04 0  0.92 0.04 0  0.9399999999999999 0.04 0  0.96 0.04 0  0.98 0.04 0  1 0.04 0  0 0.06 0  0.02 0.06 0  0.04 0.06 0  0.06 0.06 0  0.08 0.06 0  0.1 0.06 0  0.12 0.06 0  0.14 0.06 0  0.16 0.06 0  0.18 0.06 0  0.2 0.06 0  0.22 0.06 0  0.24 0.06 0  0.26 0.06 0  0.28 0.06 0  0.3 0.06 0  0.32 0.06 0  0.34 0.06 0  0.36 0.06 0  0.38 0.06 0  0.4 0.06 0  0.42 0.06 0  0.44 0.06 0  0.46 0.06 0  0.48 0.06 0  0.5 0.06 0  0.52 0.06 0  0.54 0.06 0  0.5600000000000001 0.06 0  0.58 0.06 0  0.6 0.06 0  0.62 0.06 0  0.64 0.06 0  0.66 0.06 0  0.68 0.06 0  0.7 0.06 0  0.72 0.06 0  0.74 0.06 0  0.76 0.06 0  0.78 0.06 0  0.8 0.06 0  0.82 0.06 0  0.84 0.06 0  0.86 0.06 0  0.88 0.06 0  0.9 0.06 0  0.92 0.06 0  0.9399999999999999 0.06 0  0.96 0.06 0  0.98 0.06 0  1 0.06 0  0 0.08 0  0.02 0.08 0  0.04 0.08 0  0.06 0.08 0  0.08 0.08 0  0.1 0.08 0  0.12 0.08 0  0.14 0.08 0  0.16 0.08 0  0.18 0.08 0  0.2 0.08 0  0.22 0.08 0  0.24 0.08 0  0.26 0.08 0  0.28 0.08 0  0.3 0.08 0  0.32 0.08 0  0.34 0.08 0  0.36 0.08 0  0.38 0.08 0  0.4 0.08 0  0.42 0.08 0  0.44 0.08 0  0.46 0.08 0  0.48 0.08 0  0.5 0.08 0  0.52 0.08 0  0.54 0.08 0  0.5600000000000001 0.08 0  0.58 0.08 0  0.6 0.08 0  0.62 0.08 0  0.64 0.08 0  0.66 0.08 0  0.68 0.08 0  0.7 0.08 0  0.72 0.08 0  0.74 0.08 0  0.76 0.08 0  0.78 0.08 0  0.8 0.08 0  0.82 0.08 0  0.84 0.08 0  0.86 0.08 0  0.88 0.08 0  0.9 0.08 0  0.92 0.08 0  0.9399999999999999 0.08 0  0.96 0.08 0  0.98 0.08 0  1 0.08 0  0 0.1 0  0.02 0.1 0  0.04 0.1 0  0.06 0.1 0  0.08 0.1 0  0.1 0.1 0  0.12 0.1 0  0.14 0.1 0  0.16 0.1 0  0.18 0.1 0  0.2 0.1 0  0.22 0.1 0  0.24 0.1 0  0.26 0.1 0  0.28 0.1 0  0.3 0.1 0  0.32 0.1 0  0.34 0.1 0  0.36 0.1 0  0.38 0.1 0  0.4 0.1 0  0.42 0.1 0  0.44 0.1 0  0.46 0.1 0  0.48 0.1 0  0.5 0.1 0  0.52 0.1 0  0.54 0.1 0  0.5600000000000001 0.1 0  0.58 0.1 0  0.6 0.1 0  0.62 0.1 0  0.64 0.1 0  0.66 0.1 0  0.68 0.1 0  0.7 0.1 0  0.72 0.1 0  0.74 0.1 0  0.76 0.1 0  0.78 0.1 0  0.8 0.1 0  0.82 0.1 0  0.84 0.1 0  0.86 0.1 0  0.88 0.1 0  0.9 0.1 0  0.92 0.1 0  0.9399999999999999 0.1 0  0.96 0.1 0  0.98 0.1 0  1 0.1 0  0 0.12 0  0.02 0.12 0  0.04 0.12 0  0.06 0.12 0  0.08 0.12 0  0.1 0.12 0  0.12 0.12 0  0.14 0.12 0  0.16 0.12 0  0.18 0.12 0  0.2 0.12 0  0.22 0.12 0  0.24 0.12 0  0.26 0.12 0  0.28 0.12 0  0.3 0.12 0  0.32 0.12 0  0.34 0.12 0  0.36 0.12 0  0.38 0.12 0  0.4 0.12 0  0.42 0.12 0  0.44 0.12 0  0.46 0.12 0  0.48 0.12 0  0.5 0.12 0  0.52 0.12 0  0.54 0.12 0  0.5600000000000001 0.12 0  0.58 0.12 0  0.6 0.12 0  0.62 0.12 0  0.64 0.12 0  0.66 0.12 0  0.68 0.12 0  0.7 0.12 0  0.72 0.12 0  0.74 0.12 0  0.76 0.12 0  0.78 0.12 0  0.8 0.12 0  0.82 0.12 0  0.84 0.12 0  0.86 0.12 0  0.88 0.12 0  0.9 0.12 0  0.92 0.12 0  0.9399999999999999 0.12 0  0.96 0.12 0  0.98 0.12 0  1 0.12 0  0 0.14 0  0.02 0.14 0  0.04 0.14 0  0.06 0.14 0  0.08 0.14 0  0.1 0.14 0  0.12 0.14 0  0.14 0.14 0  0.16 0.14 0  0.18 0.14 0  0.2 0.14 0  0.22 0.14 0  0.24 0.14 0  0.26 0.14 0  0.28 0.14 0  0.3 0.14 0  0.32 0.14 0  0.34 0.14 0  0.36 0.14 0  0.38 0.14 0  0.4 0.14 0  0.42 0.14 0  0.44 0.14 0  0.46 0.14 0  0.48 0.14 0  0.5 0.14 0  0.52 0.14 0  0.54 0.14 0  0.5600000000000001 0.14 0  0.58 0.14 0  0.6 0.14 0  0.62 0.14 0  0.64 0.14 0  0.66 0.14 0  0.68 0.14 0  0.7 0.14 0  0.72 0.14 0  0.74 0.14 0  0.76 0.14 0  0.78 0.14 0  0.8 0.14 0  0.82 0.14 0  0.84 0.14 0  0.86 0.14 0  0.88 0.14 0  0.9 0.14 0  0.92 0.14 0  0.9399999999999999 0.14 0  0.96 0.14 0  0.98 0.14 0  1 0.14 0  0 0.16 0  0.02 0.16 0  0.04 0.16 0  0.06 0.16 0  0.08 0.16 0  0.1 0.16 0  0.12 0.16 0  0.14 0.16 0  0.16 0.16 0  0.18 0.16 0  0.2 0.16 0  0.22 0.16 0  0.24 0.16 0  0.26 0.16 0  0.28 0.16 0  0.3 0.16 0  0.32 0.16 0  0.34 0.16 0  0.36 0.16 0  0.38 0.16 0  0.4 0.16 0  0.42 0.16 0  0.44 0.16 0  0.46 0.16 0  0.48 0.16 0  0.5 0.16 0  0.52 0.16 0  0.54 0.16 0  0.5600000000000001 0.16 0  0.58 0.16 0  0.6 0.16 0  0.62 0.16 0  0.64 0.16 0  0.66 0.16 0  0.68 0.16 0  0.7 0.16 0  0.72 0.16 0  0.74 0.16 0  0.76 0.16 0  0.78 0.16 0  0.8 0.16 0  0.82 0.16 0  0.84 0.16 0  0.86 0.16 0  0.88 0.16 0  0.9 0.16 0  0.92 0.16 0  0.9399999999999999 0.16 0  0.96 0.16 0  0.98 0.16 0  1 0.16 0  0 0.18 0  0.02 0.18 0  0.04 0.18 0  0.06 0.18 0  0.08 0.18 0  0.1 0.18 0  0.12 0.18 0  0.14 0.18 0  0.16 0.18 0  0.18 0.18 0  0.2 0.18 0  0.22 0.18 0  0.24 0.18 0  0.26 0.18 0  0.28 0.18 0  0.3 0.18 0  0.32 0.18 0  0.34 0.18 0  0.36 0.18 0  0.38 0.18 0  0.4 0.18 0  0.42 0.18 0  0.44 0.18 0  0.46 0.18 0  0.48 0.18 0  0.5 0.18 0  0.52 0.18 0  0.54 0.18 0  0.5600000000000001 0.18 0  0.58 0.18 0  0.6 0.18 0  0.62 0.18 0  0.64 0.18 0  0.66 0.18 0  0.68 0.18 0  0.7 0.18 0  0.72 0.18 0  0.74 0.18 0  0.76 0.18 0  0.78 0.18 0  0.8 0.18 0  0.82 0.18 0  0.84 0.18 0  0.86 0.18 0  0.88 0.18 0  0.9 0.18 0  0.92 0.18 0  0.9399999999999999 0.18 0  0.96 0.18 0  0.98 0.18 0  1 0.18 0  0 0.2 0  0.02 0.2 0  0.04 0.2 0  0.06 0.2 0  0.08 0.2 0  0.1 0.2 0  0.12 0.2 0  0.14 0.2 0  0.16 0.2 0  0.18 0.2 0  0.2 0.2 0  0.22 0.2 0  0.24 0.2 0  0.26 0.2 0  0.28 0.2 0  0.3 0.2 0  0.32 0.2 0  0.34 0.2 0  0.36 0.2 0  0.38 0.2 0  0.4 0.2 0  0.42 0.2 0  0.44 0.2 0  0.46 0.2 0  0.48 0.2 0  0.5 0.2 0  0.52 0.2 0  0.54 0.2 0  0.5600000000000001 0.2 0  0.58 0.2 0  0.6 0.2 0  0.62 0.2 0  0.64 0.2 0  0.66 0.2 0  0.68 0.2 0  0.7 0.2 0  0.72 0.2 0  0.74 0.2 0  0.76 0.2 0  0.78 0.2 0  0.8 0.2 0  0.82 0.2 0  0.84 0.2 0  0.86 0.2 0  0.88 0.2 0  0.9 0.2 0  0.92 0.2 0  0.9399999999999999 0.2 0  0.96 0.2 0  0.98 0.2 0  1 0.2 0  0 0.22 0  0.02 0.22 0  0.04 0.22 0  0.06 0.22 0  0.08 0.22 0  0.1 0.22 0  0.12 0.22 0  0.14 0.22 0  0.16 0.22 0  0.18 0.22 0  0.2 0.22 0  0.22 0.22 0  0.24 0.22 0  0.26 0.22 0  0.28 0.22 0  0.3 0.22 0  0.32 0.22 0  0.34 0.22 0  0.36 0.22 0  0.38 0.22 0  0.4 0.22 0  0.42 0.22 0  0.44 0.22 0  0.46 0.22 0  0.48 0.22 0  0.5 0.22 0  0.52 0.22 0  0.54 0.22 0  0.5600000000000001 0.22 0  0.58 0.22 0  0.6 0.22 0  0.62 0.22 0  0.64 0.22 0  0.66 0.22 0  0.68 0.22 0  0.7 0.22 0  0.72 0.22 0  0.74 0.22 0  0.76 0.22 0  0.78 0.22 0  0.8 0.22 0  0.82 0.22 0  0.84 0.22 0  0.86 0.22 0  0.88 0.22 0  0.9 0.22 0  0.92 0.22 0  0.9399999999999999 0.22 0  0.96 0.22 0  0.98 0.22 0  1 0.22 0  0 0.24 0  0.02 0.24 0  0.04 0.24 0  0.06 0.24 0  0.08 0.24 0  0.1 0.24 0  0.12 0.24 0  0.14 0.24 0  0.16 0.24 0  0.18 0.24 0  0.2 0.24 0  0.22 0.24 0  0.24 0.24 0  0.26 0.24 0  0.28 0.24 0  0.3 0.24 0  0.32 0.24 0  0.34 0.24 0  0.36 0.24 0  0.38 0.24 0  0.4 0.24 0  0.42 0.24 0  0.44 0.24 0  0.46 0.24 0  0.48 0.24 0  0.5 0.24 0  0.52 0.24 0  0.54 0.24 0  0.5600000000000001 0.24 0  0.58 0.24 0  0.6 0.24 0  0.62 0.24 0  0.64 0.24 0  0.66 0.24 0  0.68 0.24 0  0.7 0.24 0  0.72 0.24 0  0.74 0.24 0  0.76 0.24 0  0.78 0.24 0  0.8 0.24 0  0.82 0.24 0  0.84 0.24 0  0.86 0.24 0  0.88 0.24 0  0.9 0.24 0  0.92 0.24 0  0.9399999999999999 0.24 0  0.96 0.24 0  0.98 0.24 0  1 0.24 0  0 0.26 0  0.02 0.26 0  0.04 0.26 0  0.06 0.26 0  0.08 0.26 0  0.1 0.26 0  0.12 0.26 0  0.14 0.26 0  0.16 0.26 0  0.18 0.26 0  0.2 0.26 0  0.22 0.26 0  0.24 0.26 0  0.26 0.26 0  0.28 0.26 0  0.3 0.26 0  0.32 0.26 0  0.34 0.26 0  0.36 0.26 0  0.38 0.26 0  0.4 0.26 0  0.42 0.26 0  0.44 0.26 0  0.46 0.26 0  0.48 0.26 0  0.5 0.26 0  0.52 0.26 0  0.54 0.26 0  0.5600000000000001 0.26 0  0.58 0.26 0  0.6 0.26 0  0.62 0.26 0  0.64 0.26 0  0.66 0.26 0  0.68 0.26 0  0.7 0.26 0  0.72 0.26 0  0.74 0.26 0  0.76 0.26 0  0.78 0.26 0  0.8 0.26 0  0.82 0.26 0  0.84 0.26 0  0.86 0.26 0  0.88 0.26 0  0.9 0.26 0  0.92 0.26 0  0.9399999999999999 0.26 0  0.96 0.26 0  0.98 0.26 0  1 0.26 0  0 0.28 0  0.02 0.28 0  0.04 0.28 0  0.06 0.28 0  0.08 0.28 0  0.1 0.28 0  0.12 0.28 0  0.14 0.28 0  0.16 0.28 0  0.18 0.28 0  0.2 0.28 0  0.22 0.28 0  0.24 0.28 0  0.26 0.28 0  0.28 0.28 0  0.3 0.28 0  0.32 0.28 0  0.34 0.28 0  0.36 0.28 0  0.38 0.28 0  0.4 0.28 0  0.42 0.28 0  0.44 0.28 0  0.46 0.28 0  0.48 0.28 0  0.5 0.28 0  0.52 0.28 0  0.54 0.28 0  0.5600000000000001 0.28 0  0.58 0.28 0  0.6 0.28 0  0.62 0.28 0  0.64 0.28 0  0.66 0.28 0  0.68 0.28 0  0.7 0.28 0  0.72 0.28 0  0.74 0.28 0  0.76 0.28 0  0.78 0.28 0  0.8 0.28 0  0.82 0.28 0  0.84 0.28 0  0.86 0.28
[...]
<PointData  Scalars="Indicator Function"> 
<DataArray  type="Float64"  Name="Indicator Function"  format="ascii">-2.1718561811764163e-21  1.5278921111990019e-17  -1.6219050723723775e-18  2.9968321498660264e-17  9.4032459085549697e-18  -4.3352347191217575e-19  -1.9467390731652747e-18  4.2125911346802490e-16  2.1445919171476481e-16  -9.9781377641344666e-19  1.8008561529560912e-16  4.7450093272030859e-16  -3.0409798408209030e-19  -1.0281903414436906e-32  -5.3004394737718647e-17  -2.0798868007003946e-18  -7.7196988790508156e-19  2.4146677756657857e-16  -9.1762349781961303e-19  -1.3845308687159966e-18  1.3361635580204117e-16  -1.0878634652708585e-18  -9.8777254696997160e-19  4.8049538009249331e-16  1.6065474085057666e-34  -6.6048894103556767e-19  -3.0489650023971789e-19  -1.5299724538551109e-19  1.6007232159901243e-16  -1.1555062202162646e-21  -3.2103865059457240e-20  -1.6051932529728629e-20  -7.9697124693783295e-20  -9.9033224222978146e-20  -2.7606353722070490e-19  -5.3345344585975567e-20  5.0204606515805207e-36  -2.2124569325522147e-20  -6.5722769451477996e-20  -7.3432672813657297e-20  4.1381731826249169e-17  -3.3883403310978754e-20  -6.3659401388214793e-20  -7.0233983010993668e-20  -6.0216095668746940e-20  -3.2654635480101608e-20  1.6635132083359956e-18  -7.1906711394892011e-21  -2.9907144871571094e-21  -1.4793511956825247e-21  5.0204606515805207e-36  -8.3528414976280964e-19  8.0298626064933872e-03  2.5658836426982060e-03  1.8554296183897836e-03  1.0908957216260029e-02  1.5619329172480299e-02  7.2620820517304446e-04  3.5069333457978816e-02  1.5840248727568257e-02  3.2249341612301440e-02  1.7975015006562955e-02  3.2424765080961170e-03  1.0956284542369764e-02  1.0362892183761624e-02  1.8700556243166674e-02  1.9309526572686593e-02  2.7813146396085151e-02  3.6567548457478831e-02  2.2670271355509065e-02  9.0427560264558747e-03  2.0420112804501268e-02  3.4819797500991789e-02  2.1873072367993599e-03  1.7794128297843114e-02  1.5618203411194492e-02  1.8265137519823298e-03  1.0985054118929293e-02  5.5123066984550601e-03  7.0300652675327289e-04  4.1631499062321777e-05  4.7133494636533329e-05  5.7833181887569714e-04  5.2673256474212071e-04  1.1723294819226291e-03  1.1978592258702959e-03  1.2363453252283321e-03  3.4281163338323491e-04  1.2816688859302512e-04  3.9856080868061689e-04  9.8467575570542441e-04  8.3050755382890794e-04  3.7369102337435459e-04  4.2354361841429527e-04  9.3501401627522419e-04  7.9771595073061495e-04  6.8589876869659173e-04  2.4530423237212285e-04  4.3567540515862122e-05  1.0775184519945828e-04  5.3299243949007288e-05  -4.7519011518611112e-21  1.6065474085057667e-33  2.0380453083021367e-02  2.3452840824299635e-02  8.7743536024421972e-03  1.1281359932281977e-02  1.3641333357114451e-02  2.9472144488985202e-02  3.4123602685260913e-02  1.0047486056188226e-02  3.4362329662346307e-02  2.3303603132007071e-02  5.1767957476998486e-02  8.5447861887786317e-02  6.2487945161651119e-02  7.1668785088203901e-03  4.6109592465973806e-02  5.8224407263528913e-02  2.7536042534988844e-03  6.1662656033189732e-02  6.5552855315211241e-03  3.7114916565190621e-02  1.8077848777614671e-02  6.6861487957729504e-02  6.1843725306729685e-02  4.6572840818157268e-02  1.9721278466003869e-02  2.6011830419143310e-02  1.9104746926447188e-03  6.0925588701414247e-03  4.4921189303407799e-03  4.0680319506980863e-04  1.4338207457941765e-04  2.5554014074504166e-04  1.7933216117790032e-03  1.9551406263019293e-03  1.4523113804136662e-03  1.7450164852278478e-03  3.3509330248500927e-04  3.8536123856685006e-04  1.0495449705012244e-03  1.4245553311363166e-03  1.7173553422392246e-04  9.2587538806566158e-04  7.3854975030982763e-04  1.5099142615892557e-03  8.0311043129164910e-04  5.7842662198150454e-04  1.4890548680627899e-05  2.9611305353931629e-04  2.0088016712911324e-04  5.0179902015890647e-20  -1.7054359616989089e-19  1.1172469232471985e-02  3.9767396390265339e-03  8.5295003927586682e-03  1.6882208138596467e-02  1.9347941725173966e-02  3.0620380486784785e-02  4.6633496297098249e-03  7.7645919115676379e-02  5.5161403569174337e-02  7.8761879901366266e-02  5.9854255768206167e-02  2.5772677392719288e-02  3.3759863779968344e-03  1.2508186254705241e-02  2.5389758061854093e-02  3.6256420858919905e-02  5.5412335184602389e-02  8.6553259252076242e-02  4.0450600621234310e-02  3.9610168787492664e-03  4.2481641149719702e-02  5.7388486843105865e-02  7.5345677510732781e-03  5.6028588607974363e-02  5.7843154867660979e-02  1.1586078291575812e-02  2.6009636307765992e-02  1.8266630130575168e-02  2.7111995077307889e-03  2.8707416173963021e-03  4.3571551903117631e-04  8.2525512407403761e-04  1.3588520000642412e-03  2.3908295629764967e-03  1.9955066354647379e-03  1.9205775711809924e-03  6.5120553232906968e-04  1.3846688844833770e-04  1.3751591387746849e-04  1.3823516237581280e-03  9.5769066370239597e-04  1.6769678309265673e-03  9.1213336738526552e-04  1.5371667078734293e-03  1.3054317602209185e-03  9.2728434811187874e-04  1.9623778706220820e-04  1.9124172056942908e-04  2.6265062358324332e-04  -3.6450096216783906e-20  -5.1040944155618893e-19  3.3966425393022935e-02  3.1258115484352968e-03  2.6226324600926339e-02  1.3276268781067795e-03  2.0014419413834632e-02  2.2081140716791552e-02  5.8556944938645793e-02  3.6387150884363929e-02  7.6020469008117970e-03  3.2238313758128453e-02  1.7816621703669426e-02  5.9059876274174646e-02  1.2654382824742169e-01  1.1574780966248462e-01  2.5255774518487428e-02  8.5303798886594062e-02  1.0676300956701842e-01  8.9644476389001693e-03  1.1272863487567575e-01  7.6754048791786468e-03  3.9764816991553070e-02  2.1060073758463329e-02  1.0080596257486300e-01  1.0288824095587643e-01  6.0073647071301084e-02  1.8807424428444741e-02  3.6200523847588068e-02  4.2045064765265091e-04  1.6262285758028891e-02  9.4241817618280765e-03  2.5603492702356668e-05  2.1816306150618489e-04  5.9340525725305759e-04  2.8503791745519928e-03  2.5610597834615926e-03  1.5959394370089796e-03  2.3306140174911183e-03  8.1815465925479060e-04  9.4625611802760096e-04  1.0113974624457219e-03  1.5099056411282516e-03  8.2025664670161012e-04  2.2117576171752323e-03  1.0306704805163843e-03  2.2561666110739232e-03  1.0029032034363004e-03  8.8429971891756996e-04  6.0345853460247399e-05  2.3619877110240205e-04  5.4514379487491885e-20  -2.9904540489824215e-19  2.2072378064058571e-02  1.9743177606405649e-02  2.3371152597486317e-02  1.0809329964595266e-02  2.2531763526098574e-02  3.4386960288158061e-02  2.5863659260197902e-02  3.9010493560666889e-03  1.0499686197600679e-01  7.9894816393366916e-02  1.0249049747403878e-01  8.1594952131513659e-02  4.5837589132838766e-02  3.2010822914159187e-02  4.5174734437024326e-03  2.7406899932559299e-02  3.4321599940490187e-02  7.9081382620462382e-02  1.1605649943842880e-01  5.7930074056226591e-02  1.7993656143397634e-02  5.8173894328220184e-02  7.3704220800293263e-02  1.4583109457017534e-02  9.2772060697501296e-02  8.7988435195730866e-02  2.2798754228766101e-02  3.9044988583206687e-02  2.5633066372200884e-02  2.3450833667472485e-04  7.5136208183374242e-03  7.7496822681514773e-04  7.4409923594045784e-04  1.3816793577708520e-03  3.1985540710674815e-03  2.2597201741545621e-03  1.8997320449056295e-03  9.8503655482708196e-04  4.0820655282701923e-04  4.1073972866997746e-04  1.5107764495473420e-03  9.2342460551712640e-04  2.7753508470704678e-03  1.7659082497808510e-03  1.9415091938168897e-03  2.0444083209725955e-03  1.2130189071781082e-03  5.9546250326852044e-04  8.0488429787132430e-05  8.0327370425288331e-35  -4.6340822130695710e-19  9.5213283338409175e-03  2.5735766760386202e-02  2.8900181232946329e-02  4.0691724139969514e-02  3.6752342977678103e-03  2.6262642428099683e-02  2.4740303801159765e-02  7.7476833598831091e-02  4.1823513354184140e-02  7.0389047621918690e-03  2.9361358106012005e-02  1.0528478669598574e-02  5.7040141734272319e-02  1.4680627884549019e-01  1.4312836206623750e-01  3.3185496665634931e-02  1.1832566806714946e-01  1.4994955492780479e-01  2.5899762502521777e-02  1.6140835777387808e-01  2.1246886299647397e-02  3.0209540349560290e-02  2.6762175713393604e-02  1.2735196656322151e-01  1.2829107892464597e-01  6.0499274416549668e-02  5.8334597498284450e-03  3.6210306701796334e-02  5.9364917846244473e-03  2.5593068546767447e-02  1.1780697891862301e-02  3.1180379472254736e-03  1.4051221219758088e-04  1.0715546900359678e-03  3.1712652997379024e-03  2.8702424736460896e-03  1.5776262523421723e-03  2.3468911411662083e-03  9.5579664689454961e-04  7.6951382285208084e-04  8.4966705403660789e-04  1.7156031997138438e-03  1.0143064807961869e-03  3.3593740892089124e-03  1.4602320383206083e-03  2.7988886304533152e-03  1.5626711333916524e-03  1.2871834340361019e-03  4.2177155442175415e-04  3.2632994235273385e-35  -4.7363642234453290e-19  1.3493772640375374e-02  1.3741138845705519e-02  1.3862230782304221e-02  3.3990070126039648e-02  3.3159443787345401e-02  4.3379955791069805e-02  4.3408463452596607e-02  1.9093394921092906e-02  1.9534010231091994e-02  1.3177262374132431e-01  8.8143728981925393e-02  1.0668472784014928e-01  8.3312377261105269e-02  4.2846444207720387e-02  3.7021942947609396e-02  6.1905975577445206e-03  2.2256007405797692e-02  3.4022018698145556e-02  8.6676300495020037e-02  1.3577520407600724e-01  6.8385352838220517e-02  1.7438264004223672e-02  7.0387968466343306e-02  9.9679794381043671e-02  9.8056382062073413e-03  1.1503963183733798e-01  9.7560830310172694e-02  1.0635433032465313e-02  4.3000259700771669e-02  2.5600718089009888e-02  5.1336254402760944e-03  1.1605765983534046e-02  4.4176689975695000e-04  1.1215931721088113e-03  6.2218422287062356e-04  3.4531093256981089e-03  2.0624009032798904e-03  1.5473690673557994e-03  9.4635937946856456e-04  1.0613087830425385e-03  5.1374342193972794e-04  1.7321510205822600e-03  1.0852862725984050e-03  3.1325165105661511e-03  2.6158001119833689e-03  2.0808443980278517e-03  2.5247447312013844e-03  1.4500521562754291e-03  8.7765969110952305e-04  -9.1296076092541007e-20  -3.7040346134040580e-19  8.7306188319815209e-03  4.8006706034739955e-03  2.4385347423858172e-02  4.4139962534238249e-02  3.7064123834283307e-02  1.6684764051950761e-02  2.5562849260770099e-02  4.9849971152196755e-03  9.8029689398224318e-02  6.1182011812721440e-02  1.7173616377964322e-02  5.0164612618355538e-02  1.6489241587281215e-02  6.9541115915010943e-02  1.7638279873842549e-01  1.7128484641708791e-01  4.0433234029551526e-02  1.5151549220860225e-01  2.0048099915516204e-01  3.7168614856167695e-02  2.1522915559733918e-01  4.5933528022253811e-02  2.1694900045350084e-02  2.8323171869865136e-02  1.5897096450043402e-01  1.4698441464763132e-01  6.9583149510328152e-02  6.6508378105459417e-03  4.4611622748097317e-02  1.2209060881412589e-02  2.8878428733875174e-02  1.0952399870465833e-02  8.2980073120475957e-03  5.0064461560744508e-04  1.6844350575995989e-03  2.5017740808680579e-03  2.7369298206733552e-03  1.0429846507150817e-03  1.6262171765618152e-03  1.2182812024629690e-03  2.6242851883909662e-04  8.9242316253422657e-04  2.2059715953818898e-03  8.6943559355128234e-04  3.8622604306806766e-03  1.8991637603026376e-03  2.7948699343984780e-03  1.8226934587867514e-03  1.0440446024049237e-03  2.8978058908138158e-20  -2.9314815192412392e-19  1.3544515249444979e-02  1.3357311313732047e-02  1.0843539311114652e-02  4.8484644639425175e-03  4.3852140568099517e-02  5.0446800220820695e-02  5.3082121673475369e-02  7.1863629897740894e-02  7.4657987142832151e-03  4.4038612102011605e-02  1.8633411857982640e-01  8.2671625763706819e-02  1.1243679723064144e-01  7.4051963194518566e-02  3.6307222405496047e-02  2.1378870599992703e-02  1.2792753500881316e-02  3.4711070480720235e-03  3.5077851028557233e-02  6.9568340736310783e-02  1.4912138200492855e-01  6.2164902159902301e-02  7.2280071821238826e-03  9.7497383266865772e-02  1.3986290747049329e-01  9.3028065724715860e-03  1.1871788875393623e-01  1.0363143407969086e-01  1.8496523433173498e-02  4.0805877117196049e-02  1.9057706208589816e-02  7.8164370812330835e-03  1.4597672052732536e-02  5.1567395878451047e-03  2.3474179150910690e-03  5.5376789549654772e-04  2.8882178080010790e-03  1.3884375550288950e-03  7.4259360404868666e-04  6.1475334503591347e-05  1.8129894858989748e-03  5.6951419176670876e-04  2.3036078247203368e-03  1.7594573653177640e-03  2.7361414561641465e-03  3.0544852007046274e-03  2.0452280828634926e-03  2.4392652127601879e-03  1.3323831264890800e-03  -7.3962121232511385e-20  1.6065474085057666e-34  1.6150070921763498e-02  1.6818987616311846e-02  1.2495327121344895e-02  5.4706184705955391e-03  6.9483826667704682e-02  3.2144042079170897e-02  4.1503112000799251e-02  2.9778314197412333e-02  1.1097154790318578e-02  8.7899643713198902e-02  5.4734849263234311e-02  3.9250223802894051e-02  1.1488519666973443e-01  9.7997680173306182e-03  1.1997780578681269e-01  2.0311425674270109e-01  2.3160106844184741e-01  5.6302653170138536e-02  1.8012082642356109e-01  2.6500495745786917e-01  1.5509601596651119e-02  3.0117202603259435e-01  8.3721101986614213e-02  1.9068509357892425e-02  3.5008178899101482e-02  2.2051822808569782e-01  1.5073754098944459e-01  1.0408514390163733e-01  2.0811163435209386e-02  7.8650319584455133e-02  1.8982210851075244e-02  2.0910713614413379e-02  9.5235600701066309e-03  1.4191985356854502e-02  3.8811932619332076e-03  3.4792733536982258e-03  6.7445566741275746e-04  1.9256002710691632e-03  8.1111927892357137e-05  3.7820710230681550e-04  1.9800199026547174e-03  1.6726214810940481e-03  1.7288311376421712e-03  3.2160246677360024e-03  2.9648844229117767e-05  3.2036892978523830e-03  1.9029527853179184e-03  2.0965373012168261e-03  1.3712626868850916e-03  -1.9030092597364826e-19  -2.3381834989866304e-19  9.7331660985464346e-03  6.0568637351589719e-03  2.3330769862636897e-02  1.9683113897291313e-02  1.5297193669495703e-02  1.3657347111769292e-02  1.1093160545992015e-01  8.2601923230471025e-02  1.0831227479931352e-01  3.6584323702329195e-03  6.1904937293502570e-02  2.1483749534014751e-01  1.4704074942467779e-01  7.1129276090071900e-02  8.0379527874262405e-02  5.4591372768530440e-02  4.5054054933290726e-02  4.1952992478223065e-03  5.9302114944764242e-02  5.9861452139376686e-02  3.9378983318568248e-02  1.7016559193586633e-01  7.8601829440150137e-02  1.1934483365215642e-01  1.9715924618704750e-01  2.1549588615703549e-01  2.1007581908147388e-02  7.7707965038001287e-02  1.4874690062777732e-01  6.9032934051524344e-02  5.4713095046478713e-02  4.8174845800168387e-03  2.2794843044968683e-03  1.9513977600699582e-02  1.3918830261371718e-02  5.6389059903589533e-03  2.9463456154769489e-03  7.0780422435218898e-04  8.3246569980838863e-05  7.9350495078347539e-04  1.6208499853794470e-03  2.6861136274560237e-03  2.4193602146277350e-03  3.0622802724728582e-03  2.7804240144949336e-03  1.7822476491575685e-03  2.4932686223444237e-03  1.4729982189810380e-03  1.1495516017290442e-03  -1.8569874964029732e-19  -1.5061381954741563e-34  1.1508032720586647e-02  8.1597611239376082e-03  9.8527215117404305e-04  4.7651392726382642e-03  6.0075622666705877e-03  7.3124439572747627e-02  2.8035134840392762e-02  3.0621319599641320e-02  4.5823192910189554e-02  1.0807773615527651e-01  1.1513822296013457e-01  6.6792516278345870e-02  5.2157192538445564e-02  1.7471921893008732e-01  1.0053447301046192e-01  4.6573144305120502e-02  3.5644795969440168e-01  2.4493459601637879e-01  9.5056865590590234e-02  1.7672810150070256e-01  3.9892959917842685e-01  2.0160349237266571e-03  3.9521042938319556e-01  1.1405904139204759e-01  4.9042304778312909e-02  1.4046357141120144e-01  4.3298953385877392e-01  3.5070035206838650e-02  2.3380688816929218e-01  1.0815530787089760e-02  1.6963565571876149e-01  5.8188255673887967e-02  1.0216270174870909e-02  1.7898900167371477e-02  2.3231140393775090e-02  1.2616421259342347e-02  7.1360374847707015e-03  2.3235567296283110e-03  2.0910707610291432e-04  2.1267942300017386e-03  1.7353718076751577e-03  3.7913778342737420e-03  3.3422043371037157e-03  3.6145197999070356e-03  4.3230933889512367e-03  9.8776665567361409e-04  2.2177792233605627e-03  1.7026523361419387e-03  1.1515761558066240e-03  -6.3925318139291969e-20  -1.8177443358159016e-19  1.7723815399811028e-02  1.5357011066023508e-02  4.4421039562154638e-03  2.4934048495513315e-02  4.8261528377315172e-03  9.2379130195013592e-03  2.4894118965404690e-02  1.2117320035680107e-01  5.1157414530314464e-02  1.6506326564117776e-01  7.3134402848884630e-02  2.2036080578075248e-01  3.7326676010417498e-01  1.2224002294200376e-01  1.1494198996696084e-01  4.5865916862302576e-02  1.9539524065590266e-03  9.6230688297737330e-02  3.0363485314329003e-01  2.1477705173660638e-01  1.6928747784838763e-01  5.6496746285121226e-02  8.0926913834369540e-01  6.0360363982701497e-02  5.1882836269895469e-02  5.0071525431045080e-02  6.5077893442774815e-01  1.0846274312699072e-01  1.9111304480992067e-01  3.7662904943175013e-01  2.1482212936234155e-01  1.1147149841077472e-01  1.7783547318782598e-02  2.7695117040503585e-02  2.6675092009965415e-02  2.4199989171259175e-02  1.2091785633577603e-02  6.2664520911539061e-03  2.3275704616052290e-03  1.9591637516811022e-03  2.8868640498061061e-03  4.0546185257581439e-03  4.3588904610368040e-03  5.0535130439883225e-03  4.9170433652200489e-03  4.4214873717474479e-03  2.7043710520573909e-04  1.3586426302792838e-03  1.1664828994183195e-03  -6.4752808638286386e-20  2.0885116310574967e-33  3.2745570853741340e-03  1.0178881751372756e-02  2.1537966347131947e-02  2.7257054095513725e-02  8.2674802405534528e-03  6.3247471883421714e-04  6.0457627329180676e-02  3.7759131142259916e-03  6.1482854522352776e-02  5.0359963191722382e-02  7.9800304322782539e-02  2.3680576257240006e-03  3.5754830808490193e-02  4.1254415659294608e-02  4.4972156095664206e-01  2.4996762978931365e-03  1.5868838526377779e-01  3.7481616589013544e-01  3.1212564761240325e-01  8.7367594408357274e-01  8.4684502014053109e-01  2.4006875674524517e-01  1.7263230628730708e-01  4.9206942702338063e-01  2.6144721372617943e-02  1.2350254303493541e-01  1.0709560959388947e-01  4.2343287381045802e-01  1.1895981915556983e-01  2.7735431553896794e-01  1.4611121389810630e-01  2.3930080250007993e-01  1.3616216860216096e-01  6.9213128580358316e-02  4.7909564533770072e-02  3.7110019270290132e-02  2.4514533628487920e-02  1.1555577371056445e-02  4.9600921271640416e-03  2.4335160186161656e-03  3.6175584152908771e-03  3.5722056399325377e-03  5.7375803556563385e-03  4.9113936249329995e-03  6.3610498656806120e-03  6.1378405437933466e-03  3.0284358594017120e-03  1.2634491459320593e-06  2.4514404748642748e-04  1.9203478551499204e-18  7.2294633382759500e-34  1.4826718382676508e-02  1.5000417664399657e-03  5.5658446526640135e-03  4.3504982627645423e-03  2.3455461510065996e-03  5.0844189203797498e-02  3.0211514830357392e-02  2.4890307171668475e-02  1.3730612248368237e-01  1.7493329164798787e-03  2.4465742490761619e-01  1.1568955766950463e-01  2.3265555742411281e-01  2.3104108885858818e-01  4.2917594171474366e-01  8.2850252575009040e-03  2.3460075131008454e-02  5.4172164503164233e-01  5.2663259861816900e-02  1.8675628276799677e-01  1.4008928474869961e-01  2.0852068759836323e-01  1.9610330153287753e-01  1.2360840350578968e-01  1.7054933377286927e-01  4.7238113975811978e-02  5.8001414987390011e-02  4.8250588382857458e-02  8.3198000175426667e-02  1.6976976373890354e-02  2.9961827362410498e-01  3.1537777838948888e-01  3.3736115837018932e-01  1.1773091480498153e-01  9.1241966636131502e-02  5.0028680033879391e-02  3.8098595482020318e-02  2.2314322198113485e-02  9.4406632538501910e-03  4.6473070567009970e-03  3.2299440160892200e-03  3.9396884868193385e-03  5.5489136205748050e-03  5.3171189539189430e-03  6.5632770699355532e-03  6.7080133240399360e-03  5.7042706304895868e-03  1.5854087782777853e-03  6.9390655126141390e-04  1.2049105563793249e-34  -9.8492479936203043e-19  8.8806285244516104e-03  9.3501264678032513e-03  9.9015159003554565e-03  7.7602342446659762e-03  1.4657084951254283e-03  1.8662483485505098e-02  6.9184204416326677e-03  1.3216223167367284e-02  6.3731477533733608e-02  9.673426