<?xml version="1.0"?>
<VTKFile type="UnstructuredGrid"  version="0.1"  >
<UnstructuredGrid>
<Piece  NumberOfPoints="676" NumberOfCells="1250">
<Points>
<DataArray  type="Float64"  NumberOfComponents="3"  format="ascii">0 0 0  0.04 0 0  0.08 0 0  0.12 0 0  0.16 0 0  0.2 0 0  0.24 0 0  0.28 0 0  0.32 0 0  0.36 0 0  0.4 0 0  0.44 0 0  0.48 0 0  0.52 0 0  0.5600000000000001 0 0  0.6 0 0  0.64 0 0  0.68 0 0  0.72 0 0  0.76 0 0  0.8 0 0  0.84 0 0  0.88 0 0  0.92 0 0  0.96 0 0  1 0 0  0 0.04 0  0.04 0.04 0  0.08 0.04 0  0.12 0.04 0  0.16 0.04 0  0.2 0.04 0  0.24 0.04 0  0.28 0.04 0  0.32 0.04 0  0.36 0.04 0  0.4 0.04 0  0.44 0.04 0  0.48 0.04 0  0.52 0.04 0  0.5600000000000001 0.04 0  0.6 0.04 0  0.64 0.04 0  0.68 0.04 0  0.72 0.04 0  0.76 0.04 0  0.8 0.04 0  0.84 0.04 0  0.88 0.04 0  0.92 0.04 0  0.96 0.04 0  1 0.04 0  0 0.08 0  0.04 0.08 0  0.08 0.08 0  0.12 0.08 0  0.16 0.08 0  0.2 0.08 0  0.24 0.08 0  0.28 0.08 0  0.32 0.08 0  0.36 0.08 0  0.4 0.08 0  0.44 0.08 0  0.48 0.08 0  0.52 0.08 0  0.5600000000000001 0.08 0  0.6 0.08 0  0.64 0.08 0  0.68 0.08 0  0.72 0.08 0  0.76 0.08 0  0.8 0.08 0  0.84 0.08 0  0.88 0.08 0  0.92 0.08 0  0.96 0.08 0  1 0.08 0  0 0.12 0  0.04 0.12 0  0.08 0.12 0  0.12 0.12 0  0.16 0.12 0  0.2 0.12 0  0.24 0.12 0  0.28 0.12 0  0.32 0.12 0  0.36 0.12 0  0.4 0.12 0  0.44 0.12 0  0.48 0.12 0  0.52 0.12 0  0.5600000000000001 0.12 0  0.6 0.12 0  0.64 0.12 0  0.68 0.12 0  0.72 0.12 0  0.76 0.12 0  0.8 0.12 0  0.84 0.12 0  0.88 0.12 0  0.92 0.12 0  0.96 0.12 0  1 0.12 0  0 0.16 0  0.04 0.16 0  0.08 0.16 0  0.12 0.16 0  0.16 0.16 0  0.2 0.16 0  0.24 0.16 0  0.28 0.16 0  0.32 0.16 0  0.36 0.16 0  0.4 0.16 0  0.44 0.16 0  0.48 0.16 0  0.52 0.16 0  0.5600000000000001 0.16 0  0.6 0.16 0  0.64 0.16 0  0.68 0.16 0  0.72 0.16 0  0.76 0.16 0  0.8 0.16 0  0.84 0.16 0  0.88 0.16 0  0.92 0.16 0  0.96 0.16 0  1 0.16 0  0 0.2 0  0.04 0.2 0  0.08 0.2 0  0.12 0.2 0  0.16 0.2 0  0.2 0.2 0  0.24 0.2 0  0.28 0.2 0  0.32 0.2 0  0.36 0.2 0  0.4 0.2 0  0.44 0.2 0  0.48 0.2 0  0.52 0.2 0  0.5600000000000001 0.2 0  0.6 0.2 0  0.64 0.2 0  0.68 0.2 0  0.72 0.2 0  0.76 0.2 0  0.8 0.2 0  0.84 0.2 0  0.88 0.2 0  0.92 0.2 0  0.96 0.2 0  1 0.2 0  0 0.24 0  0.04 0.24 0  0.08 0.24 0  0.12 0.24 0  0.16 0.24 0  0.2 0.24 0  0.24 0.24 0  0.28 0.24 0  0.32 0.24 0  0.36 0.24 0  0.4 0.24 0  0.44 0.24 0  0.48 0.24 0  0.52 0.24 0  0.5600000000000001 0.24 0  0.6 0.24 0  0.64 0.24 0  0.68 0.24 0  0.72 0.24 0  0.76 0.24 0  0.8 0.24 0  0.84 0.24 0  0.88 0.24 0  0.92 0.24 0  0.96 0.24 0  1 0.24 0  0 0.28 0  0.04 0.28 0  0.08 0.28 0  0.12 0.28 0  0.16 0.28 0  0.2 0.28 0  0.24 0.28 0  0.28 0.28 0  0.32 0.28 0  0.36 0.28 0  0.4 0.28 0  0.44 0.28 0  0.48 0.28 0  0.52 0.28 0  0.5600000000000001 0.28 0  0.6 0.28 0  0.64 0.28 0  0.68 0.28 0  0.72 0.28 0  0.76 0.28 0  0.8 0.28 0  0.84 0.28 0  0.88 0.28 0  0.92 0.28 0  0.96 0.28 0  1 0.28 0  0 0.32 0  0.04 0.32 0  0.08 0.32 0  0.12 0.32 0  0.16 0.32 0  0.2 0.32 0  0.24 0.32 0  0.28 0.32 0  0.32 0.32 0  0.36 0.32 0  0.4 0.32 0  0.44 0.32 0  0.48 0.32 0  0.52 0.32 0  0.5600000000000001 0.32 0  0.6 0.32 0  0.64 0.32 0  0.68 0.32 0  0.72 0.32 0  0.76 0.32 0  0.8 0.32 0  0.84 0.32 0  0.88 0.32 0  0.92 0.32 0  0.96 0.32 0  1 0.32 0  0 0.36 0  0.04 0.36 0  0.08 0.36 0  0.12 0.36 0  0.16 0.36 0  0.2 0.36 0  0.24 0.36 0  0.28 0.36 0  0.32 0.36 0  0.36 0.36 0  0.4 0.36 0  0.44 0.36 0  0.48 0.36 0  0.52 0.36 0  0.5600000000000001 0.36 0  0.6 0.36 0  0.64 0.36 0  0.68 0.36 0  0.72 0.36 0  0.76 0.36 0  0.8 0.36 0  0.84 0.36 0  0.88 0.36 0  0.92 0.36 0  0.96 0.36 0  1 0.36 0  0 0.4 0  0.04 0.4 0  0.08 0.4 0  0.12 0.4 0  0.16 0.4 0  0.2 0.4 0  0.24 0.4 0  0.28 0.4 0  0.32 0.4 0  0.36 0.4 0  0.4 0.4 0  0.44 0.4 0  0.48 0.4 0  0.52 0.4 0  0.5600000000000001 0.4 0  0.6 0.4 0  0.64 0.4 0  0.68 0.4 0  0.72 0.4 0  0.76 0.4 0  0.8 0.4 0  0.84 0.4 0  0.88 0.4 0  0.92 0.4 0  0.96 0.4 0  1 0.4 0  0 0.44 0  0.04 0.44 0  0.08 0.44 0  0.12 0.44 0  0.16 0.44 0  0.2 0.44 0  0.24 0.44 0  0.28 0.44 0  0.32 0.44 0  0.36 0.44 0  0.4 0.44 0  0.44 0.44 0  0.48 0.44 0  0.52 0.44 0  0.5600000000000001 0.44 0  0.6 0.44 0  0.64 0.44 0  0.68 0.44 0  0.72 0.44 0  0.76 0.44 0  0.8 0.44 0  0.84 0.44 0  0.88 0.44 0  0.92 0.44 0  0.96 0.44 0  1 0.44 0  0 0.48 0  0.04 0.48 0  0.08 0.48 0  0.12 0.48 0  0.16 0.48 0  0.2 0.48 0  0.24 0.48 0  0.28 0.48 0  0.32 0.48 0  0.36 0.48 0  0.4 0.48 0  0.44 0.48 0  0.48 0.48 0  0.52 0.48 0  0.5600000000000001 0.48 0  0.6 0.48 0  0.64 0.48 0  0.68 0.48 0  0.72 0.48 0  0.76 0.48 0  0.8 0.48 0  0.84 0.48 0  0.88 0.48 0  0.92 0.48 0  0.96 0.48 0  1 0.48 0  0 0.52 0  0.04 0.52 0  0.08 0.52 0  0.12 0.52 0  0.16 0.52 0  0.2 0.52 0  0.24 0.52 0  0.28 0.52 0  0.32 0.52 0  0.36 0.52 0  0.4 0.52 0  0.44 0.52 0  0.48 0.52 0  0.52 0.52 0  0.5600000000000001 0.52 0  0.6 0.52 0  0.64 0.52 0  0.68 0.52 0  0.72 0.52 0  0.76 0.52 0  0.8 0.52 0  0.84 0.52 0  0.88 0.52 0  0.92 0.52 0  0.96 0.52 0  1 0.52 0  0 0.5600000000000001 0  0.04 0.5600000000000001 0  0.08 0.5600000000000001 0  0.12 0.5600000000000001 0  0.16 0.5600000000000001 0  0.2 0.5600000000000001 0  0.24 0.5600000000000001 0  0.28 0.5600000000000001 0  0.32 0.5600000000000001 0  0.36 0.5600000000000001 0  0.4 0.5600000000000001 0  0.44 0.5600000000000001 0  0.48 0.5600000000000001 0  0.52 0.5600000000000001 0  0.5600000000000001 0.5600000000000001 0  0.6 0.5600000000000001 0  0.64 0.5600000000000001 0  0.68 0.5600000000000001 0  0.72 0.5600000000000001 0  0.76 0.5600000000000001 0  0.8 0.5600000000000001 0  0.84 0.5600000000000001 0  0.88 0.5600000000000001 0  0.92 0.5600000000000001 0  0.96 0.5600000000000001 0  1 0.5600000000000001 0  0 0.6 0  0.04 0.6 0  0.08 0.6 0  0.12 0.6 0  0.16 0.6 0  0.2 0.6 0  0.24 0.6 0  0.28 0.6 0  0.32 0.6 0  0.36 0.6 0  0.4 0.6 0  0.44 0.6 0  0.48 0.6 0  0.52 0.6 0  0.5600000000000001 0.6 0  0.6 0.6 0  0.64 0.6 0  0.68 0.6 0  0.72 0.6 0  0.76 0.6 0  0.8 0.6 0  0.84 0.6 0  0.88 0.6 0  0.92 0.6 0  0.96 0.6 0  1 0.6 0  0 0.64 0  0.04 0.64 0  0.08 0.64 0  0.12 0.64 0  0.16 0.64 0  0.2 0.64 0  0.24 0.64 0  0.28 0.64 0  0.32 0.64 0  0.36 0.64 0  0.4 0.64 0  0.44 0.64 0  0.48 0.64 0  0.52 0.64 0  0.5600000000000001 0.64 0  0.6 0.64 0  0.64 0.64 0  0.68 0.64 0  0.72 0.64 0  0.76 0.64 0  0.8 0.64 0  0.84 0.64 0  0.88 0.64 0  0.92 0.64 0  0.96 0.64 0  1 0.64 0  0 0.68 0  0.04 0.68 0  0.08 0.68 0  0.12 0.68 0  0.16 0.68 0  0.2 0.68 0  0.24 0.68 0  0.28 0.68 0  0.32 0.68 0  0.36 0.68 0  0.4 0.68 0  0.44 0.68 0  0.48 0.68 0  0.52 0.68 0  0.5600000000000001 0.68 0  0.6 0.68 0  0.64 0.68 0  0.68 0.68 0  0.72 0.68 0  0.76 0.68 0  0.8 0.68 0  0.84 0.68 0  0.88 0.68 0  0.92 0.68 0  0.96 0.68 0  1 0.68 0  0 0.72 0  0.04 0.72 0  0.08 0.72 0  0.12 0.72 0  0.16 0.72 0  0.2 0.72 0  0.24 0.72 0  0.28 0.72 0  0.32 0.72 0  0.36 0.72 0  0.4 0.72 0  0.44 0.72 0  0.48 0.72 0  0.52 0.72 0  0.5600000000000001 0.72 0  0.6 0.72 0  0.64 0.72 0  0.68 0.72 0  0.72 0.72 0  0.76 0.72 0  0.8 0.72 0  0.84 0.72 0  0.88 0.72 0  0.92 0.72 0  0.96 0.72 0  1 0.72 0  0 0.76 0  0.04 0.76 0  0.08 0.76 0  0.12 0.76 0  0.16 0.76 0  0.2 0.76 0  0.24 0.76 0  0.28 0.76 0  0.32 0.76 0  0.36 0.76 0  0.4 0.76 0  0.44 0.76 0  0.48 0.76 0  0.52 0.76 0  0.5600000000000001 0.76 0  0.6 0.76 0  0.64 0.76 0  0.68 0.76 0  0.72 0.76 0  0.76 0.76 0  0.8 0.76 0  0.84 0.76 0  0.88 0.76 0  0.92 0.76 0  0.96 0.76 0  1 0.76 0  0 0.8 0  0.04 0.8 0  0.08 0.8 0  0.12 0.8 0  0.16 0.8 0  0.2 0.8 0  0.24 0.8 0  0.28 0.8 0  0.32 0.8 0  0.36 0.8 0  0.4 0.8 0  0.44 0.8 0  0.48 0.8 0  0.52 0.8 0  0.5600000000000001 0.8 0  0.6 0.8 0  0.64 0.8 0  0.68 0.8 0  0.72 0.8 0  0.76 0.8 0  0.8 0.8 0  0.84 0.8 0  0.88 0.8 0  0.92 0.8 0  0.96 0.8 0  1 0.8 0  0 0.84 0  0.04 0.84 0  0.08 0.84 0  0.12 0.84 0  0.16 0.84 0  0.2 0.84 0  0.24 0.84 0  0.28 0.84 0  0.32 0.84 0  0.36 0.84 0  0.4 0.84 0  0.44 0.84 0  0.48 0.84 0  0.52 0.84 0  0.5600000000000001 0.84 0  0.6 0.84 0  0.64 0.84 0  0.68 0.84 0  0.72 0.84 0  0.76 0.84 0  0.8 0.84 0  0.84 0.84 0  0.88 0.84 0  0.92 0.84 0  0.96 0.84 0  1 0.84 0  0 0.88 0  0.04 0.88 0  0.08 0.88 0  0.12 0.88 0  0.16 0.88 0  0.2 0.88 0  0.24 0.88 0  0.28 0.88 0  0.32 0.88 0  0.36 0.88 0  0.4 0.88 0  0.44 0.88 0  0.48 0.88 0  0.52 0.88 0  0.5600000000000001 0.88 0  0.6 0.88 0  0.64 0.88 0  0.68 0.88 0  0.72 0.88 0  0.76 0.88 0  0.8 0.88 0  0.84 0.88 0  0.88 0.88 0  0.92 0.88 0  0.96 0.88 0  1 0.88 0  0 0.92 0  0.04 0.92 0  0.08 0.92 0  0.12 0.92 0  0.16 0.92 0  0.2 0.92 0  0.24 0.92 0  0.28 0.92 0  0.32 0.92 0  0.36 0.92 0  0.4 0.92 0  0.44 0.92 0  0.48 0.92 0  0.52 0.92 0  0.5600000000000001 0.92 0  0.6 0.92 0  0.64 0.92 0  0.68 0.92 0  0.72 0.92 0  0.76 0.92 0  0.8 0.92 0  0.84 0.92 0  0.88 0.92 0  0.92 0.92 0  0.96 0.92 0  1 0.92 0  0 0.96 0  0.04 0.96 0  0.08 0.96 0  0.12 0.96 0  0.16 0.96 0  0.2 0.96 0  0.24 0.96 0  0.28 0.96 0  0.32 0.96 0  0.36 0.96 0  0.4 0.96 0  0.44 0.96 0  0.48 0.96 0  0.52 0.96 0  0.5600000000000001 0.96 0  0.6 0.96 0  0.64 0.96 0  0.68 0.96 0  0.72 0.96 0  0.76 0.96 0  0.8 0.96 0  0.84 0.96 0  0.88 0.96 0  0.92 0.96 0  0.96 0.96 0  1 0.96 0  0 1 0  0.04 1 0  0.08 1 0  0.12 1 0  0.16 1 0  0.2 1 0  0.24 1 0  0.28 1 0  0.32 1 0  0.36 1 0  0.4 1 0  0.44 1 0  0.48 1 0  0.52 1 0  0.5600000000000001 1 0  0.6 1 0  0.64 1 0  0.68 1 0  0.72 1 0  0.76 1 0  0.8 1 0  0.84 1 0  0.88 1 0  0.92 1 0  0.96 1 0  1 1 0  </DataArray>
</Points>
<Cells>
[...]
<PointData  Scalars="u"> 
<DataArray  type="Float64"  Name="u"  format="ascii">0.0000000000000000e+00  0.0000000000000000e+00  0.0000000000000000e+00  0.0000000000000000e+00  0.0000000000000000e+00  0.0000000000000000e+00  0.0000000000000000e+00  0.0000000000000000e+00  0.0000000000000000e+00  0.0000000000000000e+00  0.0000000000000000e+00  0.0000000000000000e+00  0.0000000000000000e+00  0.0000000000000000e+00  0.0000000000000000e+00  0.0000000000000000e+00  0.0000000000000000e+00  0.0000000000000000e+00  0.0000000000000000e+00  0.0000000000000000e+00  0.0000000000000000e+00  0.0000000000000000e+00  0.0000000000000000e+00  0.0000000000000000e+00  0.0000000000000000e+00  0.0000000000000000e+00  0.0000000000000000e+00  7.4090039518753503e-06  1.5706806831475910e-05  2.5133908375135770e-05  3.6270547119224691e-05  4.0709043810726361e-05  6.8352962384934276e-05  5.6319119114493931e-05  8.3503159242608415e-05  9.1058404677644186e-05  1.0533933823641909e-04  1.0731422968847899e-04  1.1755791135026465e-04  1.1628179614592614e-04  1.1153108687274167e-04  1.0429354988424701e-04  9.4440872365656624e-05  8.2893127696204611e-05  7.0571252093568472e-05  5.8194458218886505e-05  4.6269961491387525e-05  3.5113255134087719e-05  2.4887214091802213e-05  1.5645793910942958e-05  7.3715628186824717e-06  0.0000000000000000e+00  0.0000000000000000e+00  1.5718343528925146e-05  3.2760909054630066e-05  5.6984566133223175e-05  7.6437206866559120e-05  1.1382340359823143e-04  1.0701663340407716e-04  1.6724605352565395e-04  1.8262587640505785e-04  2.1276932352087043e-04  2.2616200750060305e-04  2.7577952333891976e-04  2.7904867983611660e-04  2.8020970797421112e-04  2.8038696694446540e-04  2.5790920527026375e-04  2.2891361283068279e-04  1.9712762223314265e-04  1.6460921811569737e-04  1.3317870424453261e-04  1.0399650046238799e-04  7.7620735981435266e-05  5.4195333747534450e-05  3.3616091628656517e-05  1.5649082974726162e-05  0.0000000000000000e+00  0.0000000000000000e+00  2.4777630809768200e-05  5.6850175949080310e-05  8.1108436615003236e-05  1.4699512389702515e-04  1.7566980219120128e-04  2.0168361434644638e-04  4.9334382416185468e-04  -2.0886278158122062e-04  5.5788868249406775e-04  4.5929708739661198e-04  5.1782134521424067e-04  4.7877203148018633e-04  7.1119510182210508e-04  5.3798168885401581e-04  4.8491657492308722e-04  4.3015685159236683e-04  3.6198723572803624e-04  2.9419749981553206e-04  2.3199086142504345e-04  1.7699602143061562e-04  1.2941861824976403e-04  8.8756419884673067e-05  5.4207117340187247e-05  2.4899747673427477e-05  0.0000000000000000e+00  0.0000000000000000e+00  3.4527870118765739e-05  7.3655518320142244e-05  1.4162052568260282e-04  2.0703543383528841e-04  2.9058367176405543e-04  4.7770577755315411e-04  -5.6927100096676919e-04  3.2659751247088812e-03  -2.0039471522349797e-03  1.6488595344304967e-04  -2.3153492452685038e-04  9.1200655507230716e-04  -3.1700904291754955e-04  1.0374343800371370e-03  1.0882149553810563e-03  7.9512979163528369e-04  6.1744913620185888e-04  4.8062885789821312e-04  3.6572460967658412e-04  2.7062276764994430e-04  1.9284743647512631e-04  1.2944286316059881e-04  7.7651681598969369e-05  3.5139068631100122e-05  0.0000000000000000e+00  0.0000000000000000e+00  4.9316291380779477e-05  1.0267006292008183e-04  1.5340860672517607e-04  1.2960490518287550e-04  9.9156823870377828e-04  4.7949696663197785e-04  1.6047870627778091e-03  -6.4334458106918057e-03  2.5109025908534289e-03  1.0663972492470117e-02  7.6629816395702346e-03  3.5214090600126065e-03  7.9288392297634635e-03  4.8026989413000086e-03  1.2652815848765756e-05  1.0253534096633400e-03  1.0231582192123658e-03  7.6592090251772376e-04  5.5278209515152851e-04  3.9241592853785226e-04  2.7068645622716511e-04  1.7706664841597060e-04  1.0405709582524537e-04  4.6313603032460029e-05  0.0000000000000000e+00  0.0000000000000000e+00  5.5354129488912891e-05  1.6428116919144363e-04  2.9968634563365816e-04  5.5337070783646703e-04  -1.5874814695345594e-03  3.2760684520803567e-03  2.5471463434729750e-03  -1.0679615649306180e-03  2.4445259604420864e-03  -1.9912863036585640e-01  -5.8496941191511366e-02  -4.8231631790649765e-02  -3.9653320751722003e-02  -4.6722302695836028e-02  2.4751072500923756e-02  9.2200429567814938e-03  2.3739765093179791e-03  1.2401134596191120e-03  8.2315076994128231e-04  5.5294173850353712e-04  3.6595413360016087e-04  2.3214267873527259e-04  1.3328182177274118e-04  5.8259472310216212e-05  0.0000000000000000e+00  0.0000000000000000e+00  7.7382689760573513e-05  1.2891890914212392e-04  3.6276776174905338e-04  1.5312675130074039e-03  5.7883473082965143e-03  -7.1523645389921764e-04  -1.6344374733424108e-02  -1.4551120653315536e-02  -1.6674883963246312e-01  1.5350687417225259e-01  2.4780681962169759e-01  1.6658712810504819e+00  2.2477611824004359e-01  1.3759045656433646e+00  5.4442269991964987e-01  -6.3107238161765056e-02  -2.3477789932433929e-03  2.0615968714825252e-03  1.2622756201298531e-03  7.6676570311130896e-04  4.8115902039333681e-04  2.9448774861310300e-04  1.6477474154858159e-04  7.0663341173733915e-05  0.0000000000000000e+00  0.0000000000000000e+00  7.6133646840946214e-05  2.6989894879664213e-04  4.2750395835425639e-04  -5.3069280672495293e-04  8.6386839216151326e-03  5.2370657473751345e-02  2.5775820146986311e-01  1.1895319648940376e-01  -8.5501012205627086e-02  1.8432544880049195e-01  1.1658430018676482e+00  1.9952147018311628e-01  1.0610559249981977e+00  4.3127401198651566e-01  7.7627627786943731e-01  2.2076728997209388e-01  7.3435778100781599e-02  8.1599880943220258e-03  1.7610284675787390e-03  1.0507054734715409e-03  6.1904921752170799e-04  3.6260517803799976e-04  1.9736575108007069e-04  8.3018702178333013e-05  0.0000000000000000e+00  0.0000000000000000e+00  9.5171127020989715e-05  1.2550525556459299e-04  4.1730866021015274e-04  4.1492714995613354e-03  -7.7143358574168226e-03  2.4056875868113500e-02  3.0839370573017533e-01  -1.5530574027970528e-01  2.3050970726243444e-01  1.0406853597501295e+00  9.3366753630954716e-02  1.0915227858028056e+00  9.3279892663827857e-01  4.8727493434293145e-01  9.6873858349354891e-01  5.2051174858848626e-01  5.2035135245530784e-01  -2.8345954396425829e-02  6.6126890717370405e-03  1.6062877314002534e-03  7.6143648026096066e-04  4.3323830295970785e-04  2.2926174335650005e-04  9.4587237944909484e-05  0.0000000000000000e+00  0.0000000000000000e+00  1.0066833951213917e-04  3.0783462682059835e-04  1.6009081538744538e-04  -4.2886751607376606e-03  2.0140003493887195e-02  4.0917635825232557e-02  8.5651463987742676e-02  1.1582019060964768e+00  1.9458370017956042e-01  5.3636328733327035e-02  1.0580348619070763e+00  6.2037231389095238e-01  6.0446384676139164e-01  1.2861847289959700e+00  2.8092417069770265e-01  1.0540176270542185e+00  3.2995559299501553e-01  4.6292876980660769e-01  -2.9456232677978859e-02  1.2151983307835850e-03  1.2190110946064918e-03  5.0814079739343202e-04  2.5680298130146650e-04  1.0448683953743976e-04  0.0000000000000000e+00  0.0000000000000000e+00  1.1031921876597787e-04  2.0983859552500315e-04  5.5944559351187343e-04  3.0592486019158272e-03  -3.7402591300088522e-02  -1.4147647161208263e-01  1.2375300897345296e+00  3.4923738766872819e-01  4.7708607528838753e-01  4.3321564860448614e-01  4.6799125156200611e-01  5.9224168090520812e-01  1.0567803521440309e+00  5.6418553592458043e-01  1.0410470755690431e+00  5.3311653430772077e-01  8.2156912309121366e-01  4.0199050691543242e-01  8.9367777326744585e-02  -1.5222390958401975e-02  -2.0596143288529297e-03  6.0345820501401181e-04  3.0201809838570744e-04  1.1256800418602507e-04  0.0000000000000000e+00  0.0000000000000000e+00  1.1506565450489890e-04  3.0734222474422903e-04  3.2265466112002609e-04  -2.3850380964465685e-03  1.6999350320910274e-02  -9.3966837983657150e-03  3.8561467932292581e-01  9.3739218558166948e-01  9.1205005367485781e-01  1.7916261800653435e-01  3.4419182157031458e-01  9.0858388389346267e-01  4.3060573678363834e-01  9.7025077493223377e-01  8.7878664135004891e-01  5.8769133053437284e-01  8.4304901793139531e-01  5.3721942589201321e-01  -5.9814546426471593e-01  4.7861520255091008e-02  2.2612450862597119e-03  -1.9211251852197593e-03  7.5578472864637001e-05  1.2662941870297882e-04  0.0000000000000000e+00  0.0000000000000000e+00  1.1585828682615250e-04  2.7716439580533267e-04  6.0321892238950265e-04  1.7197271883896614e-03  -2.2417323945931215e-02  -1.0237336120002609e-01  1.0558834701477275e+00  5.1980024537628755e-01  5.2816347692073706e-01  9.5106569460708035e-01  2.8427229272545845e-01  3.3830171903717432e-01  9.0044698539198442e-01  6.6362419932024463e-01  6.9285460353781236e-01  1.0493587194568201e+00  3.7724182212036989e-01  8.8753441578196335e-01  1.8643303722406021e-01  -2.3196467819586764e-01  -1.5878610294519129e-02  6.2618233032745389e-03  -3.6806515408764265e-04  -1.3986316266991877e-04  0.0000000000000000e+00  0.0000000000000000e+00  1.1142776324632252e-04  2.8276395901393863e-04  5.4054168913343441e-04  3.9816935342818058e-04  7.9739759377051127e-03  -2.7934040203421915e-02  4.2734397103084748e-01  1.0173849319628032e+00  8.1908160801638918e-01  5.6708096653893991e-01  6.2347481998395016e-01  3.9359321362571287e-01  5.7026553385301826e-01  6.4000228490258126e-01  8.6118404473367527e-01  6.1766671611293178e-01  8.8911002625515767e-01  6.6725104018794901e-01  -8.2199945502847016e-01  -1.4990027732346611e-01  3.2090129148652211e-02  -3.0195071051578665e-02  1.6993701705114081e-03  5.3797947267917451e-04  0.0000000000000000e+00  0.0000000000000000e+00  1.0452121807266229e-04  2.5554387317916288e-04  4.8810450143585237e-04  1.2012669483049986e-03  -4.1771603264771504e-04  -1.6870272380001487e-02  7.9484356585207505e-01  5.6367876961714103e-01  7.3553121582989867e-01  7.8681791953900015e-01  7.7410351289580870e-01  3.7917186694115779e-01  3.8810205133570297e-01  7.6692943313230999e-01  5.2010838857034924e-01  8.1590338032664200e-01  6.7167885935811711e-01  5.1521462273782892e-01  6.0414653314049804e-01  -3.5059808763334160e-01  -3.2816960833244563e-01  8.2980762306837152e-02  -1.2080531993640852e-02  -2.1347159150439379e-03  0.0000000000000000e+00  0.0000000000000000e+00  9.4396864288833260e-05  2.2904311823270814e-04  4.4027231964515639e-04  6.5980428524200325e-04  1.5350370117303647e-03  1.9457114748427946e-02  -8.9844644068483845e-02  7.4768611328879597e-01  8.2197642683483285e-01  6.6415421192499813e-01  6.3557803133164203e-01  7.7653819368786137e-01  3.2549406975220130e-01  4.1374202589601500e-01  7.3078563153116294e-01  5.9078062129737452e-01  9.3883051951460039e-01  2.7164176582651844e-01  -5.5035651526335350e-01  1.6156640393053207e-01  -2.4765145154428545e-02  -2.2257405249907242e-01  2.9874441585386838e-02  4.0405718240160383e-03  0.0000000000000000e+00  0.0000000000000000e+00  8.2913430715437651e-05  1.9726536390280661e-04  3.5781033123144404e-04  6.4150388267756740e-04  1.3690735406804747e-03  -3.4227548845033704e-03  2.9235467340564254e-03  2.3271418347056691e-01  5.5245505600448719e-01  8.2218254074037889e-01  6.7192329888857016e-01  5.9827113543094801e-01  5.6791565711782310e-01  3.0556633265301320e-01  4.2278046351025445e-01  5.1433178952285763e-01  4.2940793584063702e-01  4.1089858181492994e-01  6.2606508331323629e-01  -2.5432967864274553e-01  -2.5743262597047023e-01  -4.0433354915038730e-02  -4.1079940216740114e-02  -1.3912561731126968e-02  0.0000000000000000e+00  0.0000000000000000e+00  7.0566752995739737e-05  1.6444537098208244e-04  2.9562423140985501e-04  4.8268362473339780e-04  5.7265630182014727e-04  2.1270546303071292e-03  1.0217859559189689e-02  -1.1664665371695705e-01  -3.8178470595370079e-02  7.0756041157163518e-01  8.6754743581290750e-01  7.0112294919824980e-01  8.2200476884049167e-01  3.7607704405392511e-01  2.1508567824506014e-01  -8.0609936564767015e-01  5.3309280137158521e-01  5.7784545419740707e-01  -3.4275394723739078e-01  1.8436204809926654e-01  8.4360114927831298e-02  -2.6417979423839211e-01  -1.3994665816577470e-01  4.6831788330997992e-02  0.0000000000000000e+00  0.0000000000000000e+00  5.8179110164698564e-05  1.3321659857206666e-04  2.3160973313118279e-04  3.6028789292457119e-04  6.1293898307952506e-04  8.8861449645236601e-04  -3.6228594012836439e-03  2.0248676292537945e-02  9.3392355073821501e-02  2.2490597972662124e-01  3.1844630334145946e-01  -3.6619695024860771e-01  2.0964359878917185e-01  -4.3117243952521567e-01  -1.1417987924096193e+00  5.5414172374275561e-01  -2.9391218835500477e-01  3.3537946813638436e-01  5.9369519887014111e-01  -1.1479712168433522e-01  -1.8728943910082466e-01  3.7211588437842259e-02  -1.2047331860800829e-01  -1.2848111526773945e-01  0.0000000000000000e+00  0.0000000000000000e+00  4.6256803717007734e-05  1.0391626602615980e-04  1.7685727182891223e-04  2.7309076997164778e-04  3.8121396444198297e-04  4.0597100463902612e-04  2.1891578388117928e-03  2.6120106285189527e-03  -4.9687069342062226e-02  6.0082996699781427e-02  2.4449454630069978e-01  -9.5272850476267892e-02  2.2071454682611194e-01  -4.9638990648999459e-01  3.9226135879681001e-01  -7.9244822148751981e-01  8.2078048333188540e-03  2.6611396846590524e-01  3.2318373189427824e-01  1.4398462752108429e-01  1.3344065013460230e-01  -1.7433838886443206e-01  -1.2821006404218879e-01  -5.5361028869851406e-02  0.0000000000000000e+00  0.0000000000000000e+00  3.5095989125845210e-05  7.7592796342252826e-05  1.2937314488057367e-04  1.9183220646238247e-04  2.6905761659241006e-04  4.3321715217517286e-04  2.7021084523163626e-04  -1.8900419440244253e-03  1.6273982234553220e-02  -1.0060763725064266e-02  9.1298885187103093e-02  3.0001888973801932e-01  -3.9588224609576383e-01  4.5564703586185890e-01  -7.0768552182089173e-01  -3.5028637100029243e-02  2.5496204380862825e-02  -3.7465014223309107e-01  4.2359709764305448e-01  4.4325099960460779e-01  -1.4942380500557376e-01  7.6965162120953265e-02  -6.3081210800150847e-02  -1.5428232006115827e-01  0.0000000000000000e+00  0.0000000000000000e+00  2.4869570433768128e-05  5.4156489949077594e-05  8.8681504956111647e-05  1.2944394881409739e-04  1.7875821502781511e-04  2.1285206260252286e-04  2.5332600825581937e-04  1.4341187383784492e-03  -2.1506980461021828e-03  -1.0572069690013557e-02  2.4940821086021872e-02  1.3810724246064118e-01  1.6238392119665288e-01  -2.2688844075507200e-01  1.1316998644952092e-01  -2.0210925279417308e-01  -5.4331515539146691e-01  3.0824869312577574e-01  -2.2091709551727412e-01  3.4068586153098457e-01  3.5066220685581306e-01  -1.1521800077781731e-01  -5.2336394340134859e-02  -5.5817207837711463e-02  0.0000000000000000e+00  0.0000000000000000e+00  1.5630444697149307e-05  3.3588132859855155e-05  5.4147655457295667e-05  7.7614904800917193e-05  1.0312459203695457e-04  1.3558152165381413e-04  2.0544687937011286e-04  -9.3475241099138127e-05  -9.7717662912724171e-05  7.5636960229486030e-03  -2.0243242647787534e-02  4.4912966941787896e-02  2.1014487855992478e-01  -1.3067508476017137e-01  1.5706089662839606e-01  -3.8076489053590307e-01  1.0403545011759587e-01  -4.1204101679666283e-01  4.5733839842669911e-02  1.1228398586901210e-01  2.9469865606110379e-01  8.4956560695644709e-02  1.0866352164330205e-04  -8.4978876886327645e-02  0.0000000000000000e+00  0.0000000000000000e+00  7.3569112510943460e-06  1.5627670954189236e-05  2.4870667896629361e-05  3.5040482867407683e-05  4.6431908200699172e-05  5.8632374299835914e-05  5.5748544643016819e-05  1.2631556284284210e-04  4.5646669757790580e-04  -2.2404995029055188e-03  3.3780650676599848e-03  -5.0622529482250156e-03  5.4712837761217846e-02  1.9148404031361549e-01  -2.4548260171362674e-01  2.5094487220112122e-01  -3.8710577054274009e-01  -5.5856658091681000e-02  6.0352331798593801e-03  -1.7635759226022549e-01  2.4260317387949401e-01  2.4654907201604739e-01  -8.4067235283675990e-02  2.7900327605496305e-02  0.0000000000000000e+00  0.0000000000000000e+00  0.0000000000000000e+00  0.0000000000000000e+00  0.0000000000000000e+00  0.0000000000000000e+00  0.0000000000000000e+00  0.0000000000000000e+00  0.0000000000000000e+00  0.0000000000000000e+00  0.0000000000000000e+00  0.0000000000000000e+00  0.0000000000000000e+00  0.0000000000000000e+00  0.0000000000000000e+00  0.0000000000000000e+00  0.0000000000000000e+00  0.0000000000000000e+00  0.0000000000000000e+00  0.0000000000000000e+00  0.0000000000000000e+00  0.0000000000000000e+00  0.0000000000000000e+00  0.0000000000000000e+00  0.0000000000000000e+00  0.0000000000000000e+00  0.0000000000000000e+00  </DataArray> 
</PointData> 
</Piece>
</UnstructuredGrid>
</VTKFile>