<?xml version="1.0"?>
<VTKFile type="UnstructuredGrid"  version="0.1"  >
<UnstructuredGrid>
<Piece  NumberOfPoints="40401" NumberOfCells="80000">
<Points>
<DataArray  type="Float64"  NumberOfComponents="3"  format="ascii">0 0 0  0.005 0 0  0.01 0 0  0.015 0 0  0.02 0 0  0.025 0 0  0.03 0 0  0.035 0 0  0.04 0 0  0.045 0 0  0.05 0 0  0.055 0 0  0.06 0 0  0.065 0 0  0.07000000000000001 0 0  0.075 0 0  0.08 0 0  0.08500000000000001 0 0  0.09 0 0  0.095 0 0  0.1 0 0  0.105 0 0  0.11 0 0  0.115 0 0  0.12 0 0  0.125 0 0  0.13 0 0  0.135 0 0  0.14 0 0  0.145 0 0  0.15 0 0  0.155 0 0  0.16 0 0  0.165 0 0  0.17 0 0  0.175 0 0  0.18 0 0  0.185 0 0  0.19 0 0  0.195 0 0  0.2 0 0  0.205 0 0  0.21 0 0  0.215 0 0  0.22 0 0  0.225 0 0  0.23 0 0  0.235 0 0  0.24 0 0  0.245 0 0  0.25 0 0  0.255 0 0  0.26 0 0  0.265 0 0  0.27 0 0  0.275 0 0  0.28 0 0  0.285 0 0  0.29 0 0  0.295 0 0  0.3 0 0  0.305 0 0  0.31 0 0  0.315 0 0  0.32 0 0  0.325 0 0  0.33 0 0  0.335 0 0  0.34 0 0  0.345 0 0  0.35 0 0  0.355 0 0  0.36 0 0  0.365 0 0  0.37 0 0  0.375 0 0  0.38 0 0  0.385 0 0  0.39 0 0  0.395 0 0  0.4 0 0  0.405 0 0  0.41 0 0  0.415 0 0  0.42 0 0  0.425 0 0  0.43 0 0  0.435 0 0  0.44 0 0  0.445 0 0  0.45 0 0  0.455 0 0  0.46 0 0  0.465 0 0  0.47 0 0  0.475 0 0  0.48 0 0  0.485 0 0  0.49 0 0  0.495 0 0  0.5 0 0  0.505 0 0  0.51 0 0  0.515 0 0  0.52 0 0  0.525 0 0  0.53 0 0  0.535 0 0  0.54 0 0  0.545 0 0  0.55 0 0  0.555 0 0  0.5600000000000001 0 0  0.5649999999999999 0 0  0.57 0 0  0.575 0 0  0.58 0 0  0.585 0 0  0.59 0 0  0.595 0 0  0.6 0 0  0.605 0 0  0.61 0 0  0.615 0 0  0.62 0 0  0.625 0 0  0.63 0 0  0.635 0 0  0.64 0 0  0.645 0 0  0.65 0 0  0.655 0 0  0.66 0 0  0.665 0 0  0.67 0 0  0.675 0 0  0.68 0 0  0.6850000000000001 0 0  0.6899999999999999 0 0  0.695 0 0  0.7 0 0  0.705 0 0  0.71 0 0  0.715 0 0  0.72 0 0  0.725 0 0  0.73 0 0  0.735 0 0  0.74 0 0  0.745 0 0  0.75 0 0  0.755 0 0  0.76 0 0  0.765 0 0  0.77 0 0  0.775 0 0  0.78 0 0  0.785 0 0  0.79 0 0  0.795 0 0  0.8 0 0  0.805 0 0  0.8100000000000001 0 0  0.8149999999999999 0 0  0.82 0 0  0.825 0 0  0.83 0 0  0.835 0 0  0.84 0 0  0.845 0 0  0.85 0 0  0.855 0 0  0.86 0 0  0.865 0 0  0.87 0 0  0.875 0 0  0.88 0 0  0.885 0 0  0.89 0 0  0.895 0 0  0.9 0 0  0.905 0 0  0.91 0 0  0.915 0 0  0.92 0 0  0.925 0 0  0.93 0 0  0.9350000000000001 0 0  0.9399999999999999 0 0  0.945 0 0  0.95 0 0  0.955 0 0  0.96 0 0  0.965 0 0  0.97 0 0  0.975 0 0  0.98 0 0  0.985 0 0  0.99 0 0  0.995 0 0  1 0 0  0 0.005 0  0.005 0.005 0  0.01 0.005 0  0.015 0.005 0  0.02 0.005 0  0.025 0.005 0  0.03 0.005 0  0.035 0.005 0  0.04 0.005 0  0.045 0.005 0  0.05 0.005 0  0.055 0.005 0  0.06 0.005 0  0.065 0.005 0  0.07000000000000001 0.005 0  0.075 0.005 0  0.08 0.005 0  0.08500000000000001 0.005 0  0.09 0.005 0  0.095 0.005 0  0.1 0.005 0  0.105 0.005 0  0.11 0.005 0  0.115 0.005 0  0.12 0.005 0  0.125 0.005 0  0.13 0.005 0  0.135 0.005 0  0.14 0.005 0  0.145 0.005 0  0.15 0.005 0  0.155 0.005 0  0.16 0.005 0  0.165 0.005 0  0.17 0.005 0  0.175 0.005 0  0.18 0.005 0  0.185 0.005 0  0.19 0.005 0  0.195 0.005 0  0.2 0.005 0  0.205 0.005 0  0.21 0.005 0  0.215 0.005 0  0.22 0.005 0  0.225 0.005 0  0.23 0.005 0  0.235 0.005 0  0.24 0.005 0  0.245 0.005 0  0.25 0.005 0  0.255 0.005 0  0.26 0.005 0  0.265 0.005 0  0.27 0.005 0  0.275 0.005 0  0.28 0.005 0  0.285 0.005 0  0.29 0.005 0  0.295 0.005 0  0.3 0.005 0  0.305 0.005 0  0.31 0.005 0  0.315 0.005 0  0.32 0.005 0  0.325 0.005 0  0.33 0.005 0  0.335 0.005 0  0.34 0.005 0  0.345 0.005 0  0.35 0.005 0  0.355 0.005 0  0.36 0.005 0  0.365 0.005 0  0.37 0.005 0  0.375 0.005 0  0.38 0.005 0  0.385 0.005 0  0.39 0.005 0  0.395 0.005 0  0.4 0.005 0  0.405 0.005 0  0.41 0.005 0  0.415 0.005 0  0.42 0.005 0  0.425 0.005 0  0.43 0.005 0  0.435 0.005 0  0.44 0.005 0  0.445 0.005 0  0.45 0.005 0  0.455 0.005 0  0.46 0.005 0  0.465 0.005 0  0.47 0.005 0  0.475 0.005 0  0.48 0.005 0  0.485 0.005 0  0.49 0.005 0  0.495 0.005 0  0.5 0.005 0  0.505 0.005 0  0.51 0.005 0  0.515 0.005 0  0.52 0.005 0  0.525 0.005 0  0.53 0.005 0  0.535 0.005 0  0.54 0.005 0  0.545 0.005 0  0.55 0.005 0  0.555 0.005 0  0.5600000000000001 0.005 0  0.5649999999999999 0.005 0  0.57 0.005 0  0.575 0.005 0  0.58 0.005 0  0.585 0.005 0  0.59 0.005 0  0.595 0.005 0  0.6 0.005 0  0.605 0.005 0  0.61 0.005 0  0.615 0.005 0  0.62 0.005 0  0.625 0.005 0  0.63 0.005 0  0.635 0.005 0  0.64 0.005 0  0.645 0.005 0  0.65 0.005 0  0.655 0.005 0  0.66 0.005 0  0.665 0.005 0  0.67 0.005 0  0.675 0.005 0  0.68 0.005 0  0.6850000000000001 0.005 0  0.6899999999999999 0.005 0  0.695 0.005 0  0.7 0.005 0  0.705 0.005 0  0.71 0.005 0  0.715 0.005 0  0.72 0.005 0  0.725 0.005 0  0.73 0.005 0  0.735 0.005 0  0.74 0.005 0  0.745 0.005 0  0.75 0.005 0  0.755 0.005 0  0.76 0.005 0  0.765 0.005 0  0.77 0.005 0  0.775 0.005 0  0.78 0.005 0  0.785 0.005 0  0.79 0.005 0  0.795 0.005 0  0.8 0.005 0  0.805 0.005 0  0.8100000000000001 0.005 0  0.8149999999999999 0.005 0  0.82 0.005 0  0.825 0.005 0  0.83 0.005 0  0.835 0.005 0  0.84 0.005 0  0.845 0.005 0  0.85 0.005 0  0.855 0.005 0  0.86 0.005 0  0.865 0.005 0  0.87 0.005 0  0.875 0.005 0  0.88 0.005 0  0.885 0.005 0  0.89 0.005 0  0.895 0.005 0  0.9 0.005 0  0.905 0.005 0  0.91 0.005 0  0.915 0.005 0  0.92 0.005 0  0.925 0.005 0  0.93 0.005 0  0.9350000000000001 0.005 0  0.9399999999999999 0.005 0  0.945 0.005 0  0.95 0.005 0  0.955 0.005 0  0.96 0.005 0  0.965 0.005 0  0.97 0.005 0  0.975 0.005 0  0.98 0.005 0  0.985 0.005 0  0.99 0.005 0  0.995 0.005 0  1 0.005 0  0 0.01 0  0.005 0.01 0  0.01 0.01 0  0.015 0.01 0  0.02 0.01 0  0.025 0.01 0  0.03 0.01 0  0.035 0.01 0  0.04 0.01 0  0.045 0.01 0  0.05 0.01 0  0.055 0.01 0  0.06 0.01 0  0.065 0.01 0  0.07000000000000001 0.01 0  0.075 0.01 0  0.08 0.01 0  0.08500000000000001 0.01 0  0.09 0.01 0  0.095 0.01 0  0.1 0.01 0  0.105 0.01 0  0.11 0.01 0  0.115 0.01 0  0.12 0.01 0  0.125 0.01 0  0.13 0.01 0  0.135 0.01 0  0.14 0.01 0  0.145 0.01 0  0.15 0.01 0  0.155 0.01 0  0.16 0.01 0  0.165 0.01 0  0.17 0.01 0  0.175 0.01 0  0.18 0.01 0  0.185 0.01 0  0.19 0.01 0  0.195 0.01 0  0.2 0.01 0  0.205 0.01 0  0.21 0.01 0  0.215 0.01 0  0.22 0.01 0  0.225 0.01 0  0.23 0.01 0  0.235 0.01 0  0.24 0.01 0  0.245 0.01 0  0.25 0.01 0  0.255 0.01 0  0.26 0.01 0  0.265 0.01 0  0.27 0.01 0  0.275 0.01 0  0.28 0.01 0  0.285 0.01 0  0.29 0.01 0  0.295 0.01 0  0.3 0.01 0  0.305 0.01 0  0.31 0.01 0  0.315 0.01 0  0.32 0.01 0  0.325 0.01 0  0.33 0.01 0  0.335 0.01 0  0.34 0.01 0  0.345 0.01 0  0.35 0.01 0  0.355 0.01 0  0.36 0.01 0  0.365 0.01 0  0.37 0.01 0  0.375 0.01 0  0.38 0.01 0  0.385 0.01 0  0.39 0.01 0  0.395 0.01 0  0.4 0.01 0  0.405 0.01 0  0.41 0.01 0  0.415 0.01 0  0.42 0.01 0  0.425 0.01 0  0.43 0.01 0  0.435 0.01 0  0.44 0.01 0  0.445 0.01 0  0.45 0.01 0  0.455 0.01 0  0.46 0.01 0  0.465 0.01 0  0.47 0.01 0  0.475 0.01 0  0.48 0.01 0  0.485 0.01 0  0.49 0.01 0  0.495 0.01 0  0.5 0.01 0  0.505 0.01 0  0.51 0.01 0  0.515 0.01 0  0.52 0.01 0  0.525 0.01 0  0.53 0.01 0  0.535 0.01 0  0.54 0.01 0  0.545 0.01 0  0.55 0.01 0  0.555 0.01 0  0.5600000000000001 0.01 0  0.5649999999999999 0.01 0  0.57 0.01 0  0.575 0.01 0  0.58 0.01 0  0.585 0.01 0  0.59 0.01 0  0.595 0.01 0  0.6 0.01 0  0.605 0.01 0  0.61 0.01 0  0.615 0.01 0  0.62 0.01 0  0.625 0.01 0  0.63 0.01 0  0.635 0.01 0  0.64 0.01 0  0.645 0.01 0  0.65 0.01 0  0.655 0.01 0  0.66 0.01 0  0.665 0.01 0  0.67 0.01 0  0.675 0.01 0  0.68 0.01 0  0.6850000000000001 0.01 0  0.6899999999999999 0.01 0  0.695 0.01 0  0.7 0.01 0  0.705 0.01 0  0.71 0.01 0  0.715 0.01 0  0.72 0.01 0  0.725 0.01 0  0.73 0.01 0  0.735 0.01 0  0.74 0.01 0  0.745 0.01 0  0.75 0.01 0  0.755 0.01 0  0.76 0.01 0  0.765 0.01 0  0.77 0.01 0  0.775 0.01 0  0.78 0.01 0  0.785 0.01 0  0.79 0.01 0  0.795 0.01 0  0.8 0.01 0  0.805 0.01 0  0.8100000000000001 0.01 0  0.8149999999999999 0.01 0  0.82 0.01 0  0.825 0.01 0  0.83 0.01 0  0.835 0.01 0  0.84 0.01 0  0.845 0.01 0  0.85 0.01 0  0.855 0.01 0  0.86 0.01 0  0.865 0.01 0  0.87 0.01 0  0.875 0.01 0  0.88 0.01 0  0.885 0.01 0  0.89 0.01 0  0.895 0.01 0  0.9 0.01 0  0.905 0.01 0  0.91 0.01 0  0.915 0.01 0  0.92 0.01 0  0.925 0.01 0  0.93 0.01 0  0.9350000000000001 0.01 0  0.9399999999999999 0.01 0  0.945 0.01 0  0.95 0.01 0  0.955 0.01 0  0.96 0.01 0  0.965 0.01 0  0.97 0.01 0  0.975 0.01 0  0.98 0.01 0  0.985 0.01 0  0.99 0.01 0  0.995 0.01 0  1 0.01 0  0 0.015 0  0.005 0.015 0  0.01 0.015 0  0.015 0.015 0  0.02 0.015 0  0.025 0.015 0  0.03 0.015 0  0.035 0.015 0  0.04 0.015 0  0.045 0.015 0  0.05 0.015 0  0.055 0.015 0  0.06 0.015 0  0.065 0.015 0  0.07000000000000001 0.015 0  0.075 0.015 0  0.08 0.015 0  0.08500000000000001 0.015 0  0.09 0.015 0  0.095 0.015 0  0.1 0.015 0  0.105 0.015 0  0.11 0.015 0  0.115 0.015 0  0.12 0.015 0  0.125 0.015 0  0.13 0.015 0  0.135 0.015 0  0.14 0.015 0  0.145 0.015 0  0.15 0.015 0  0.155 0.015 0  0.16 0.015 0  0.165 0.015 0  0.17 0.015 0  0.175 0.015 0  0.18 0.015 0  0.185 0.015 0  0.19 0.015 0  0.195 0.015 0  0.2 0.015 0  0.205 0.015 0  0.21 0.015 0  0.215 0.015 0  0.22 0.015 0  0.225 0.015 0  0.23 0.015 0  0.235 0.015 0  0.24 0.015 0  0.245 0.015 0  0.25 0.015 0  0.255 0.015 0  0.26 0.015 0  0.265 0.015 0  0.27 0.015 0  0.275 0.015 0  0.28 0.015 0  0.285 0.015 0  0.29 0.015 0  0.295 0.015 0  0.3 0.015 0  0.305 0.015 0  0.31 0.015 0  0.315 0.015 0  0.32 0.015 0  0.325 0.015 0  0.33 0.015 0  0.335 0.015 0  0.34 0.015 0  0.345 0.015 0  0.35 0.015 0  0.355 0.015 0  0.36 0.015 0  0.365 0.015 0  0.37 0.015 0  0.375 0.015 0  0.38 0.015 0  0.385 0.015 0  0.39 0.015 0  0.395 0.015 0  0.4 0.015 0  0.405 0.015 0  0.41 0.015 0  0.415 0.015 0  0.42 0.015 0  0.425 0.015 0  0.43 0.015 0  0.435 0.015 0  0.44 0.015 0  0.445 0.015 0  0.45 0.015 0  0.455 0.015 0  0.46 0.015 0  0.465 0.015 0  0.47 0.015 0  0.475 0.015 0  0.48 0.015 0  0.485 0.015 0  0.49 0.015 0  0.495 0.015 0  0.5 0.015 0  0.505 0.015 0  0.51 0.015 0  0.515 0.015 0  0.52 0.015 0  0.525 0.015 0  0.53 0.015 0  0.535 0.015 0  0.54 0.015 0  0.545 0.015 0  0.55 0.015 0  0.555 0.015 0  0.5600000000000001 0.015 0  0.
[...]
<PointData  Scalars="Indicator Function"> 
<DataArray  type="Float64"  Name="Indicator Function"  format="ascii">1.9259299443872359e-34  2.6684736196244499e-18  1.1801525635021569e-18  2.4008575149870551e-17  1.3141846669581634e-17  -1.8770657394701184e-19  -1.1669009347009376e-19  1.1574879231591206e-18  7.6172718967105816e-17  -4.6348383250499835e-21  5.3385966180276164e-18  1.0006298026480749e-16  1.8055593228630336e-35  -4.4777871207003234e-33  7.3948576550818975e-17  -3.1465569888875794e-19  -1.4294343556428403e-19  7.0042283426502424e-18  -1.6105044016253460e-19  -3.5629703971163863e-33  -2.0272886302016260e-17  -2.0143885709725862e-19  -4.6712904624509924e-19  2.7212567344901844e-18  -2.9113952414549042e-19  -2.5146697282010142e-19  -7.0659099622506341e-19  -9.0721344574189506e-19  -8.8684233587288584e-18  -2.4074124304840448e-35  -8.6112826773022871e-19  -9.2601242742840860e-19  -9.6296497219361793e-35  -4.0678968935170186e-19  5.4980610055353647e-16  -4.1898773255287974e-19  -6.3026874181100401e-19  -8.9254632833846045e-19  -1.0181008004970156e-19  -5.8740863303810694e-33  -1.8365187285628794e-17  1.9259299443872359e-34  -2.2505892476222365e-19  -3.3641372129510255e-19  -3.4694340996238857e-19  -1.8916184316869331e-19  7.7577746465925865e-16  -4.0918715264675905e-19  -7.8617723304875343e-19  -3.9308861652437705e-19  -6.4001352044082648e-19  -7.0659583757712934e-19  -6.2969637840036437e-19  -1.1499206034447580e-18  -5.7496030172237926e-19  -6.1365097898711101e-19  2.4413800466967860e-15  -3.3582724230010330e-19  -6.1774975599203854e-19  -9.1000445201113316e-19  -5.1389105557402471e-19  -1.3007727715458011e-18  -4.4355477976342337e-19  -9.3065082799732484e-19  -5.1149982205938460e-19  -1.2572557110871498e-18  -1.3385158633934699e-18  -2.7576002494466668e-19  9.0386701275211282e-17  -1.6610602289238153e-18  -1.7251033115499877e-18  -7.6822829650595649e-19  -7.2308233564117918e-19  -1.6643525709538461e-18  -2.6145575286637424e-18  -3.3408486372560954e-18  -3.6640227518536582e-18  -3.7021676486066850e-18  -3.3206065148145511e-18  -2.6244031159746962e-18  -1.2383362370055305e-18  9.8161940032097811e-16  -1.1345862523180093e-18  -1.5863316824620271e-18  -1.1340061409716889e-18  -7.8346314200503331e-19  -4.0823910489745990e-19  -8.7033369226132091e-19  -5.7446421808103227e-19  -6.2520936983927600e-19  -3.1260468491963815e-19  -5.5613100279156531e-19  -3.4397748102547970e-19  8.4071732446046299e-16  -1.9405914114902939e-19  -3.6927548901477589e-20  1.2037062152420224e-35  -2.4425765355390828e-20  -9.2846729897677348e-20  -1.1993696147865361e-19  6.1229009558499087e-16  1.1535030496419303e-15  1.1389653254345230e-16  1.6195576344340644e-17  5.5689762749407503e-16  3.6419295452546483e-16  2.5137230962432285e-16  3.7318014377387153e-16  3.2408288272946801e-17  2.2622224850310068e-16  1.0913738197459297e-16  8.1041478168970255e-17  -2.3683670609305377e-20  6.1152865983482117e-18  4.7764019055908441e-18  2.1763802314155477e-17  -2.0432287431143241e-17  -1.0621370802813377e-17  -7.5131930429719527e-18  4.8129632590859468e-17  -1.9706716925741484e-17  7.0178337109711158e-18  5.5712703083851106e-19  5.5478604917087233e-17  -5.9279109657205238e-18  1.0720009382612942e-17  6.0570037337227584e-20  -1.1960415030426637e-18  1.1784391093855410e-17  2.1595700378848675e-18  -3.1545548336087175e-20  2.6674730832843321e-18  -1.4637067577342992e-32  1.0436192698238069e-17  1.2596061745660900e-17  6.1196865213563763e-19  2.1271530355182823e-19  -2.1474497381684258e-21  2.4882575433195178e-19  1.1842619038578198e-18  2.6145429758614202e-18  3.1571979451375358e-19  1.1038477926023635e-18  7.0834634039811566e-18  1.0913616326672556e-18  1.6563573996389086e-18  6.4330666754206272e-19  2.8230406049832007e-18  1.4347880523525390e-17  1.1218655665233098e-18  2.0376423419517953e-18  2.9678758474729567e-17  1.6443055739978468e-17  1.4443510391176269e-18  -5.7327026779297895e-19  2.1502684154923935e-18  3.7259405817303645e-19  1.5654765521731708e-18  2.7063882299092670e-19  -2.9099004590734139e-19  6.5076283961571984e-19  -4.9018814691336622e-20  -2.9869855143000270e-21  -4.3376370224026224e-20  1.6147621585651299e-18  1.0938021022829348e-17  5.3848482346179203e-19  2.9875290919005823e-19  6.8233442985961029e-18  6.8572714108345886e-19  3.3086463560536809e-18  4.8872627193559966e-19  1.2874228206180993e-18  3.1409314951659151e-19  9.2365664179780876e-19  2.4826494410829352e-18  1.5042040204071695e-18  4.6029836624811942e-19  1.9809278772652796e-18  7.3380839775637632e-19  1.1778668726771408e-19  6.1906984043044277e-20  2.2382657748446302e-19  2.7974387253429843e-20  4.0067666013982401e-20  2.4648341276759755e-20  6.2517101993921266e-19  3.3266490128270736e-36  4.1446604729151300e-19  7.6233438618903452e-20  2.0246397893483499e-19  1.8217536861259290e-19  3.1894410243921716e-20  -3.1165403767884515e-21  -7.1304240124832106e-21  1.0397633750077337e-19  6.3425729102774350e-21  5.9717704897697032e-20  1.9378605720238031e-20  3.5509574466250985e-21  -4.7019774032891500e-38  8.4259435066941569e-35  1.1746633055362875e-03  6.1508372007266991e-06  2.6177208977359980e-03  3.3044302769243742e-03  3.1297979876133124e-03  3.3814210259310198e-03  2.1021018458789575e-03  2.7142556400140258e-03  2.0810744966075975e-03  6.7843402776723480e-05  1.4336575213659520e-03  6.8953337596811687e-05  7.8518549024357380e-04  1.0410784315711073e-02  8.0120924654598549e-03  5.6683331530616521e-03  2.5750400125695355e-03  5.8024536184307597e-03  4.0289865255319704e-03  6.9416064449640165e-03  7.2575996940892184e-03  4.2803261005470820e-03  8.4150487944135138e-03  8.2269703636522525e-03  1.1312182279916915e-03  8.7904025998314234e-03  1.7146585009969920e-02  7.7696120397700973e-03  7.3490990671725423e-03  2.6474116115110007e-02  2.2756497251172239e-03  1.5543732029869504e-02  1.4656143147060503e-02  7.7980505641651598e-03  1.5095623969583662e-02  2.2707824566106465e-02  7.5816113178887416e-03  1.6078685246863976e-02  1.8340473542975873e-03  6.0516157716850299e-03  3.9691107802356292e-03  8.1086023175644378e-03  1.2120581678935569e-02  1.2499953694602110e-02  8.7034989917251344e-04  2.9724618760429088e-03  7.6897888478409389e-04  7.3712604327389481e-03  1.4162509975222136e-02  2.3058917217355080e-02  2.5457798006511226e-02  1.6940562251300448e-02  2.8733203748315087e-03  2.0715128004717868e-02  2.2109106562416176e-02  8.4080989436001851e-03  1.1339382293865144e-02  2.2256780567151680e-02  2.2843380077669658e-03  1.8514876531137665e-02  1.4903787900043573e-02  1.5980745126887633e-02  1.0555103804142299e-02  1.1487562986652031e-02  3.4705801387808623e-03  2.8354512419516531e-02  9.9353019646750383e-03  5.6552975654007897e-03  1.3969333819443290e-02  2.2938334002363326e-02  1.9607531523106871e-02  4.0354049179653446e-03  1.3025893349407210e-02  2.3469363798739862e-02  3.5364999347945084e-02  4.2500879037418574e-02  4.4754726480991325e-02  4.4314960130417011e-02  3.7661248985842902e-02  2.8446419087772980e-02  8.0846729182634160e-03  5.6207792887189760e-03  1.7628499248276804e-02  1.9762561471949582e-02  1.0547157799689014e-02  1.4113617257569542e-02  2.9737329399229533e-04  1.5678537968624288e-02  2.5093583696375312e-03  1.1262770740146824e-02  2.0036731015530190e-02  1.2393094842960927e-02  8.6111702910774413e-03  4.4018620817158462e-03  3.4958587030664294e-03  6.6522758188960118e-04  8.8003094202221801e-04  3.3451559853579916e-03  2.2118354478123290e-03  1.0546744961868369e-03  4.0561671944044052e-03  5.1653330962540683e-03  1.8398903148580626e-03  2.0905673859132265e-03  8.8159889591803760e-04  1.8006738044818638e-03  6.7312629446661626e-04  1.7067911046909098e-03  2.3757634296875350e-04  6.5718291702042961e-04  2.5042385767985823e-04  5.2896756263227907e-04  1.6216329920717401e-04  7.7591494588860838e-04  9.9005507062825031e-04  2.0132035237334393e-03  1.0904985987165452e-03  1.5678655029485867e-03  1.2275415371830452e-03  1.4891125253919499e-03  5.9973950470062110e-04  2.8014062195073382e-04  4.8645858039185533e-06  7.5494843439004105e-04  4.8703537268402717e-04  1.9857615161934775e-04  2.0105576340563201e-04  2.5487532688761463e-04  2.3008677736024665e-04  1.3210380259816401e-04  1.3051798764760153e-04  9.6433137074439235e-06  7.3754697813225930e-05  2.7150366287511955e-05  2.7839008017383888e-05  4.4484165055285909e-05  5.4008405467082153e-05  1.1680812628906001e-05  4.5959481973269563e-07  5.3334414689233861e-05  8.0886041978589249e-05  9.5003689915372795e-05  4.4983604800717760e-05  2.8970590819328501e-05  2.6061261313039268e-05  8.3911132169722639e-06  4.6105016427040636e-05  1.6623965274657317e-04  3.0086480445473012e-04  3.5101305692270571e-04  2.5869969267349754e-04  9.7463751505760072e-05  2.4752653316349630e-05  8.9769500515330205e-05  1.1565604299357724e-04  1.1467251770831700e-04  9.7750358358012702e-05  7.6741580184445194e-05  6.4458139097194102e-05  5.1272539800155583e-05  4.7712858909618416e-05  4.5445606680202321e-05  3.1085944056549546e-05  3.3019891317588215e-05  9.1814403588807609e-05  1.6649981178586273e-04  1.9054288752400509e-04  1.7696135821761519e-04  1.5040130185695657e-04  1.1933266274158167e-04  9.2409619268342798e-05  7.0278718259481453e-05  5.7335046555381307e-05  4.3119701803562569e-05  5.0600735719557816e-05  6.1367212699946303e-05  4.3041583341325768e-05  2.2189202524716738e-05  9.1963835392227860e-06  5.1645166318708887e-07  3.2457205347602704e-06  4.3762655076557311e-07  1.2725802021259477e-06  7.7033450759724291e-06  9.4982031519292672e-06  8.3741039697339857e-06  3.8504501035328199e-06  4.5652899775530453e-06  4.9456710334825032e-06  1.9262323469089406e-06  1.8593595628273423e-07  1.4498771874084425e-06  2.2074362947728964e-06  4.1840873124415720e-07  1.5224643865198284e-06  9.2894454046610382e-07  6.4158395251471349e-07  3.0378460019790760e-07  1.2246316355370425e-08  -3.2913841823024050e-37  1.3240768367662246e-34  3.8753222773299512e-03  5.8029097924030834e-03  1.7764144274802888e-03  4.2932734116697098e-03  6.3032487180436350e-03  4.1858685403008258e-04  1.1770022041975813e-02  4.5831443070723396e-04  9.6331720326833167e-03  7.1316148213807816e-03  6.7740291051650988e-03  1.5229235674665241e-02  7.5181957252974671e-03  3.5741574504121318e-03  1.2188262519544284e-02  1.4619937196672176e-02  2.6065445172575624e-02  9.4926641045671150e-03  4.0936612677461136e-03  1.0007241309506535e-02  3.0146705268304808e-02  1.2147238169663002e-02  1.9826892754981541e-02  8.1082367532664887e-03  1.7863322880944287e-02  1.9921036667647453e-03  1.0678773137131189e-02  3.8795300012753734e-03  3.7691813569009087e-02  1.1483672642558004e-03  2.0825054035182037e-02  3.6270421351811709e-02  1.2480546167738417e-02  3.4558599129261458e-02  2.0517516265361701e-02  3.2385635932073559e-03  4.4103138484897445e-04  2.9012086847679922e-02  1.4287042086150586e-02  1.9647617690024557e-02  4.2069781155386260e-02  3.1773976966886733e-02  3.9286090852585928e-02  4.6592218740451885e-02  4.8596446059602290e-02  3.1703908701912656e-02  2.9096384439537649e-02  4.7539674552323948e-02  4.7542712218088166e-02  2.7229604009070499e-02  1.0647194901264378e-02  4.6650727833068152e-02  6.5363683443034892e-02  5.6790068102180291e-02  2.7468811013857723e-02  8.6546247926150201e-03  3.4629014821287045e-02  2.5138445689830518e-02  1.9593767036306359e-02  2.1720266688555492e-02  2.2713438254877087e-02  5.4395117274970733e-02  8.8453065389792144e-03  1.6024002463782848e-02  2.2851387862643430e-02  2.9424503044269495e-02  4.0193080230285262e-02  9.3215168709543800e-03  2.3601216806883814e-02  2.1377855917035907e-02  2.9012459807691061e-02  1.2745280586981241e-02  8.1718699253582813e-03  2.6998364710478760e-02  4.7212040776220730e-02  5.0481060627234821e-02  6.4272345800665376e-02  5.6859058019193498e-02  6.1421433781603127e-02  4.1367118208526517e-02  2.3329496903475775e-02  3.4691678534075313e-03  1.6466254926497965e-02  2.5540598239854412e-02  2.6685993894917874e-02  1.1792969723861053e-02  1.9621979409868325e-02  2.8034765470931013e-02  1.3625633569284323e-02  1.9992617183159287e-02  1.6901370281542056e-02  6.8440010158750687e-05  3.1403958104406979e-03  6.7831025721048314e-03  1.0439246225799816e-02  6.8008342484700652e-03  4.8064102732076385e-03  3.2480086977712745e-03  7.1911265502447343e-03  1.0338004735684758e-02  8.7729213810079660e-03  2.9633585232563269e-03  4.7099063526405251e-03  3.8336858064120759e-03  5.4143399621465011e-03  4.5482111873245958e-04  3.6214506781238475e-03  2.3291932214597457e-03  1.5906613545709476e-03  4.5439894072905770e-04  1.3614082950100742e-03  7.5712632394631422e-04  4.7449297654527257e-04  1.2375465326402386e-04  2.0766314276601991e-03  1.1482115765064909e-03  3.2725529607624294e-03  4.9233406696101093e-04  3.0393137722475355e-03  1.0481063488520671e-03  2.0515794936789337e-03  1.8990658376988933e-04  2.7843331948410928e-04  5.7394016851380230e-04  1.1368507192263322e-03  1.5816217050636155e-04  4.2040458291120502e-04  1.9701881872403323e-04  3.4651452909866426e-04  2.0125487118035189e-04  1.9596711898992118e-04  9.4372587385855881e-05  2.1475143719971125e-05  1.3163466750446809e-04  4.7938623394660018e-05  2.6223949418211000e-06  1.1357107724309032e-04  2.2494870886774505e-05  4.6498923233425845e-06  4.4884223943737929e-05  9.9178425108556218e-05  1.3074747935902542e-04  9.4661261355611219e-05  2.8332404459621447e-05  4.5938553721198335e-05  2.6566153387756902e-05  3.1122088980666230e-05  1.6220492717763786e-04  3.5799589515045962e-04  4.7886719295247492e-04  4.1594485544700177e-04  1.9887270794084121e-04  8.4919243220442794e-06  8.9729807796174685e-05  1.3869037481498291e-04  1.5568862720413633e-04  1.4446240571459496e-04  1.1726300918833928e-04  9.5845372741781682e-05  8.1643276606242310e-05  6.5491617220464924e-05  6.9130699841841065e-05  5.4970056843790712e-05  3.9144508426069932e-05  8.5600490110071133e-05  2.0201923361250660e-04  2.6420943626303715e-04  2.4760936362302365e-04  2.1633609417128738e-04  1.7938389101710694e-04  1.4189017434124482e-04  1.0948422642799685e-04  8.6555623213945538e-05  6.9184930882851847e-05  5.8041630807419465e-05  8.5562994203326374e-05  7.3065749905479245e-05  3.6009528182508303e-05  1.6934691593166064e-05  4.9687215485250861e-06  1.8644467432642484e-06  3.9157573648772625e-06  3.4713224208934971e-06  5.8898163999903084e-06  1.5795730556546990e-05  1.1480992918751314e-05  9.0318621954292764e-06  2.8408313991953453e-06  8.4699455318867055e-06  5.8592124362061733e-06  8.5763152751686063e-07  7.4162536135490777e-07  3.8802537631669331e-07  2.5577287060783864e-06  1.5562342529537248e-06  1.5120646538836429e-06  1.2277849878132482e-06  7.2564828010077881e-07  2.6561266039129790e-07  -2.0977811778101641e-23  -3.0311460012963707e-20  1.4603946984439874e-03  1.2521194096046940e-03  7.4381716409104489e-05  3.5058086017055790e-03  1.3901073401836115e-02  8.2336027752759648e-04  1.2944205751108563e-02  1.2556894583534768e-02  6.6954414766183532e-03  1.1657071800215222e-02  3.5982855291058643e-03  8.7787306596969171e-03  9.3648172559246470e-03  3.8915685393732221e-04  1.3409269157001791e-02  2.2984082124604108e-02  2.8989076754204934e-02  1.8334584405856631e-02  1.2917660753499116e-02  1.3573471184996947e-02  4.0473822360411702e-04  8.2962004114013332e-03  1.3457117124890857e-02  2.7474073051393117e-02  3.4678878488476864e-03  6.1219422494646688e-04  1.6822628032240581e-02  4.3653440709028137e-02  4.1891996561330951e-03  2.1779502805965519e-02  4.2463667798688404e-02  1.5009738191048788e-02  4.4146851604128422e-02  8.1342693309196593e-03  1.0843624761092938e-02  2.6942906396933645e-02  5.3236205020815511e-02  3.8079919616452809e-02  4.7179851960261601e-02  2.3337406350579033e-02  2.7396340771754166e-03  2.0513246335940503e-02  6.8347499668352275e-03  7.5990638315653076e-03  1.0872958282570131e-02  1.0694050504721902e-02  2.2595117922574834e-02  2.2787282548061182e-02  3.8470138422827441e-02  5.4342472969410707e-02  6.4677777140437417e-02  5.5963171565156816e-02  2.5523033287372991e-02  2.5678699474772252e-02  6.9939139901287486e-02  7.1286617254025839e-02  2.4971508375684692e-02  3.4956787249638056e-02  6.1307804845232274e-02  1.2320863886853691e-02  4.0438375226137496e-02  3.1222016004953529e-02  4.0091839542494262e-02  3.9037372027988182e-02  1.4508960613117577e-02  3.8012047351954157e-03  6.3063444262306631e-02  7.2025668737012117e-03  2.4196696199021459e-02  2.6003733246128095e-02  3.2599740742389950e-02  2.4344606800937332e-02  5.4731333026922877e-03  2.7783794618725471e-02  3.5955444686198774e-02  5.8488108193716838e-02  6.3804000065712282e-02  6.9003286408542017e-02  6.3225505297150902e-02  5.5793235350899854e-02  3.8464401261663915e-02  3.8963868273193107e-03  1.3243307265588507e-02  2.7110181199042706e-02  2.5344844243858640e-02  1.3571453778252756e-02  3.6096199607052855e-02  4.7900722873888395e-03  4.3333852972196038e-02  3.1248268080135292e-03  3.5393420256973687e-02  5.6418402788107447e-02  3.9474662914428950e-02  2.7172069926496952e-02  1.7526250486794369e-02  1.4637141945947386e-02  6.8798143066810084e-03  8.2865711265074540e-04  5.2492142726529856e-03  2.9838723277804567e-03  5.4427345251881120e-03  1.2845384178455495e-02  1.3994730340087268e-02  5.1511042618419805e-03  2.7059461021451663e-03  2.5119007025692620e-03  1.8861985908891052e-03  1.4256000211144014e-03  4.4851370347126218e-03  6.3665630309907382e-04  3.7116836713960697e-04  6.8553618131874034e-04  1.3562810065053167e-03  6.6393613325588301e-05  9.9005683592399930e-04  2.0675022314690351e-03  4.8207118632970945e-03  1.4798334761251932e-03  1.4835635740957484e-03  2.3105652418312205e-03  3.9178501239744701e-03  4.1149422370807039e-04  5.0061786870172771e-04  1.1362283649850244e-06  1.3300571017759409e-03  5.8796921362563653e-04  8.9260507509298086e-04  2.7120308712752045e-04  2.1028850256393073e-04  3.0588944490253094e-04  1.3867160258830064e-04  2.3689959132242128e-04  2.4235749958675986e-05  1.4214150657663546e-04  6.3894844476906936e-05  9.2046830788867435e-05  1.0414569329736387e-04  1.1134837977187853e-04  2.4467210708345487e-05  8.9846733171023896e-06  1.0192116687002728e-04  1.2641078929815548e-04  1.4532683660002375e-04  4.0735802145861190e-05  2.9496778939304978e-05  5.2306050620837766e-05  1.7616771721761221e-05  9.7205041786581250e-05  3.2149970249820234e-04  5.1630162066725158e-04  5.2752921828704935e-04  3.1021158805576252e-04  4.6647473843254919e-05  7.9650093895544820e-05  1.2355720473163274e-04  1.5189451617583541e-04  1.5793426488772949e-04  1.3898102998416935e-04  1.1115242867061015e-04  1.0026688269725470e-04  8.0625367088661383e-05  7.5404957171710014e-05  7.6052641979518478e-05  4.7842731999509781e-05  5.5264981294913292e-05  1.7112310469473256e-04  2.9445952576323184e-04  2.9228937499838775e-04  2.4298745231506237e-04  2.0792764422810573e-04  1.7111542235765626e-04  1.3722368700662161e-04  1.0569073056360320e-04  8.9535091482899302e-05  6.5251510017628732e-05  8.0180704527228909e-05  1.0305201206714839e-04  5.4802417328317758e-05  1.8801241471777149e-05  1.0048684826905863e-05  1.4099073272733840e-06  3.4303321543704680e-06  8.7183564412780222e-07  3.6754367578062507e-06  1.7726668792492350e-05  1.7128290373333142e-05  1.0834270422091041e-05  3.9182259052694550e-06  6.8662974304542909e-06  9.4539069666205222e-06  2.4635400288540131e-06  2.0111138549911206e-06  3.6157259981651816e-06  4.5761693549438140e-06  1.8066868410323559e-07  2.8305204488208782e-06  1.2588970290918224e-06  1.0713819906556640e-06  5.8200296215684461e-07  -6.5201260437611261e-23  -4.8148248609680896e-34  5.4604272007775811e-04  2.8847333710918422e-03  1.1818832890441680e-02  1.9556660404907651e-04  8.0035943921241931e-04  4.1179792221160269e-03  7.0040934701920783e-03  1.0294538289973966e-02  3.5043933377197816e-03  9.3051846138163218e-03  1.0314323320354106e-02  6.8706830783334385e-03  1.8675113598201853e-02  1.4528561941094449e-02  1.5260945443625849e-03  2.7919911071147767e-02  1.7198269541036069e-03  3.1863471439475266e-02  1.8583114550371829e-02  1.3265952