<?xml version="1.0"?>
<VTKFile type="UnstructuredGrid"  version="0.1"  >
<UnstructuredGrid>
<Piece  NumberOfPoints="10201" NumberOfCells="20000">
<Points>
<DataArray  type="Float64"  NumberOfComponents="3"  format="ascii">0 0 0  0.01 0 0  0.02 0 0  0.03 0 0  0.04 0 0  0.05 0 0  0.06 0 0  0.07000000000000001 0 0  0.08 0 0  0.09 0 0  0.1 0 0  0.11 0 0  0.12 0 0  0.13 0 0  0.14 0 0  0.15 0 0  0.16 0 0  0.17 0 0  0.18 0 0  0.19 0 0  0.2 0 0  0.21 0 0  0.22 0 0  0.23 0 0  0.24 0 0  0.25 0 0  0.26 0 0  0.27 0 0  0.28 0 0  0.29 0 0  0.3 0 0  0.31 0 0  0.32 0 0  0.33 0 0  0.34 0 0  0.35 0 0  0.36 0 0  0.37 0 0  0.38 0 0  0.39 0 0  0.4 0 0  0.41 0 0  0.42 0 0  0.43 0 0  0.44 0 0  0.45 0 0  0.46 0 0  0.47 0 0  0.48 0 0  0.49 0 0  0.5 0 0  0.51 0 0  0.52 0 0  0.53 0 0  0.54 0 0  0.55 0 0  0.5600000000000001 0 0  0.57 0 0  0.58 0 0  0.59 0 0  0.6 0 0  0.61 0 0  0.62 0 0  0.63 0 0  0.64 0 0  0.65 0 0  0.66 0 0  0.67 0 0  0.68 0 0  0.6899999999999999 0 0  0.7 0 0  0.71 0 0  0.72 0 0  0.73 0 0  0.74 0 0  0.75 0 0  0.76 0 0  0.77 0 0  0.78 0 0  0.79 0 0  0.8 0 0  0.8100000000000001 0 0  0.82 0 0  0.83 0 0  0.84 0 0  0.85 0 0  0.86 0 0  0.87 0 0  0.88 0 0  0.89 0 0  0.9 0 0  0.91 0 0  0.92 0 0  0.93 0 0  0.9399999999999999 0 0  0.95 0 0  0.96 0 0  0.97 0 0  0.98 0 0  0.99 0 0  1 0 0  0 0.01 0  0.01 0.01 0  0.02 0.01 0  0.03 0.01 0  0.04 0.01 0  0.05 0.01 0  0.06 0.01 0  0.07000000000000001 0.01 0  0.08 0.01 0  0.09 0.01 0  0.1 0.01 0  0.11 0.01 0  0.12 0.01 0  0.13 0.01 0  0.14 0.01 0  0.15 0.01 0  0.16 0.01 0  0.17 0.01 0  0.18 0.01 0  0.19 0.01 0  0.2 0.01 0  0.21 0.01 0  0.22 0.01 0  0.23 0.01 0  0.24 0.01 0  0.25 0.01 0  0.26 0.01 0  0.27 0.01 0  0.28 0.01 0  0.29 0.01 0  0.3 0.01 0  0.31 0.01 0  0.32 0.01 0  0.33 0.01 0  0.34 0.01 0  0.35 0.01 0  0.36 0.01 0  0.37 0.01 0  0.38 0.01 0  0.39 0.01 0  0.4 0.01 0  0.41 0.01 0  0.42 0.01 0  0.43 0.01 0  0.44 0.01 0  0.45 0.01 0  0.46 0.01 0  0.47 0.01 0  0.48 0.01 0  0.49 0.01 0  0.5 0.01 0  0.51 0.01 0  0.52 0.01 0  0.53 0.01 0  0.54 0.01 0  0.55 0.01 0  0.5600000000000001 0.01 0  0.57 0.01 0  0.58 0.01 0  0.59 0.01 0  0.6 0.01 0  0.61 0.01 0  0.62 0.01 0  0.63 0.01 0  0.64 0.01 0  0.65 0.01 0  0.66 0.01 0  0.67 0.01 0  0.68 0.01 0  0.6899999999999999 0.01 0  0.7 0.01 0  0.71 0.01 0  0.72 0.01 0  0.73 0.01 0  0.74 0.01 0  0.75 0.01 0  0.76 0.01 0  0.77 0.01 0  0.78 0.01 0  0.79 0.01 0  0.8 0.01 0  0.8100000000000001 0.01 0  0.82 0.01 0  0.83 0.01 0  0.84 0.01 0  0.85 0.01 0  0.86 0.01 0  0.87 0.01 0  0.88 0.01 0  0.89 0.01 0  0.9 0.01 0  0.91 0.01 0  0.92 0.01 0  0.93 0.01 0  0.9399999999999999 0.01 0  0.95 0.01 0  0.96 0.01 0  0.97 0.01 0  0.98 0.01 0  0.99 0.01 0  1 0.01 0  0 0.02 0  0.01 0.02 0  0.02 0.02 0  0.03 0.02 0  0.04 0.02 0  0.05 0.02 0  0.06 0.02 0  0.07000000000000001 0.02 0  0.08 0.02 0  0.09 0.02 0  0.1 0.02 0  0.11 0.02 0  0.12 0.02 0  0.13 0.02 0  0.14 0.02 0  0.15 0.02 0  0.16 0.02 0  0.17 0.02 0  0.18 0.02 0  0.19 0.02 0  0.2 0.02 0  0.21 0.02 0  0.22 0.02 0  0.23 0.02 0  0.24 0.02 0  0.25 0.02 0  0.26 0.02 0  0.27 0.02 0  0.28 0.02 0  0.29 0.02 0  0.3 0.02 0  0.31 0.02 0  0.32 0.02 0  0.33 0.02 0  0.34 0.02 0  0.35 0.02 0  0.36 0.02 0  0.37 0.02 0  0.38 0.02 0  0.39 0.02 0  0.4 0.02 0  0.41 0.02 0  0.42 0.02 0  0.43 0.02 0  0.44 0.02 0  0.45 0.02 0  0.46 0.02 0  0.47 0.02 0  0.48 0.02 0  0.49 0.02 0  0.5 0.02 0  0.51 0.02 0  0.52 0.02 0  0.53 0.02 0  0.54 0.02 0  0.55 0.02 0  0.5600000000000001 0.02 0  0.57 0.02 0  0.58 0.02 0  0.59 0.02 0  0.6 0.02 0  0.61 0.02 0  0.62 0.02 0  0.63 0.02 0  0.64 0.02 0  0.65 0.02 0  0.66 0.02 0  0.67 0.02 0  0.68 0.02 0  0.6899999999999999 0.02 0  0.7 0.02 0  0.71 0.02 0  0.72 0.02 0  0.73 0.02 0  0.74 0.02 0  0.75 0.02 0  0.76 0.02 0  0.77 0.02 0  0.78 0.02 0  0.79 0.02 0  0.8 0.02 0  0.8100000000000001 0.02 0  0.82 0.02 0  0.83 0.02 0  0.84 0.02 0  0.85 0.02 0  0.86 0.02 0  0.87 0.02 0  0.88 0.02 0  0.89 0.02 0  0.9 0.02 0  0.91 0.02 0  0.92 0.02 0  0.93 0.02 0  0.9399999999999999 0.02 0  0.95 0.02 0  0.96 0.02 0  0.97 0.02 0  0.98 0.02 0  0.99 0.02 0  1 0.02 0  0 0.03 0  0.01 0.03 0  0.02 0.03 0  0.03 0.03 0  0.04 0.03 0  0.05 0.03 0  0.06 0.03 0  0.07000000000000001 0.03 0  0.08 0.03 0  0.09 0.03 0  0.1 0.03 0  0.11 0.03 0  0.12 0.03 0  0.13 0.03 0  0.14 0.03 0  0.15 0.03 0  0.16 0.03 0  0.17 0.03 0  0.18 0.03 0  0.19 0.03 0  0.2 0.03 0  0.21 0.03 0  0.22 0.03 0  0.23 0.03 0  0.24 0.03 0  0.25 0.03 0  0.26 0.03 0  0.27 0.03 0  0.28 0.03 0  0.29 0.03 0  0.3 0.03 0  0.31 0.03 0  0.32 0.03 0  0.33 0.03 0  0.34 0.03 0  0.35 0.03 0  0.36 0.03 0  0.37 0.03 0  0.38 0.03 0  0.39 0.03 0  0.4 0.03 0  0.41 0.03 0  0.42 0.03 0  0.43 0.03 0  0.44 0.03 0  0.45 0.03 0  0.46 0.03 0  0.47 0.03 0  0.48 0.03 0  0.49 0.03 0  0.5 0.03 0  0.51 0.03 0  0.52 0.03 0  0.53 0.03 0  0.54 0.03 0  0.55 0.03 0  0.5600000000000001 0.03 0  0.57 0.03 0  0.58 0.03 0  0.59 0.03 0  0.6 0.03 0  0.61 0.03 0  0.62 0.03 0  0.63 0.03 0  0.64 0.03 0  0.65 0.03 0  0.66 0.03 0  0.67 0.03 0  0.68 0.03 0  0.6899999999999999 0.03 0  0.7 0.03 0  0.71 0.03 0  0.72 0.03 0  0.73 0.03 0  0.74 0.03 0  0.75 0.03 0  0.76 0.03 0  0.77 0.03 0  0.78 0.03 0  0.79 0.03 0  0.8 0.03 0  0.8100000000000001 0.03 0  0.82 0.03 0  0.83 0.03 0  0.84 0.03 0  0.85 0.03 0  0.86 0.03 0  0.87 0.03 0  0.88 0.03 0  0.89 0.03 0  0.9 0.03 0  0.91 0.03 0  0.92 0.03 0  0.93 0.03 0  0.9399999999999999 0.03 0  0.95 0.03 0  0.96 0.03 0  0.97 0.03 0  0.98 0.03 0  0.99 0.03 0  1 0.03 0  0 0.04 0  0.01 0.04 0  0.02 0.04 0  0.03 0.04 0  0.04 0.04 0  0.05 0.04 0  0.06 0.04 0  0.07000000000000001 0.04 0  0.08 0.04 0  0.09 0.04 0  0.1 0.04 0  0.11 0.04 0  0.12 0.04 0  0.13 0.04 0  0.14 0.04 0  0.15 0.04 0  0.16 0.04 0  0.17 0.04 0  0.18 0.04 0  0.19 0.04 0  0.2 0.04 0  0.21 0.04 0  0.22 0.04 0  0.23 0.04 0  0.24 0.04 0  0.25 0.04 0  0.26 0.04 0  0.27 0.04 0  0.28 0.04 0  0.29 0.04 0  0.3 0.04 0  0.31 0.04 0  0.32 0.04 0  0.33 0.04 0  0.34 0.04 0  0.35 0.04 0  0.36 0.04 0  0.37 0.04 0  0.38 0.04 0  0.39 0.04 0  0.4 0.04 0  0.41 0.04 0  0.42 0.04 0  0.43 0.04 0  0.44 0.04 0  0.45 0.04 0  0.46 0.04 0  0.47 0.04 0  0.48 0.04 0  0.49 0.04 0  0.5 0.04 0  0.51 0.04 0  0.52 0.04 0  0.53 0.04 0  0.54 0.04 0  0.55 0.04 0  0.5600000000000001 0.04 0  0.57 0.04 0  0.58 0.04 0  0.59 0.04 0  0.6 0.04 0  0.61 0.04 0  0.62 0.04 0  0.63 0.04 0  0.64 0.04 0  0.65 0.04 0  0.66 0.04 0  0.67 0.04 0  0.68 0.04 0  0.6899999999999999 0.04 0  0.7 0.04 0  0.71 0.04 0  0.72 0.04 0  0.73 0.04 0  0.74 0.04 0  0.75 0.04 0  0.76 0.04 0  0.77 0.04 0  0.78 0.04 0  0.79 0.04 0  0.8 0.04 0  0.8100000000000001 0.04 0  0.82 0.04 0  0.83 0.04 0  0.84 0.04 0  0.85 0.04 0  0.86 0.04 0  0.87 0.04 0  0.88 0.04 0  0.89 0.04 0  0.9 0.04 0  0.91 0.04 0  0.92 0.04 0  0.93 0.04 0  0.9399999999999999 0.04 0  0.95 0.04 0  0.96 0.04 0  0.97 0.04 0  0.98 0.04 0  0.99 0.04 0  1 0.04 0  0 0.05 0  0.01 0.05 0  0.02 0.05 0  0.03 0.05 0  0.04 0.05 0  0.05 0.05 0  0.06 0.05 0  0.07000000000000001 0.05 0  0.08 0.05 0  0.09 0.05 0  0.1 0.05 0  0.11 0.05 0  0.12 0.05 0  0.13 0.05 0  0.14 0.05 0  0.15 0.05 0  0.16 0.05 0  0.17 0.05 0  0.18 0.05 0  0.19 0.05 0  0.2 0.05 0  0.21 0.05 0  0.22 0.05 0  0.23 0.05 0  0.24 0.05 0  0.25 0.05 0  0.26 0.05 0  0.27 0.05 0  0.28 0.05 0  0.29 0.05 0  0.3 0.05 0  0.31 0.05 0  0.32 0.05 0  0.33 0.05 0  0.34 0.05 0  0.35 0.05 0  0.36 0.05 0  0.37 0.05 0  0.38 0.05 0  0.39 0.05 0  0.4 0.05 0  0.41 0.05 0  0.42 0.05 0  0.43 0.05 0  0.44 0.05 0  0.45 0.05 0  0.46 0.05 0  0.47 0.05 0  0.48 0.05 0  0.49 0.05 0  0.5 0.05 0  0.51 0.05 0  0.52 0.05 0  0.53 0.05 0  0.54 0.05 0  0.55 0.05 0  0.5600000000000001 0.05 0  0.57 0.05 0  0.58 0.05 0  0.59 0.05 0  0.6 0.05 0  0.61 0.05 0  0.62 0.05 0  0.63 0.05 0  0.64 0.05 0  0.65 0.05 0  0.66 0.05 0  0.67 0.05 0  0.68 0.05 0  0.6899999999999999 0.05 0  0.7 0.05 0  0.71 0.05 0  0.72 0.05 0  0.73 0.05 0  0.74 0.05 0  0.75 0.05 0  0.76 0.05 0  0.77 0.05 0  0.78 0.05 0  0.79 0.05 0  0.8 0.05 0  0.8100000000000001 0.05 0  0.82 0.05 0  0.83 0.05 0  0.84 0.05 0  0.85 0.05 0  0.86 0.05 0  0.87 0.05 0  0.88 0.05 0  0.89 0.05 0  0.9 0.05 0  0.91 0.05 0  0.92 0.05 0  0.93 0.05 0  0.9399999999999999 0.05 0  0.95 0.05 0  0.96 0.05 0  0.97 0.05 0  0.98 0.05 0  0.99 0.05 0  1 0.05 0  0 0.06 0  0.01 0.06 0  0.02 0.06 0  0.03 0.06 0  0.04 0.06 0  0.05 0.06 0  0.06 0.06 0  0.07000000000000001 0.06 0  0.08 0.06 0  0.09 0.06 0  0.1 0.06 0  0.11 0.06 0  0.12 0.06 0  0.13 0.06 0  0.14 0.06 0  0.15 0.06 0  0.16 0.06 0  0.17 0.06 0  0.18 0.06 0  0.19 0.06 0  0.2 0.06 0  0.21 0.06 0  0.22 0.06 0  0.23 0.06 0  0.24 0.06 0  0.25 0.06 0  0.26 0.06 0  0.27 0.06 0  0.28 0.06 0  0.29 0.06 0  0.3 0.06 0  0.31 0.06 0  0.32 0.06 0  0.33 0.06 0  0.34 0.06 0  0.35 0.06 0  0.36 0.06 0  0.37 0.06 0  0.38 0.06 0  0.39 0.06 0  0.4 0.06 0  0.41 0.06 0  0.42 0.06 0  0.43 0.06 0  0.44 0.06 0  0.45 0.06 0  0.46 0.06 0  0.47 0.06 0  0.48 0.06 0  0.49 0.06 0  0.5 0.06 0  0.51 0.06 0  0.52 0.06 0  0.53 0.06 0  0.54 0.06 0  0.55 0.06 0  0.5600000000000001 0.06 0  0.57 0.06 0  0.58 0.06 0  0.59 0.06 0  0.6 0.06 0  0.61 0.06 0  0.62 0.06 0  0.63 0.06 0  0.64 0.06 0  0.65 0.06 0  0.66 0.06 0  0.67 0.06 0  0.68 0.06 0  0.6899999999999999 0.06 0  0.7 0.06 0  0.71 0.06 0  0.72 0.06 0  0.73 0.06 0  0.74 0.06 0  0.75 0.06 0  0.76 0.06 0  0.77 0.06 0  0.78 0.06 0  0.79 0.06 0  0.8 0.06 0  0.8100000000000001 0.06 0  0.82 0.06 0  0.83 0.06 0  0.84 0.06 0  0.85 0.06 0  0.86 0.06 0  0.87 0.06 0  0.88 0.06 0  0.89 0.06 0  0.9 0.06 0  0.91 0.06 0  0.92 0.06 0  0.93 0.06 0  0.9399999999999999 0.06 0  0.95 0.06 0  0.96 0.06 0  0.97 0.06 0  0.98 0.06 0  0.99 0.06 0  1 0.06 0  0 0.07000000000000001 0  0.01 0.07000000000000001 0  0.02 0.07000000000000001 0  0.03 0.07000000000000001 0  0.04 0.07000000000000001 0  0.05 0.07000000000000001 0  0.06 0.07000000000000001 0  0.07000000000000001 0.07000000000000001 0  0.08 0.07000000000000001 0  0.09 0.07000000000000001 0  0.1 0.07000000000000001 0  0.11 0.07000000000000001 0  0.12 0.07000000000000001 0  0.13 0.07000000000000001 0  0.14 0.07000000000000001 0  0.15 0.07000000000000001 0  0.16 0.07000000000000001 0  0.17 0.0700
[...]
<PointData  Scalars="u"> 
<DataArray  type="Float64"  Name="u"  format="ascii">0.0000000000000000e+00  0.0000000000000000e+00  0.0000000000000000e+00  0.0000000000000000e+00  0.0000000000000000e+00  0.0000000000000000e+00  0.0000000000000000e+00  0.0000000000000000e+00  0.0000000000000000e+00  0.0000000000000000e+00  0.0000000000000000e+00  0.0000000000000000e+00  0.0000000000000000e+00  0.0000000000000000e+00  0.0000000000000000e+00  0.0000000000000000e+00  0.0000000000000000e+00  0.0000000000000000e+00  0.0000000000000000e+00  0.0000000000000000e+00  0.0000000000000000e+00  0.0000000000000000e+00  0.0000000000000000e+00  0.0000000000000000e+00  0.0000000000000000e+00  0.0000000000000000e+00  0.0000000000000000e+00  0.0000000000000000e+00  0.0000000000000000e+00  0.0000000000000000e+00  0.0000000000000000e+00  0.0000000000000000e+00  0.0000000000000000e+00  0.0000000000000000e+00  0.0000000000000000e+00  0.0000000000000000e+00  0.0000000000000000e+00  0.0000000000000000e+00  0.0000000000000000e+00  0.0000000000000000e+00  0.0000000000000000e+00  0.0000000000000000e+00  0.0000000000000000e+00  0.0000000000000000e+00  0.0000000000000000e+00  0.0000000000000000e+00  0.0000000000000000e+00  0.0000000000000000e+00  0.0000000000000000e+00  0.0000000000000000e+00  0.0000000000000000e+00  0.0000000000000000e+00  0.0000000000000000e+00  0.0000000000000000e+00  0.0000000000000000e+00  0.0000000000000000e+00  0.0000000000000000e+00  0.0000000000000000e+00  0.0000000000000000e+00  0.0000000000000000e+00  0.0000000000000000e+00  0.0000000000000000e+00  0.0000000000000000e+00  0.0000000000000000e+00  0.0000000000000000e+00  0.0000000000000000e+00  0.0000000000000000e+00  0.0000000000000000e+00  0.0000000000000000e+00  0.0000000000000000e+00  0.0000000000000000e+00  0.0000000000000000e+00  0.0000000000000000e+00  0.0000000000000000e+00  0.0000000000000000e+00  0.0000000000000000e+00  0.0000000000000000e+00  0.0000000000000000e+00  0.0000000000000000e+00  0.0000000000000000e+00  0.0000000000000000e+00  0.0000000000000000e+00  0.0000000000000000e+00  0.0000000000000000e+00  0.0000000000000000e+00  0.0000000000000000e+00  0.0000000000000000e+00  0.0000000000000000e+00  0.0000000000000000e+00  0.0000000000000000e+00  0.0000000000000000e+00  0.0000000000000000e+00  0.0000000000000000e+00  0.0000000000000000e+00  0.0000000000000000e+00  0.0000000000000000e+00  0.0000000000000000e+00  0.0000000000000000e+00  0.0000000000000000e+00  0.0000000000000000e+00  0.0000000000000000e+00  0.0000000000000000e+00  5.9766278511638244e-07  1.2112418529822642e-06  1.8411160946007664e-06  2.4875150384941764e-06  3.1506314481739595e-06  3.8306229792840439e-06  4.5276070779371105e-06  5.2416552658115067e-06  5.9727869481614228e-06  6.7209627378342575e-06  7.4860772936217204e-06  8.2679516787681722e-06  9.0663252551797342e-06  9.8808471405685910e-06  1.0711067269591860e-05  1.1556427116110154e-05  1.2416250152160480e-05  1.3289732139987575e-05  1.4175931376701375e-05  1.5073759036330877e-05  1.5981969781267848e-05  1.6899152843538090e-05  1.7823723805568905e-05  1.8753917339085764e-05  1.9687781188451386e-05  2.0623171709630491e-05  2.1557751296542184e-05  2.2488988040821826e-05  2.3414157977086368e-05  2.4330350261351582e-05  2.5234475613259577e-05  2.6123278321146695e-05  2.6993352061033759e-05  2.7841159714953245e-05  2.8663057290318394e-05  2.9455321940307341e-05  3.0214183967184137e-05  3.0935862558442939e-05  3.1616604863800651e-05  3.2252727874498158e-05  3.2840662421449647e-05  3.3376998473019129e-05  3.3858530794229709e-05  3.4282303935293079e-05  3.4645655455667123e-05  3.4946256266957010e-05  3.5182146998377259e-05  3.5351769354619984e-05  3.5453991547531562e-05  3.5488127036867553e-05  3.5453946005731108e-05  3.5351679214630029e-05  3.5182014114086815e-05  3.4946083337667558e-05  3.4645445933181370e-05  3.4282061907823020e-05  3.3858260853047448e-05  3.3376705568375542e-05  3.2840351714471651e-05  3.2252404591496511e-05  3.1616274158805091e-05  3.0935529388852248e-05  3.0213852986308983e-05  2.9454997409340598e-05  2.8662743011095007e-05  2.7840858983668555e-05  2.6993067642155390e-05  2.6123012439920208e-05  2.5234229964594197e-05  2.4330126032544504e-05  2.3413955881578227e-05  2.2488808360243572e-05  2.1557593928357417e-05  2.0623036217952928e-05  1.9687666855921394e-05  1.8753823218005009e-05  1.7823648766860118e-05  1.6899095622457637e-05  1.5981929019083235e-05  1.5073733317524295e-05  1.4175919261429944e-05  1.3289732191802457e-05  1.2416260961107051e-05  1.1556447317466378e-05  1.0711095558571101e-05  9.8808822834002662e-06  9.0663660969516864e-06  8.2679971484902200e-06  7.4861264068931205e-06  6.7210145975255543e-06  5.9728407434709384e-06  5.2417102700148056e-06  4.5276626450695039e-06  3.8306785396038004e-06  3.1506864995207427e-06  2.4875691107779291e-06  1.8411685149174569e-06  1.2112899787042804e-06  5.9769192209743487e-07  0.0000000000000000e+00  0.0000000000000000e+00  1.2111794868853320e-06  2.4562518931415904e-06  3.7358228658752854e-06  5.0505001046646817e-06  6.4008084865798087e-06  7.7871983066434843e-06  9.2100424425825345e-06  1.0669624820750819e-05  1.2166127226247537e-05  1.3699614955630682e-05  1.5270021301378533e-05  1.6877130859880631e-05  1.8520561674223244e-05  2.0199746247282011e-05  2.1913911490028594e-05  2.3662057704954155e-05  2.5442936745342215e-05  2.7255029538264883e-05  2.9096523212447184e-05  3.0965288131682751e-05  3.2858855199513950e-05  3.4774393870807540e-05  3.6708691379148493e-05  3.8658133763767154e-05  4.0618689353633817e-05  4.2585895435866724e-05  4.4554848897266237e-05  4.6520201676535676e-05  4.8476161895747481e-05  5.0416501547105767e-05  5.2334571589060084e-05  5.4223325248807141e-05  5.6075350230759583e-05  5.7882910388401369e-05  5.9637997227662608e-05  6.1332391372685265e-05  6.2957733842226420e-05  6.4505606662128756e-05  6.5967621985456385e-05  6.7335518519735115e-05  6.8601263686195982e-05  6.9757159578308768e-05  7.0795950466745716e-05  7.1710929337387471e-05  7.2496040768319268e-05  7.3145977369438385e-05  7.3656267037751789e-05  7.4023348430541573e-05  7.4244632327824029e-05  7.4318546937608121e-05  7.4244565677258103e-05  7.4023216519708053e-05  7.3656072596265317e-05  7.3145724367166650e-05  7.2495734273801324e-05  7.1710575341517066e-05  7.0795555681110015e-05  6.9756731218459915e-05  6.8600809250336691e-05  6.7335045572717046e-05  6.5967137956946635e-05  6.4505118666162014e-05  6.2957248523591870e-05  6.1331914783557768e-05  5.9637534736029306e-05  5.7882466618066844e-05  5.6074929031222339e-05  5.4222929692167011e-05  5.2334203990274187e-05  5.0416163503453357e-05  4.8475854341188492e-05  4.6519924946740733e-05  4.4554602801361799e-05  4.2585679331391290e-05  4.0618502221704785e-05  3.8657974282022158e-05  3.6708557990545481e-05  3.4774284846973831e-05  3.2858768697683092e-05  3.0965222244795171e-05  2.9096476012238941e-05  2.7254999111479253e-05  2.5442921223389708e-05  2.3662055287500403e-05  2.1913920463067524e-05  2.0199764996316921e-05  1.8520588693190918e-05  1.6877164756431379e-05  1.5270060799115513e-05  1.3699658893848769e-05  1.2166174557675103e-05  1.0669674607732036e-05  9.2100938520218774e-06  7.7872506036533534e-06  6.4008610238610799e-06  5.0505522936228081e-06  3.7358744622552352e-06  2.4563096411363281e-06  1.2112690210875240e-06  0.0000000000000000e+00  0.0000000000000000e+00  1.8410618202337309e-06  3.7358416277866003e-06  5.6854131765045557e-06  7.6909200527539633e-06  9.7533415591040029e-06  1.1873582581663691e-05  1.4052435327750815e-05  1.6290564309723101e-05  1.8588486138149680e-05  2.0946546586600060e-05  2.3364895531934797e-05  2.5843459762206445e-05  2.8381913630758980e-05  3.0979647570986467e-05  3.3635734532048723e-05  3.6348894451638093e-05  3.9117456948775468e-05  4.1939322498253708e-05  4.4811922439281455e-05  4.7732178274452868e-05  5.0696460830803371e-05  5.3700549981692733e-05  5.6739595764436028e-05  5.9808081871505757e-05  6.2899792638179182e-05  6.6007784791981272e-05  6.9124365361633211e-05  7.2241077257672578e-05  7.5348694123520907e-05  7.8437226103432399e-05  8.1495938171137502e-05  8.4513382597337745e-05  8.7477446994854206e-05  9.0375419156009477e-05  9.3194069581223611e-05  9.5919752186516822e-05  9.8538523172370779e-05  1.0103627744515807e-04  1.0339890131998801e-04  1.0561243952304619e-04  1.0766327378299554e-04  1.0953830959109020e-04  1.1122516706110121e-04  1.1271237127623881e-04  1.1398953711566409e-04  1.1504754334572315e-04  1.1587869077218761e-04  1.1647683949744949e-04  1.1683752081516493e-04  1.1695801999129134e-04  1.1683742709585383e-04  1.1647665411960604e-04  1.1587841777746386e-04  1.1504718860160578e-04  1.1398910809457803e-04  1.1271187678158731e-04  1.1122461691561307e-04  1.0953771430422400e-04  1.0766264421416403e-04  1.0561178655642947e-04  1.0339823556454267e-04  1.0103560897087282e-04  9.8537861290447093e-05  9.5919105278117646e-05  9.3193444976131639e-05  9.0374823059957536e-05  8.7476884461914990e-05  8.4512857542136131e-05  8.1495453414577346e-05  7.8436783445060405e-05  7.5348294433580718e-05  7.2240720582347642e-05  6.9124051035410677e-05  6.6007511552088280e-05  6.2899558736762080e-05  5.9807885182273683e-05  5.6739433881306148e-05  5.3700420307791491e-05  5.0696360656949316e-05  4.7732104846689730e-05  4.4811873015682059e-05  4.1939294395392856e-05  3.9117447578653764e-05  3.6348901349923042e-05  3.3635755378632778e-05  3.0979680203849615e-05  2.8381956054165944e-05  2.5843510150147267e-05  2.3364952227716625e-05  2.0946608099367758e-05  1.8588551137040322e-05  1.6290631616268004e-05  1.4052503907049453e-05  1.1873651533324455e-05  9.7534101485335186e-06  7.6909884711233186e-06  5.6854870479085396e-06  3.7359132931147064e-06  1.8411804456025491e-06  0.0000000000000000e+00  0.0000000000000000e+00  2.4874714820975634e-06  5.0504974496599282e-06  7.6909563852298807e-06  1.0410474001782903e-05  1.3210778945092753e-05  1.6093389928056633e-05  1.9059709285585897e-05  2.2110982028692929e-05  2.5248266112991096e-05  2.8472400495148321e-05  3.1783969467384846e-05  3.5183263538011473e-05  3.8670236823831136e-05  4.2244460908467843e-05  4.5905075178883350e-05  4.9650733729615518e-05  5.3479549019254295e-05  5.7389032578260452e-05  6.1376033202957571e-05  6.5436673228214497e-05  6.9566283651808413e-05  7.3759339085553252e-05  7.8009393730655858e-05  8.2309019813475162e-05  8.6649750167759783e-05  9.1022026902550049e-05  9.5415158340964723e-05  9.9817286640989437e-05  1.0421536869877857e-04  1.0859517306999705e-04  1.1294129570392450e-04  1.1723719724615474e-04  1.2146526450816272e-04  1.2560689840238816e-04  1.2964263018542393e-04  1.3355226722637685e-04  1.3731506872093451e-04  1.4090995081117314e-04  1.4431571946936346e-04  1.4751132829531608e-04  1.5047615711151773e-04  1.5319030598346750e-04  1.5563489811715723e-04  1.5779238407409064e-04  1.5964683897756718e-04  1.6118424393732976e-04  1.6239274285437233e-04  1.6326286612269446e-04  1.6378771353300358e-04  1.6396308988602857e-04  1.6378758838976834e-04  1.6326261876595396e-04  1.6239237902286821e-04  1.6118377194510801e-04  1.5964626938203054e-04  1.5779172926623657e-04  1.5563417185835858e-04  1.5318952291496898e-04  1.5047533226258771e-04  1.4751047661402754e-04  1.4431485539630800e-04  1.4090908791181017e-04  1.3731421938714285e-04  1.3355144245248148e-04  1.2964183941942636e-04  1.2560614946869095e-04  1.2146456359503749e-04  1.1723654894896658e-04  1.1294070311367099e-04  1.0859463789641517e-04  1.0421489141742349e-04  9.9816866654729705e-05  9.5414794147158019e-05  9.1021716259002760e-05  8.6649490251747771e-05  8.2308807369602948e-05  7.8009225204767301e-05  7.3759210742967520e-05  6.9566191679179735e-05  6.5436613819095692e-05  6.1376002627727290e-05  5.7389027239516817e-05  5.3479565494016631e-05  4.9650768799873197e-05  4.5905125852039024e-05  4.2244524429229308e-05  3.8670310679005275e-05  3.5183345455560803e-05  3.1784057410956556e-05  2.8472492655156732e-05  2.5248360895182546e-05  2.2111078041082910e-05  1.9059805327836032e-05  1.6093485049533955e-05  1.3210873034065616e-05  1.0410567981874192e-05  7.6910375787016112e-06  5.0506395578785788e-06  2.4876229694990497e-06  0.0000000000000000e+00  0.0000000000000000e+00  3.1505975024256408e-06  6.4008261332074075e-06  9.7533710403109378e-06  1.3210815822069558e-05  1.6775616783531947e-05  2.0450193986002950e-05  2.4236780912454858e-05  2.8137435433318056e-05  3.2154002519611152e-05  3.6288069901257860e-05  4.0540920802504511e-05  4.4913481624238404e-05  4.9406264357288299e-05  5.4019303603453527e-05  5.8752088111443857e-05  6.3603486826403714e-05  6.8571669574507891e-05  7.3654022656869473e-05  7.8847059812851042e-05  8.4146329234440089e-05  8.9546317572609350e-05  9.5040352174384718e-05  1.0062050312445098e-04  1.0627748703433007e-04  1.1200057491918172e-04  1.1777750691688040e-04  1.2359441702248638e-04  1.2943577141425751e-04  1.3528432431077187e-04  1.4112109559412500e-04  1.4692537462650506e-04  1.5267475474254604e-04  1.5834520276909432e-04  1.6391116758980977e-04  1.6934573116638495e-04  1.7462080456424775e-04  1.7970737035862640e-04  1.8457577134669379e-04  1.8919604377147661e-04  1.9353829133545808e-04  1.9757309421486842e-04  2.0127194518731813e-04  2.0460770297987458e-04  2.0755505117032292e-04  2.1009094957716412e-04  2.1219506419031814e-04  2.1385016143897839e-04  2.1504245304609338e-04  2.1576187890846743e-04  2.1600231734819516e-04  2.1576171461973372e-04  2.1504212859352678e-04  2.1384968489094859e-04  2.1219444720821872e-04  2.1009020691950629e-04  2.0755420008381043e-04  2.0460676251602192e-04  2.0127093548508168e-04  1.9757203578948934e-04  1.9353720440954612e-04  1.8919494767809228e-04  1.8457468402634393e-04  1.7970630796378885e-04  1.7461978117711075e-04  1.6934475862800529e-04  1.6391025543246218e-04  1.5834435824009163e-04  1.5267398290367065e-04  1.4692467851327521e-04  1.4112047641670221e-04  1.3528378168339850e-04  1.2943530359632073e-04  1.2359402116189085e-04  1.1777717928501088e-04  1.1200031113069401e-04  1.0627728224679997e-04  1.0062035221496024e-04  9.5040249891637247e-05  8.9546258664499446e-05  8.4146308552069979e-05  7.8847072392546411e-05  7.3654063782338511e-05  6.8571734821437860e-05  6.3603572091929840e-05  5.8752189630859873e-05  5.4019417956430376e-05  4.9406388465636321e-05  4.4913612743116922e-05  4.0541056506658988e-05  3.6288208067713174e-05  3.2154141308264356e-05  2.8137573272237425e-05  2.4236916543461793e-05  2.0450326636125864e-05  1.6775744657089739e-05  1.3210935488059295e-05  9.7535214741201445e-06  6.4010095227532832e-06  3.1507938181011169e-06  0.0000000000000000e+00  0.0000000000000000e+00  3.8306003096213228e-06  7.7872333570582576e-06  1.1873619355157672e-05  1.6093452045973241e-05  2.0450228156083831e-05  2.4947464718699480e-05  2.9588490074074565e-05  3.4376457943235982e-05  3.9314289373265669e-05  4.4404625747791735e-05  4.9649768257529776e-05  5.5051611046695602e-05  6.0611567114227771e-05  6.6330486423931716e-05  7.2208565943162258e-05  7.8245251430390485e-05  8.4439130934162610e-05  9.0787820154882590e-05  9.7287840058653261e-05  1.0393448742457493e-04  1.1072169935782786e-04  1.1764191321461150e-04  1.2468592386252048e-04  1.3184274073979366e-04  1.3909944777315523e-04  1.4644106985566615e-04  1.5385045025546155e-04  1.6130814399789201e-04  1.6879233290626629e-04  1.7627876854930946e-04  1.8374074978962936e-04  1.9114914187971988e-04  1.9847244405960933e-04  2.0567691228666086e-04  2.1272674305646244e-04  2.1958432310289605e-04  2.2621054819034714e-04  2.3256521209345980e-04  2.3860746430447681e-04  2.4429633204751667e-04  2.4959129893585818e-04  2.5445292921903110e-04  2.5884352327165726e-04  2.6272778696183921e-04  2.6607349509084568e-04  2.6885212743210971e-04  2.7103945523777976e-04  2.7261605657990525e-04  2.7356774061172294e-04  2.7388586375286391e-04  2.7356752479726256e-04  2.7261563078279837e-04  2.7103883084689186e-04  2.6885132086396459e-04  2.6607252704351529e-04  2.6272668150483517e-04  2.5884230683220067e-04  2.5445162952845475e-04  2.4958994399935382e-04  2.4429494919107940e-04  2.3860607934128250e-04  2.3256384864164635e-04  2.2620922715654350e-04  2.1958306233904829e-04  2.1272555717974774e-04  2.0567581264800634e-04  1.9847143883953045e-04  1.9114823628672904e-04  1.8373994632967560e-04  1.7627806735069304e-04  1.6879173206694561e-04  1.6130763994213508e-04  1.5385003808214323e-04  1.4644074366623505e-04  1.3909920096982000e-04  1.3184256629025418e-04  1.2468581452766608e-04  1.1764186173919563e-04  1.1072169862538385e-04  1.0393453057900782e-04  9.7287920595753931e-05  9.0787931987348349e-05  8.4439268433928876e-05  7.8245409451905372e-05  7.2208739831141903e-05  6.6330672008728446e-05  6.0611760697676907e-05  5.5051809380873499e-05  4.9649968518551510e-05  4.4404825506895477e-05  3.9314486572424039e-05  3.4376650897034727e-05  2.9588677348040641e-05  2.4947644240489315e-05  2.0450402586389927e-05  1.6093623259161837e-05  1.1873838178795389e-05  7.7874731183568360e-06  3.8308507309287469e-06  0.0000000000000000e+00  0.0000000000000000e+00  4.5275965358426804e-06  9.2100956849980955e-06  1.4052499666681923e-05  1.9059769143971334e-05  2.4236860995198721e-05  2.9588525857146339e-05  3.5119562491148569e-05  4.0834517392694412e-05  4.6737734856044522e-05  5.2833272375965953e-05  5.9124831376129620e-05  6.5615675713358667e-05  7.2308539695958184e-05  7.9205525473482962e-05  8.6307989072678372e-05  9.3616414573311627e-05  1.0113027609172739e-04  1.0884788745584701e-04  1.1676623974023155e-04  1.2488082719314166e-04  1.3318546253832030e-04  1.4167208318117017e-04  1.5033055049821004e-04  1.5914844514343859e-04  1.6811086216149317e-04  1.7720021064766440e-04  1.8639602371735921e-04  1.9567478561262938e-04  2.0500978383923270e-04  2.1437099523202743e-04  2.2372501570455501e-04  2.3303504408734264e-04  2.4226093079311075e-04  2.5135930181311204e-04  2.6028376801552633e-04  2.6898522819105455e-04  2.7741227230683414e-04  2.8551168845003066e-04  2.9322907332103815e-04  3.0050954164119621e-04  3.0729852493010249e-04  3.1354264478596132e-04  3.1919064041079981e-04  3.2419432522644975e-04  3.2850954315160084e-04  3.3209709212606595e-04  3.3492358099951233e-04  3.3696218628018871e-04  3.3819327767025732e-04  3.3860488565573278e-04  3.3819299061845257e-04  3.3696162053367261e-04  3.3492275284928766e-04  3.3209602498482740e-04  3.2850826641328654e-04  3.2419287288785797e-04  3.1918904954308984e-04  3.1354095397056520e-04  3.0729677275248622e-04  3.0050776532093102e-04  2.9322730754857186e-04  2.8550996445399874e-04  2.7741061719582550e-04  2.6898366455180495e-04  2.6028231374745632e-04  2.5135797018995741e-04  2.4225973068933013e-04  2.3303398034288592e-04  2.2372408957068723e-04  2.1437020489052636e-04  2.0500912491635729e-04  1.9567425170626123e-04  1.8639560689169302e-04  1.7719990188342353e-04  1.6811065175712344e-04  1.5914832306033477e-04  1.5033050664874879e-04  1.4167210766194641e-04  1.3318554581231312e-04  1.2488096022568549e-04  1.1676641409473416e-04  1.0884809535502059e-04  1.0113051045021190e-04  9.3616669007117506e-05  8.6308257890381333e-05  7.9205803653523203e-05  7.2308822853834915e-05  6.5615960061870445e-05  5.9125113681883786e-05  5.2833549917482028e-05  4.6738005377184773e-05  4.0834778926813202e-05  3.5119813468219577e-05  2.9588768363946672e-05  2.4237083236772897e-05  1.9060033820094458e-05  1.4052780133372723e-05  9.2104042586380360e-06  4.5279121228871510e-06  0.0000000000000000e+00  0.0000000000000000e+00  5.2416578843587238e-06  1.0669698577769937e-05  1.6290652527819659e-05  2.2111069474645274e-05  2.8137525363169155e-05  3.4376543274658480e-05  4.0834557662767211e-05  4.7517959422440121e-05  5.4432901814893632e-05  6.1585286631875462e-05  6.8980672406041810e-05  7.6624176857340259e-05  8.4520367231847467e-05  9.2673135716955522e-05  1.0108555940890035e-04  1.0975974386103953e-04  1.1869664937747519e-04  1.2789589945999427e-04  1.3735557113502748e-04  1.4707196731152575e-04  1.5703937186921653e-04  1