<?xml version="1.0"?>
<VTKFile type="UnstructuredGrid"  version="0.1"  >
<UnstructuredGrid>
<Piece  NumberOfPoints="676" NumberOfCells="1250">
<Points>
<DataArray  type="Float64"  NumberOfComponents="3"  format="ascii">0 0 0  0.04 0 0  0.08 0 0  0.12 0 0  0.16 0 0  0.2 0 0  0.24 0 0  0.28 0 0  0.32 0 0  0.36 0 0  0.4 0 0  0.44 0 0  0.48 0 0  0.52 0 0  0.5600000000000001 0 0  0.6 0 0  0.64 0 0  0.68 0 0  0.72 0 0  0.76 0 0  0.8 0 0  0.84 0 0  0.88 0 0  0.92 0 0  0.96 0 0  1 0 0  0 0.04 0  0.04 0.04 0  0.08 0.04 0  0.12 0.04 0  0.16 0.04 0  0.2 0.04 0  0.24 0.04 0  0.28 0.04 0  0.32 0.04 0  0.36 0.04 0  0.4 0.04 0  0.44 0.04 0  0.48 0.04 0  0.52 0.04 0  0.5600000000000001 0.04 0  0.6 0.04 0  0.64 0.04 0  0.68 0.04 0  0.72 0.04 0  0.76 0.04 0  0.8 0.04 0  0.84 0.04 0  0.88 0.04 0  0.92 0.04 0  0.96 0.04 0  1 0.04 0  0 0.08 0  0.04 0.08 0  0.08 0.08 0  0.12 0.08 0  0.16 0.08 0  0.2 0.08 0  0.24 0.08 0  0.28 0.08 0  0.32 0.08 0  0.36 0.08 0  0.4 0.08 0  0.44 0.08 0  0.48 0.08 0  0.52 0.08 0  0.5600000000000001 0.08 0  0.6 0.08 0  0.64 0.08 0  0.68 0.08 0  0.72 0.08 0  0.76 0.08 0  0.8 0.08 0  0.84 0.08 0  0.88 0.08 0  0.92 0.08 0  0.96 0.08 0  1 0.08 0  0 0.12 0  0.04 0.12 0  0.08 0.12 0  0.12 0.12 0  0.16 0.12 0  0.2 0.12 0  0.24 0.12 0  0.28 0.12 0  0.32 0.12 0  0.36 0.12 0  0.4 0.12 0  0.44 0.12 0  0.48 0.12 0  0.52 0.12 0  0.5600000000000001 0.12 0  0.6 0.12 0  0.64 0.12 0  0.68 0.12 0  0.72 0.12 0  0.76 0.12 0  0.8 0.12 0  0.84 0.12 0  0.88 0.12 0  0.92 0.12 0  0.96 0.12 0  1 0.12 0  0 0.16 0  0.04 0.16 0  0.08 0.16 0  0.12 0.16 0  0.16 0.16 0  0.2 0.16 0  0.24 0.16 0  0.28 0.16 0  0.32 0.16 0  0.36 0.16 0  0.4 0.16 0  0.44 0.16 0  0.48 0.16 0  0.52 0.16 0  0.5600000000000001 0.16 0  0.6 0.16 0  0.64 0.16 0  0.68 0.16 0  0.72 0.16 0  0.76 0.16 0  0.8 0.16 0  0.84 0.16 0  0.88 0.16 0  0.92 0.16 0  0.96 0.16 0  1 0.16 0  0 0.2 0  0.04 0.2 0  0.08 0.2 0  0.12 0.2 0  0.16 0.2 0  0.2 0.2 0  0.24 0.2 0  0.28 0.2 0  0.32 0.2 0  0.36 0.2 0  0.4 0.2 0  0.44 0.2 0  0.48 0.2 0  0.52 0.2 0  0.5600000000000001 0.2 0  0.6 0.2 0  0.64 0.2 0  0.68 0.2 0  0.72 0.2 0  0.76 0.2 0  0.8 0.2 0  0.84 0.2 0  0.88 0.2 0  0.92 0.2 0  0.96 0.2 0  1 0.2 0  0 0.24 0  0.04 0.24 0  0.08 0.24 0  0.12 0.24 0  0.16 0.24 0  0.2 0.24 0  0.24 0.24 0  0.28 0.24 0  0.32 0.24 0  0.36 0.24 0  0.4 0.24 0  0.44 0.24 0  0.48 0.24 0  0.52 0.24 0  0.5600000000000001 0.24 0  0.6 0.24 0  0.64 0.24 0  0.68 0.24 0  0.72 0.24 0  0.76 0.24 0  0.8 0.24 0  0.84 0.24 0  0.88 0.24 0  0.92 0.24 0  0.96 0.24 0  1 0.24 0  0 0.28 0  0.04 0.28 0  0.08 0.28 0  0.12 0.28 0  0.16 0.28 0  0.2 0.28 0  0.24 0.28 0  0.28 0.28 0  0.32 0.28 0  0.36 0.28 0  0.4 0.28 0  0.44 0.28 0  0.48 0.28 0  0.52 0.28 0  0.5600000000000001 0.28 0  0.6 0.28 0  0.64 0.28 0  0.68 0.28 0  0.72 0.28 0  0.76 0.28 0  0.8 0.28 0  0.84 0.28 0  0.88 0.28 0  0.92 0.28 0  0.96 0.28 0  1 0.28 0  0 0.32 0  0.04 0.32 0  0.08 0.32 0  0.12 0.32 0  0.16 0.32 0  0.2 0.32 0  0.24 0.32 0  0.28 0.32 0  0.32 0.32 0  0.36 0.32 0  0.4 0.32 0  0.44 0.32 0  0.48 0.32 0  0.52 0.32 0  0.5600000000000001 0.32 0  0.6 0.32 0  0.64 0.32 0  0.68 0.32 0  0.72 0.32 0  0.76 0.32 0  0.8 0.32 0  0.84 0.32 0  0.88 0.32 0  0.92 0.32 0  0.96 0.32 0  1 0.32 0  0 0.36 0  0.04 0.36 0  0.08 0.36 0  0.12 0.36 0  0.16 0.36 0  0.2 0.36 0  0.24 0.36 0  0.28 0.36 0  0.32 0.36 0  0.36 0.36 0  0.4 0.36 0  0.44 0.36 0  0.48 0.36 0  0.52 0.36 0  0.5600000000000001 0.36 0  0.6 0.36 0  0.64 0.36 0  0.68 0.36 0  0.72 0.36 0  0.76 0.36 0  0.8 0.36 0  0.84 0.36 0  0.88 0.36 0  0.92 0.36 0  0.96 0.36 0  1 0.36 0  0 0.4 0  0.04 0.4 0  0.08 0.4 0  0.12 0.4 0  0.16 0.4 0  0.2 0.4 0  0.24 0.4 0  0.28 0.4 0  0.32 0.4 0  0.36 0.4 0  0.4 0.4 0  0.44 0.4 0  0.48 0.4 0  0.52 0.4 0  0.5600000000000001 0.4 0  0.6 0.4 0  0.64 0.4 0  0.68 0.4 0  0.72 0.4 0  0.76 0.4 0  0.8 0.4 0  0.84 0.4 0  0.88 0.4 0  0.92 0.4 0  0.96 0.4 0  1 0.4 0  0 0.44 0  0.04 0.44 0  0.08 0.44 0  0.12 0.44 0  0.16 0.44 0  0.2 0.44 0  0.24 0.44 0  0.28 0.44 0  0.32 0.44 0  0.36 0.44 0  0.4 0.44 0  0.44 0.44 0  0.48 0.44 0  0.52 0.44 0  0.5600000000000001 0.44 0  0.6 0.44 0  0.64 0.44 0  0.68 0.44 0  0.72 0.44 0  0.76 0.44 0  0.8 0.44 0  0.84 0.44 0  0.88 0.44 0  0.92 0.44 0  0.96 0.44 0  1 0.44 0  0 0.48 0  0.04 0.48 0  0.08 0.48 0  0.12 0.48 0  0.16 0.48 0  0.2 0.48 0  0.24 0.48 0  0.28 0.48 0  0.32 0.48 0  0.36 0.48 0  0.4 0.48 0  0.44 0.48 0  0.48 0.48 0  0.52 0.48 0  0.5600000000000001 0.48 0  0.6 0.48 0  0.64 0.48 0  0.68 0.48 0  0.72 0.48 0  0.76 0.48 0  0.8 0.48 0  0.84 0.48 0  0.88 0.48 0  0.92 0.48 0  0.96 0.48 0  1 0.48 0  0 0.52 0  0.04 0.52 0  0.08 0.52 0  0.12 0.52 0  0.16 0.52 0  0.2 0.52 0  0.24 0.52 0  0.28 0.52 0  0.32 0.52 0  0.36 0.52 0  0.4 0.52 0  0.44 0.52 0  0.48 0.52 0  0.52 0.52 0  0.5600000000000001 0.52 0  0.6 0.52 0  0.64 0.52 0  0.68 0.52 0  0.72 0.52 0  0.76 0.52 0  0.8 0.52 0  0.84 0.52 0  0.88 0.52 0  0.92 0.52 0  0.96 0.52 0  1 0.52 0  0 0.5600000000000001 0  0.04 0.5600000000000001 0  0.08 0.5600000000000001 0  0.12 0.5600000000000001 0  0.16 0.5600000000000001 0  0.2 0.5600000000000001 0  0.24 0.5600000000000001 0  0.28 0.5600000000000001 0  0.32 0.5600000000000001 0  0.36 0.5600000000000001 0  0.4 0.5600000000000001 0  0.44 0.5600000000000001 0  0.48 0.5600000000000001 0  0.52 0.5600000000000001 0  0.5600000000000001 0.5600000000000001 0  0.6 0.5600000000000001 0  0.64 0.5600000000000001 0  0.68 0.5600000000000001 0  0.72 0.5600000000000001 0  0.76 0.5600000000000001 0  0.8 0.5600000000000001 0  0.84 0.5600000000000001 0  0.88 0.5600000000000001 0  0.92 0.5600000000000001 0  0.96 0.5600000000000001 0  1 0.5600000000000001 0  0 0.6 0  0.04 0.6 0  0.08 0.6 0  0.12 0.6 0  0.16 0.6 0  0.2 0.6 0  0.24 0.6 0  0.28 0.6 0  0.32 0.6 0  0.36 0.6 0  0.4 0.6 0  0.44 0.6 0  0.48 0.6 0  0.52 0.6 0  0.5600000000000001 0.6 0  0.6 0.6 0  0.64 0.6 0  0.68 0.6 0  0.72 0.6 0  0.76 0.6 0  0.8 0.6 0  0.84 0.6 0  0.88 0.6 0  0.92 0.6 0  0.96 0.6 0  1 0.6 0  0 0.64 0  0.04 0.64 0  0.08 0.64 0  0.12 0.64 0  0.16 0.64 0  0.2 0.64 0  0.24 0.64 0  0.28 0.64 0  0.32 0.64 0  0.36 0.64 0  0.4 0.64 0  0.44 0.64 0  0.48 0.64 0  0.52 0.64 0  0.5600000000000001 0.64 0  0.6 0.64 0  0.64 0.64 0  0.68 0.64 0  0.72 0.64 0  0.76 0.64 0  0.8 0.64 0  0.84 0.64 0  0.88 0.64 0  0.92 0.64 0  0.96 0.64 0  1 0.64 0  0 0.68 0  0.04 0.68 0  0.08 0.68 0  0.12 0.68 0  0.16 0.68 0  0.2 0.68 0  0.24 0.68 0  0.28 0.68 0  0.32 0.68 0  0.36 0.68 0  0.4 0.68 0  0.44 0.68 0  0.48 0.68 0  0.52 0.68 0  0.5600000000000001 0.68 0  0.6 0.68 0  0.64 0.68 0  0.68 0.68 0  0.72 0.68 0  0.76 0.68 0  0.8 0.68 0  0.84 0.68 0  0.88 0.68 0  0.92 0.68 0  0.96 0.68 0  1 0.68 0  0 0.72 0  0.04 0.72 0  0.08 0.72 0  0.12 0.72 0  0.16 0.72 0  0.2 0.72 0  0.24 0.72 0  0.28 0.72 0  0.32 0.72 0  0.36 0.72 0  0.4 0.72 0  0.44 0.72 0  0.48 0.72 0  0.52 0.72 0  0.5600000000000001 0.72 0  0.6 0.72 0  0.64 0.72 0  0.68 0.72 0  0.72 0.72 0  0.76 0.72 0  0.8 0.72 0  0.84 0.72 0  0.88 0.72 0  0.92 0.72 0  0.96 0.72 0  1 0.72 0  0 0.76 0  0.04 0.76 0  0.08 0.76 0  0.12 0.76 0  0.16 0.76 0  0.2 0.76 0  0.24 0.76 0  0.28 0.76 0  0.32 0.76 0  0.36 0.76 0  0.4 0.76 0  0.44 0.76 0  0.48 0.76 0  0.52 0.76 0  0.5600000000000001 0.76 0  0.6 0.76 0  0.64 0.76 0  0.68 0.76 0  0.72 0.76 0  0.76 0.76 0  0.8 0.76 0  0.84 0.76 0  0.88 0.76 0  0.92 0.76 0  0.96 0.76 0  1 0.76 0  0 0.8 0  0.04 0.8 0  0.08 0.8 0  0.12 0.8 0  0.16 0.8 0  0.2 0.8 0  0.24 0.8 0  0.28 0.8 0  0.32 0.8 0  0.36 0.8 0  0.4 0.8 0  0.44 0.8 0  0.48 0.8 0  0.52 0.8 0  0.5600000000000001 0.8 0  0.6 0.8 0  0.64 0.8 0  0.68 0.8 0  0.72 0.8 0  0.76 0.8 0  0.8 0.8 0  0.84 0.8 0  0.88 0.8 0  0.92 0.8 0  0.96 0.8 0  1 0.8 0  0 0.84 0  0.04 0.84 0  0.08 0.84 0  0.12 0.84 0  0.16 0.84 0  0.2 0.84 0  0.24 0.84 0  0.28 0.84 0  0.32 0.84 0  0.36 0.84 0  0.4 0.84 0  0.44 0.84 0  0.48 0.84 0  0.52 0.84 0  0.5600000000000001 0.84 0  0.6 0.84 0  0.64 0.84 0  0.68 0.84 0  0.72 0.84 0  0.76 0.84 0  0.8 0.84 0  0.84 0.84 0  0.88 0.84 0  0.92 0.84 0  0.96 0.84 0  1 0.84 0  0 0.88 0  0.04 0.88 0  0.08 0.88 0  0.12 0.88 0  0.16 0.88 0  0.2 0.88 0  0.24 0.88 0  0.28 0.88 0  0.32 0.88 0  0.36 0.88 0  0.4 0.88 0  0.44 0.88 0  0.48 0.88 0  0.52 0.88 0  0.5600000000000001 0.88 0  0.6 0.88 0  0.64 0.88 0  0.68 0.88 0  0.72 0.88 0  0.76 0.88 0  0.8 0.88 0  0.84 0.88 0  0.88 0.88 0  0.92 0.88 0  0.96 0.88 0  1 0.88 0  0 0.92 0  0.04 0.92 0  0.08 0.92 0  0.12 0.92 0  0.16 0.92 0  0.2 0.92 0  0.24 0.92 0  0.28 0.92 0  0.32 0.92 0  0.36 0.92 0  0.4 0.92 0  0.44 0.92 0  0.48 0.92 0  0.52 0.92 0  0.5600000000000001 0.92 0  0.6 0.92 0  0.64 0.92 0  0.68 0.92 0  0.72 0.92 0  0.76 0.92 0  0.8 0.92 0  0.84 0.92 0  0.88 0.92 0  0.92 0.92 0  0.96 0.92 0  1 0.92 0  0 0.96 0  0.04 0.96 0  0.08 0.96 0  0.12 0.96 0  0.16 0.96 0  0.2 0.96 0  0.24 0.96 0  0.28 0.96 0  0.32 0.96 0  0.36 0.96 0  0.4 0.96 0  0.44 0.96 0  0.48 0.96 0  0.52 0.96 0  0.5600000000000001 0.96 0  0.6 0.96 0  0.64 0.96 0  0.68 0.96 0  0.72 0.96 0  0.76 0.96 0  0.8 0.96 0  0.84 0.96 0  0.88 0.96 0  0.92 0.96 0  0.96 0.96 0  1 0.96 0  0 1 0  0.04 1 0  0.08 1 0  0.12 1 0  0.16 1 0  0.2 1 0  0.24 1 0  0.28 1 0  0.32 1 0  0.36 1 0  0.4 1 0  0.44 1 0  0.48 1 0  0.52 1 0  0.5600000000000001 1 0  0.6 1 0  0.64 1 0  0.68 1 0  0.72 1 0  0.76 1 0  0.8 1 0  0.84 1 0  0.88 1 0  0.92 1 0  0.96 1 0  1 1 0  </DataArray>
</Points>
<Cells>
[...]
<PointData  Scalars="Indicator Function"> 
<DataArray  type="Float64"  Name="Indicator Function"  format="ascii">-2.9584136741720819e-20  -8.6688350168193374e-19  1.6847329257874807e-17  1.5955475863665466e-17  -4.5349274164108166e-19  -1.2631391170921955e-19  -7.2520762368000694e-20  -8.3423727569394326e-19  -9.1224243680272018e-18  -5.4182078449755025e-19  5.1444517633176334e-17  8.1778121774424555e-18  3.8463703030598735e-35  -3.2694147576008924e-34  2.5741995449724528e-17  0.0000000000000000e+00  1.4423888636474526e-35  3.9835633089407055e-18  2.4039814394124209e-36  2.4039814394124209e-36  -1.6539392303157456e-33  9.0149303977965790e-37  -8.9744148697747201e-21  5.5000765614058891e-19  -2.3938957338615989e-21  -4.8079628788248419e-36  -1.7272291468097009e-21  5.3294042882436683e-04  3.4437643593427506e-03  1.5161711957128473e-02  3.7360732454031121e-04  4.5509382856428002e-03  2.6128358270170568e-03  1.2941828819378734e-02  8.1771809408091589e-03  1.5762226199275243e-02  1.8794624330213661e-03  1.5175146568184901e-02  8.1404032631219817e-03  2.0461167790638965e-03  1.6581169622273458e-03  1.5119748855188112e-03  9.4218330486020520e-04  7.2473080878411188e-04  3.1312001734629119e-04  2.3921545450222121e-04  1.5553001551148562e-04  5.5641054807762452e-05  1.6343452889321737e-04  7.9951421406933539e-05  8.6249183479863227e-05  2.3938957338616016e-21  -2.6113300873105315e-19  3.1114994167820361e-05  1.2049832002396569e-04  4.3752397022602182e-03  2.4297986456863124e-02  4.9361852074853094e-03  2.6703740807179029e-02  2.5301096692928567e-02  4.8067504474489466e-02  1.4673598762224398e-03  2.2999815423925662e-02  1.0920180377261545e-02  3.1545706756061297e-02  4.4627932932489700e-04  4.7446725854157906e-03  4.4503862756762385e-03  3.1061600929439093e-03  2.0688468249542681e-03  1.1851284110232182e-03  6.0958826530999131e-04  5.2036017404606671e-04  4.1083130321754917e-04  3.2411087514356402e-04  3.3163392370850770e-04  1.4818596920130874e-05  -4.9646172906320694e-20  -9.3481013638976634e-20  4.7041540832612307e-03  6.4440833525026726e-03  7.3372098062663219e-03  4.0392748761678192e-02  3.6294698182691323e-03  9.0062287604559706e-03  7.5594197389262753e-05  2.7735767914075112e-02  2.6750193939756115e-02  4.3537930602639864e-02  1.0371699649247199e-02  4.7299511600191239e-02  2.9101397987394664e-02  9.8665699445966999e-03  1.0509790763454799e-02  8.4425529106017909e-03  4.7718354812824951e-03  3.0736364735160179e-03  1.4596437179471428e-03  9.6405659927406595e-04  6.4464060030512617e-04  4.5736949798774740e-04  5.8806858429756581e-04  4.1095232384261247e-04  -5.7031091494160244e-20  -4.6408442842154304e-19  3.9593124357284572e-03  3.7802383078264306e-03  2.1510653701523538e-03  2.6486143532536850e-04  5.7903114316926782e-02  5.8096327079806050e-03  6.6180416778302054e-02  4.7545235073838024e-02  1.2291553510618589e-01  2.0802349813655138e-02  7.2761395990380784e-02  5.0114690589192316e-02  1.0110932493536434e-01  2.9092313472197928e-02  2.3858650465514979e-02  2.0254488367284183e-02  1.3362829130897522e-02  7.2554016248666192e-03  3.6617146720338248e-03  1.5700353466865180e-03  1.0401012963648507e-03  5.8713025411927374e-04  3.9170770278100075e-04  4.4923029046428680e-04  1.1145753603236249e-19  -9.6159257576496835e-35  9.6213322339624291e-03  8.3279549261879790e-03  5.3309077986509121e-03  6.5114599491096214e-03  7.9538655337955955e-02  2.6071992745846748e-02  2.0898411967726380e-02  1.9605581051328338e-02  9.5215649127000770e-02  1.0848452235770278e-01  1.8519870024393556e-01  1.0232713124889005e-01  1.6379811355867974e-01  1.1689551263211649e-01  6.4387031201078304e-02  4.5909814273268887e-02  3.0582303202821959e-02  1.5958456823496364e-02  8.1474889972310213e-03  3.4706885307102418e-03  1.5906849410434788e-03  8.1155406919404766e-04  3.4913880218589294e-04  2.7766458671512961e-04  -1.5413480864708236e-20  -1.0817916477355895e-34  1.4412014525295253e-02  9.3285778293612908e-03  7.9311471073747145e-03  6.1348975093943100e-03  3.0643877273094942e-02  1.7414809885295837e-01  2.2117781984492903e-02  1.9741453485428551e-01  1.5738506059110358e-02  3.6583237358792214e-01  1.2043335016753076e-01  2.1064568001331871e-01  2.2176161383189139e-01  2.7528783378064814e-01  1.2211034778966949e-01  6.6707472035332130e-02  4.8106655779904764e-02  3.2373790455201133e-02  1.7323041130991774e-02  7.9086272786705637e-03  3.0640337998055199e-03  1.4364747428000598e-03  5.2605152329979644e-04  1.9210025755913971e-04  -1.0663706448928974e-20  6.0279834593266454e-34  9.8577149839915810e-03  3.4675378044578156e-03  2.1260978891863631e-02  3.7484419332467864e-02  3.0317826570573369e-02  1.3768257790376576e-01  1.3421071879029340e-03  1.7137649479010916e-01  1.2953854915652860e-01  6.8074698702279918e-02  3.6541104597481042e-02  4.0289330188819283e-01  4.0770142515837203e-03  3.8676092017762942e-01  4.9955286103899016e-01  7.4132250478713127e-03  4.9298189477765549e-02  5.6829584198965971e-02  3.4348792365551578e-02  1.6842800484140760e-02  6.7205419803024174e-03  2.6835387273423743e-03  1.1092673940721312e-03  2.3878112989123912e-04  -1.0817916477355895e-34  -1.1539110909179621e-34  1.8569497400809366e-02  1.7339650423913524e-02  5.6340777494709561e-03  1.4712928265203509e-02  5.6418836340635006e-02  9.3062167763248299e-02  1.4257377023250009e-01  2.0105695936021051e-01  3.0423811866440920e-01  1.1291323612280497e-01  1.9318593110550142e-01  3.6198201074949928e-02  1.2436971388766224e-01  1.0251574506624424e-02  8.5010184515577319e-02  7.3042406868533305e-02  1.5323428935769563e-02  7.4466255307512885e-02  5.3238021895736551e-02  3.0507304150417785e-02  1.3634774526257247e-02  5.1216260569134841e-03  2.0695023777512140e-03  7.0908766458619148e-04  -2.6924592121419117e-34  -1.0634847826173291e-19  2.9683730217208641e-03  1.3603348353598091e-02  3.9357940201036251e-02  8.6149568860467318e-02  7.5911828551951083e-02  4.4741536767325889e-02  2.2463191625252849e-01  4.4171980190642574e-01  8.5809601728059001e-02  4.0862383327483612e-02  7.5082414735632413e-03  1.1289177164797756e-01  1.0247370149221251e-01  5.9767899544155421e-02  5.4797877612079160e-02  1.1441464360187237e-01  7.2731596176840912e-02  2.2169880949616208e-02  6.1934645446510526e-02  4.2296101134225841e-02  2.3004498108038056e-02  9.2488923015849479e-03  3.6311259896532320e-03  1.2234191334985298e-03  3.8463703030598735e-35  3.0770962424478988e-34  2.8661159071150834e-03  4.5711801891885452e-03  3.8231003491602882e-03  2.9636757366042123e-02  1.2337185493419392e-01  3.8045879766813978e-01  1.1663072730874624e-01  1.5257178067109708e-01  4.5794159736125613e-02  5.6808871385101753e-02  1.7669310631634488e-02  8.6511629270864671e-02  7.8712360955649915e-02  9.7273081584114018e-02  5.5585434226746423e-02  1.3779840949366201e-01  1.1605633793864768e-01  6.6435057615816431e-02  4.7200301639874084e-02  4.1474873297029931e-02  2.8611874178972898e-02  1.4573826705110145e-02  5.7139977568200270e-03  2.1248620556364906e-03  4.4233258485188545e-34  -1.2500703484944589e-34  3.5167007241354046e-03  4.7509885143907991e-04  2.4416410717398317e-02  5.0595962196207114e-02  1.0411527461589827e-01  7.0360656998670834e-02  4.8833247033428712e-01  6.1865975038541951e-02  1.9181843822787304e-02  2.7903077997516203e-02  2.6452721253562482e-02  2.1548001466429267e-02  1.0765534339431566e-01  9.9345977785796138e-02  3.3277222989381176e-02  8.5193532975938277e-02  2.5926042894800544e-01  2.7284990962988065e-01  4.6403913619457809e-02  1.0541400507026117e-02  2.2642010269906088e-02  1.7759716084034115e-02  8.3275377589460877e-03  3.2542550468289823e-03  -5.3849184242838235e-34  -2.7369361543278071e-19  1.1617679429287311e-02  9.1915748286177396e-03  8.0989174783890408e-03  3.6722228878373356e-02  1.2853881087949356e-01  1.7431130309622181e-01  3.3057953563643480e-02  1.5773352629192455e-01  6.2192639036860876e-02  1.5002330737130927e-02  4.2931888519346095e-02  2.2207527192418978e-02  8.8532245565430337e-02  8.0595610031259951e-02  1.2321985855781543e-01  5.9113912788628181e-02  1.7400168494355889e-01  1.9699528808747069e-01  4.8195784458424218e-01  4.0001711011139349e-02  4.3210625687119958e-04  1.4440126765761509e-02  1.0279363728392830e-02  4.5204699214878184e-03  1.5385481212239494e-34  -6.7311480303547793e-35  4.9304258579070219e-03  1.5690215284456611e-02  3.2160885997874415e-02  6.6320687911902571e-02  9.6120294821488553e-02  1.3634153586139156e-01  2.5803404032784583e-01  8.1570202530763372e-02  9.8008880906396909e-02  3.3745124805001928e-02  6.5558389136128499e-03  1.8525532578569343e-02  2.3354971656609387e-02  1.1943940892187921e-01  1.0856439614921677e-01  2.1340800262814848e-03  2.3026795683480883e-01  4.9368566428279270e-01  3.8829198022194096e-02  6.5866495862266131e-02  4.4193708887354639e-02  3.4420613677940080e-04  9.7595595485824235e-03  5.3267257211392777e-03  7.6927406061197470e-35  -2.3579011158996160e-20  1.4396845967969538e-03  5.5308809237246707e-03  1.3374656383911337e-02  4.8308738884451440e-02  1.3705724738855293e-01  2.0550976051826866e-01  1.3212955115132566e-01  1.1261175743661835e-01  1.3557441243476759e-01  6.7049004396476389e-02  6.1741203552415240e-02  1.8534857756492745e-02  1.7491166187777114e-03  1.2072938451939817e-01  3.0632626268285761e-02  1.1175884560833789e-01  5.7820901220197805e-02  2.4871954922421063e-01  7.8124077424531602e-01  8.2370214157093100e-02  2.5548782661384262e-02  3.6350989657380914e-02  5.0655158798273260e-03  5.7403573940838157e-03  5.5580050879215176e-33  -4.6766867720130585e-20  8.0097881443467415e-03  7.3399369361954450e-03  1.8208724128167077e-02  3.1270441711581325e-02  5.9587374180113492e-02  8.5179822850782516e-02  2.8452945071030994e-01  1.3349251703939990e-01  9.7497382653276718e-02  1.2621216624045617e-01  7.4572883341273252e-02  8.5075856835194169e-02  2.2545092301692247e-02  6.6304496970723912e-03  3.1689584269540816e-01  2.3850492959267627e-01  1.4367512976876676e-01  1.2264894460129583e-01  1.1817474532828238e-02  1.2418878406469368e-01  3.4258354468664876e-02  4.0594331611848798e-02  2.4836708398294629e-02  7.2702604176728223e-03  -3.4607567497879667e-19  -1.9231851515299368e-35  8.4247699215066153e-04  7.4202037720452821e-03  1.5531405523290466e-02  3.7203372185580473e-02  7.3818940408594075e-02  1.0096776506761930e-01  7.1217551915324958e-04  1.9176517925115763e-01  5.7663998760153892e-02  1.9608421526051206e-01  6.2167132405296560e-02  1.3788662022539180e-01  1.0537908056732263e-02  7.0322622629785975e-02  2.3009495042007491e-01  1.0658214130666517e-01  5.6074635318752908e-01  3.8409422946965660e-01  1.9216391816327372e-01  6.9957492039133290e-02  4.9117860447452491e-02  1.2492689740856242e-02  2.8300603489650956e-02  1.0628380887605846e-02  6.1541924848957976e-34  -5.6370383680712609e-21  4.0404552656979348e-04  3.1705864905910834e-03  5.7469413651569292e-03  2.0030905852492613e-02  4.7508323723239321e-02  9.2060245168375701e-02  1.3843182767526457e-01  4.3206061564667704e-03  2.2645202219988442e-01  2.3710549100897832e-01  2.7927370763637399e-01  1.6719090709972637e-01  1.4996148756304764e-01  5.4549714751675145e-02  1.8605226619479234e-01  5.1739685233067978e-01  1.4183158866451001e-01  1.1036053553535878e-01  5.6177752958382510e-02  7.0532117675671191e-02  6.5255047519965248e-02  4.0460806998222583e-02  1.9936147055840008e-02  1.1885927523300737e-02  -3.2309510545702939e-32  -5.4467732194668636e-20  1.3742312910254963e-03  1.5826793212978787e-04  6.7019755584288507e-03  1.0133036800173960e-02  2.6057279001179323e-02  4.6528155656500127e-02  6.3042604090917914e-02  6.6174192864485018e-02  2.7932516633915178e-01  8.5773269165587265e-02  3.4811920271900609e-01  1.7632120006762519e-01  5.4827219123976989e-01  2.0617044436863186e-01  8.4919231283615990e-02  7.2356712995908012e-01  2.4632168208145733e-01  1.2726831817217441e-01  4.0785863204765176e-02  3.7077102285171935e-02  5.3418752359271932e-02  5.2018484739442428e-02  2.3066523391409792e-02  9.0176794543773142e-03  2.4616769939583190e-33  -7.3149938214115026e-20  1.2426734736156776e-03  1.5943952021324694e-03  2.9171918644770732e-03  8.3910404754611607e-03  1.7155699096432931e-02  3.3124339508159233e-02  4.5539937656264212e-02  4.2847092558864437e-02  7.1909580217552033e-02  1.6856560895896038e-02  4.2081350195556269e-02  5.3689235904286159e-01  3.0724056357628857e-02  6.2801241113077166e-01  4.7075078800676795e-01  7.5038156104432902e-02  8.7616783853412969e-02  8.3947949229025418e-02  7.8730612743546008e-02  2.7539631904394526e-02  5.1171065314875259e-02  4.5831683757941777e-02  4.1211490245373447e-02  1.4738997536884097e-04  -8.1817872126694844e-21  -7.0694558021395557e-20  1.3789453874012184e-03  2.2584026145689991e-03  1.4063671330601154e-03  6.4228495549651368e-03  1.0112980305258005e-02  2.2320300975129499e-02  3.5420262246872163e-02  4.0684092194442474e-02  1.1883282278848004e-02  2.2825187591843408e-02  2.3745565767872973e-02  1.4896870259044165e-01  2.7505554925209078e-02  1.3161628436407422e-01  2.1081277111570294e-02  1.1259000367453480e-01  2.9908956124015427e-02  7.1656620592810846e-02  7.0083663439159380e-02  4.4733595525189233e-02  3.3136750673841531e-02  3.3818275971708271e-02  2.9439898821308451e-02  2.2908746722972256e-02  2.2922052374074000e-18  -3.0172637027527891e-20  1.2735199406491177e-03  1.9787823392779760e-03  2.8677603642539729e-03  2.9219762307757004e-03  8.2013702659544385e-03  1.3169853720278620e-02  2.4368726835381275e-02  3.3736631407467806e-02  4.0414281679195724e-02  2.7446335978127696e-02  3.5751726367960382e-02  2.4904761994581630e-02  7.9316462491442391e-02  2.0996754382582569e-02  7.1875207592412810e-02  2.7973211547809507e-02  2.7284196860956966e-02  4.2809393078219547e-03  6.4165912590992122e-02  5.0263186211090306e-02  2.0466129429655925e-02  2.6584339924233969e-02  1.4415369642515130e-02  7.7929000574033140e-03  0.0000000000000000e+00  -1.2882021392969480e-20  5.4354190749583968e-04  1.4025404720053860e-03  2.0202665045367836e-03  2.2945322484066201e-03  5.3690328287416952e-03  9.0608197696086940e-03  1.6780620818838559e-02  2.5642073705495008e-02  3.2453392838801540e-02  1.6142518476487424e-02  2.2618430373345114e-02  3.3612534268817190e-02  2.3852146605542652e-02  4.8563673267957544e-04  1.0742028883642028e-02  1.8992832232066020e-02  1.7515029721416085e-02  1.6997314708084772e-03  4.9893461954927283e-02  3.8192596759849123e-02  3.0260088869791629e-02  2.2151275937277843e-03  9.6872620841653174e-03  4.7580034471340453e-03  3.6925154909374787e-33  -6.6635694034584779e-21  2.3206186698062454e-04  6.6914622286923036e-04  1.0629983817498914e-03  1.7543625175638579e-03  1.9614819979385835e-03  5.8220969486087728e-03  9.6330936435314075e-03  1.8544777939552157e-02  2.8909296535828827e-02  4.0017815092021430e-02  4.1319039238822157e-03  1.2986139544359572e-02  2.3994437607732112e-02  2.5835562834869194e-02  2.5677036239784089e-02  7.8211161307486859e-04  9.6693117743954491e-04  7.5582665634674031e-03  1.1662022089749484e-04  2.5879959119946738e-02  1.6244691462712957e-02  1.5481287604059880e-02  6.7390777871766594e-03  1.0547479786913358e-04  -4.0925380024557052e-32  -1.2019907197062105e-36  1.6951503618133125e-04  2.9632922866524989e-04  5.5175809754676587e-04  7.2256667467852497e-04  1.0898082699884004e-03  2.2541136317203421e-03  4.2607705057290191e-03  8.1798435420070877e-03  1.5083157397441125e-02  2.8382781172671682e-02  2.7438922779511172e-02  5.8982998798178879e-03  7.0261830397193780e-03  1.3758077474435608e-02  1.0218797702956557e-02  2.3162850734919031e-02  1.0322013567006603e-02  2.6954632734409621e-03  6.9312870402076562e-03  3.6299220905668451e-03  3.7789515233064312e-03  1.2982483144366010e-03  5.5736215734960336e-03  7.4960955002752573e-03  -4.1611689095972894e-19  1.2019907197062105e-36  4.7049874047169859e-21  7.4023094820054399e-20  -7.6571817989974017e-20  1.7607814967505977e-19  6.0099535985310530e-35  -1.2512844270286775e-19  -8.6543331818847158e-35  1.6924029333463445e-33  -1.1278132728602741e-19  -3.3175213676773409e-18  7.6158309601807436e-19  -3.2742141663588213e-19  0.0000000000000000e+00  1.4299199743030358e-17  -5.6725722469044867e-19  -1.2857965100931408e-18  2.8649342806447824e-19  -1.4962826941027722e-19  -4.9233539879166381e-33  3.1296138468148642e-17  -2.0977394950585346e-19  2.4616769939583190e-33  -2.6463027685051929e-32  -4.1611689095972832e-19  7.2063739182749848e-18  </DataArray> 
</PointData> 
</Piece>
</UnstructuredGrid>
</VTKFile>