<?xml version="1.0"?>
<VTKFile type="UnstructuredGrid"  version="0.1"  >
<UnstructuredGrid>
<Piece  NumberOfPoints="676" NumberOfCells="1250">
<Points>
<DataArray  type="Float64"  NumberOfComponents="3"  format="ascii">0 0 0  0.04 0 0  0.08 0 0  0.12 0 0  0.16 0 0  0.2 0 0  0.24 0 0  0.28 0 0  0.32 0 0  0.36 0 0  0.4 0 0  0.44 0 0  0.48 0 0  0.52 0 0  0.5600000000000001 0 0  0.6 0 0  0.64 0 0  0.68 0 0  0.72 0 0  0.76 0 0  0.8 0 0  0.84 0 0  0.88 0 0  0.92 0 0  0.96 0 0  1 0 0  0 0.04 0  0.04 0.04 0  0.08 0.04 0  0.12 0.04 0  0.16 0.04 0  0.2 0.04 0  0.24 0.04 0  0.28 0.04 0  0.32 0.04 0  0.36 0.04 0  0.4 0.04 0  0.44 0.04 0  0.48 0.04 0  0.52 0.04 0  0.5600000000000001 0.04 0  0.6 0.04 0  0.64 0.04 0  0.68 0.04 0  0.72 0.04 0  0.76 0.04 0  0.8 0.04 0  0.84 0.04 0  0.88 0.04 0  0.92 0.04 0  0.96 0.04 0  1 0.04 0  0 0.08 0  0.04 0.08 0  0.08 0.08 0  0.12 0.08 0  0.16 0.08 0  0.2 0.08 0  0.24 0.08 0  0.28 0.08 0  0.32 0.08 0  0.36 0.08 0  0.4 0.08 0  0.44 0.08 0  0.48 0.08 0  0.52 0.08 0  0.5600000000000001 0.08 0  0.6 0.08 0  0.64 0.08 0  0.68 0.08 0  0.72 0.08 0  0.76 0.08 0  0.8 0.08 0  0.84 0.08 0  0.88 0.08 0  0.92 0.08 0  0.96 0.08 0  1 0.08 0  0 0.12 0  0.04 0.12 0  0.08 0.12 0  0.12 0.12 0  0.16 0.12 0  0.2 0.12 0  0.24 0.12 0  0.28 0.12 0  0.32 0.12 0  0.36 0.12 0  0.4 0.12 0  0.44 0.12 0  0.48 0.12 0  0.52 0.12 0  0.5600000000000001 0.12 0  0.6 0.12 0  0.64 0.12 0  0.68 0.12 0  0.72 0.12 0  0.76 0.12 0  0.8 0.12 0  0.84 0.12 0  0.88 0.12 0  0.92 0.12 0  0.96 0.12 0  1 0.12 0  0 0.16 0  0.04 0.16 0  0.08 0.16 0  0.12 0.16 0  0.16 0.16 0  0.2 0.16 0  0.24 0.16 0  0.28 0.16 0  0.32 0.16 0  0.36 0.16 0  0.4 0.16 0  0.44 0.16 0  0.48 0.16 0  0.52 0.16 0  0.5600000000000001 0.16 0  0.6 0.16 0  0.64 0.16 0  0.68 0.16 0  0.72 0.16 0  0.76 0.16 0  0.8 0.16 0  0.84 0.16 0  0.88 0.16 0  0.92 0.16 0  0.96 0.16 0  1 0.16 0  0 0.2 0  0.04 0.2 0  0.08 0.2 0  0.12 0.2 0  0.16 0.2 0  0.2 0.2 0  0.24 0.2 0  0.28 0.2 0  0.32 0.2 0  0.36 0.2 0  0.4 0.2 0  0.44 0.2 0  0.48 0.2 0  0.52 0.2 0  0.5600000000000001 0.2 0  0.6 0.2 0  0.64 0.2 0  0.68 0.2 0  0.72 0.2 0  0.76 0.2 0  0.8 0.2 0  0.84 0.2 0  0.88 0.2 0  0.92 0.2 0  0.96 0.2 0  1 0.2 0  0 0.24 0  0.04 0.24 0  0.08 0.24 0  0.12 0.24 0  0.16 0.24 0  0.2 0.24 0  0.24 0.24 0  0.28 0.24 0  0.32 0.24 0  0.36 0.24 0  0.4 0.24 0  0.44 0.24 0  0.48 0.24 0  0.52 0.24 0  0.5600000000000001 0.24 0  0.6 0.24 0  0.64 0.24 0  0.68 0.24 0  0.72 0.24 0  0.76 0.24 0  0.8 0.24 0  0.84 0.24 0  0.88 0.24 0  0.92 0.24 0  0.96 0.24 0  1 0.24 0  0 0.28 0  0.04 0.28 0  0.08 0.28 0  0.12 0.28 0  0.16 0.28 0  0.2 0.28 0  0.24 0.28 0  0.28 0.28 0  0.32 0.28 0  0.36 0.28 0  0.4 0.28 0  0.44 0.28 0  0.48 0.28 0  0.52 0.28 0  0.5600000000000001 0.28 0  0.6 0.28 0  0.64 0.28 0  0.68 0.28 0  0.72 0.28 0  0.76 0.28 0  0.8 0.28 0  0.84 0.28 0  0.88 0.28 0  0.92 0.28 0  0.96 0.28 0  1 0.28 0  0 0.32 0  0.04 0.32 0  0.08 0.32 0  0.12 0.32 0  0.16 0.32 0  0.2 0.32 0  0.24 0.32 0  0.28 0.32 0  0.32 0.32 0  0.36 0.32 0  0.4 0.32 0  0.44 0.32 0  0.48 0.32 0  0.52 0.32 0  0.5600000000000001 0.32 0  0.6 0.32 0  0.64 0.32 0  0.68 0.32 0  0.72 0.32 0  0.76 0.32 0  0.8 0.32 0  0.84 0.32 0  0.88 0.32 0  0.92 0.32 0  0.96 0.32 0  1 0.32 0  0 0.36 0  0.04 0.36 0  0.08 0.36 0  0.12 0.36 0  0.16 0.36 0  0.2 0.36 0  0.24 0.36 0  0.28 0.36 0  0.32 0.36 0  0.36 0.36 0  0.4 0.36 0  0.44 0.36 0  0.48 0.36 0  0.52 0.36 0  0.5600000000000001 0.36 0  0.6 0.36 0  0.64 0.36 0  0.68 0.36 0  0.72 0.36 0  0.76 0.36 0  0.8 0.36 0  0.84 0.36 0  0.88 0.36 0  0.92 0.36 0  0.96 0.36 0  1 0.36 0  0 0.4 0  0.04 0.4 0  0.08 0.4 0  0.12 0.4 0  0.16 0.4 0  0.2 0.4 0  0.24 0.4 0  0.28 0.4 0  0.32 0.4 0  0.36 0.4 0  0.4 0.4 0  0.44 0.4 0  0.48 0.4 0  0.52 0.4 0  0.5600000000000001 0.4 0  0.6 0.4 0  0.64 0.4 0  0.68 0.4 0  0.72 0.4 0  0.76 0.4 0  0.8 0.4 0  0.84 0.4 0  0.88 0.4 0  0.92 0.4 0  0.96 0.4 0  1 0.4 0  0 0.44 0  0.04 0.44 0  0.08 0.44 0  0.12 0.44 0  0.16 0.44 0  0.2 0.44 0  0.24 0.44 0  0.28 0.44 0  0.32 0.44 0  0.36 0.44 0  0.4 0.44 0  0.44 0.44 0  0.48 0.44 0  0.52 0.44 0  0.5600000000000001 0.44 0  0.6 0.44 0  0.64 0.44 0  0.68 0.44 0  0.72 0.44 0  0.76 0.44 0  0.8 0.44 0  0.84 0.44 0  0.88 0.44 0  0.92 0.44 0  0.96 0.44 0  1 0.44 0  0 0.48 0  0.04 0.48 0  0.08 0.48 0  0.12 0.48 0  0.16 0.48 0  0.2 0.48 0  0.24 0.48 0  0.28 0.48 0  0.32 0.48 0  0.36 0.48 0  0.4 0.48 0  0.44 0.48 0  0.48 0.48 0  0.52 0.48 0  0.5600000000000001 0.48 0  0.6 0.48 0  0.64 0.48 0  0.68 0.48 0  0.72 0.48 0  0.76 0.48 0  0.8 0.48 0  0.84 0.48 0  0.88 0.48 0  0.92 0.48 0  0.96 0.48 0  1 0.48 0  0 0.52 0  0.04 0.52 0  0.08 0.52 0  0.12 0.52 0  0.16 0.52 0  0.2 0.52 0  0.24 0.52 0  0.28 0.52 0  0.32 0.52 0  0.36 0.52 0  0.4 0.52 0  0.44 0.52 0  0.48 0.52 0  0.52 0.52 0  0.5600000000000001 0.52 0  0.6 0.52 0  0.64 0.52 0  0.68 0.52 0  0.72 0.52 0  0.76 0.52 0  0.8 0.52 0  0.84 0.52 0  0.88 0.52 0  0.92 0.52 0  0.96 0.52 0  1 0.52 0  0 0.5600000000000001 0  0.04 0.5600000000000001 0  0.08 0.5600000000000001 0  0.12 0.5600000000000001 0  0.16 0.5600000000000001 0  0.2 0.5600000000000001 0  0.24 0.5600000000000001 0  0.28 0.5600000000000001 0  0.32 0.5600000000000001 0  0.36 0.5600000000000001 0  0.4 0.5600000000000001 0  0.44 0.5600000000000001 0  0.48 0.5600000000000001 0  0.52 0.5600000000000001 0  0.5600000000000001 0.5600000000000001 0  0.6 0.5600000000000001 0  0.64 0.5600000000000001 0  0.68 0.5600000000000001 0  0.72 0.5600000000000001 0  0.76 0.5600000000000001 0  0.8 0.5600000000000001 0  0.84 0.5600000000000001 0  0.88 0.5600000000000001 0  0.92 0.5600000000000001 0  0.96 0.5600000000000001 0  1 0.5600000000000001 0  0 0.6 0  0.04 0.6 0  0.08 0.6 0  0.12 0.6 0  0.16 0.6 0  0.2 0.6 0  0.24 0.6 0  0.28 0.6 0  0.32 0.6 0  0.36 0.6 0  0.4 0.6 0  0.44 0.6 0  0.48 0.6 0  0.52 0.6 0  0.5600000000000001 0.6 0  0.6 0.6 0  0.64 0.6 0  0.68 0.6 0  0.72 0.6 0  0.76 0.6 0  0.8 0.6 0  0.84 0.6 0  0.88 0.6 0  0.92 0.6 0  0.96 0.6 0  1 0.6 0  0 0.64 0  0.04 0.64 0  0.08 0.64 0  0.12 0.64 0  0.16 0.64 0  0.2 0.64 0  0.24 0.64 0  0.28 0.64 0  0.32 0.64 0  0.36 0.64 0  0.4 0.64 0  0.44 0.64 0  0.48 0.64 0  0.52 0.64 0  0.5600000000000001 0.64 0  0.6 0.64 0  0.64 0.64 0  0.68 0.64 0  0.72 0.64 0  0.76 0.64 0  0.8 0.64 0  0.84 0.64 0  0.88 0.64 0  0.92 0.64 0  0.96 0.64 0  1 0.64 0  0 0.68 0  0.04 0.68 0  0.08 0.68 0  0.12 0.68 0  0.16 0.68 0  0.2 0.68 0  0.24 0.68 0  0.28 0.68 0  0.32 0.68 0  0.36 0.68 0  0.4 0.68 0  0.44 0.68 0  0.48 0.68 0  0.52 0.68 0  0.5600000000000001 0.68 0  0.6 0.68 0  0.64 0.68 0  0.68 0.68 0  0.72 0.68 0  0.76 0.68 0  0.8 0.68 0  0.84 0.68 0  0.88 0.68 0  0.92 0.68 0  0.96 0.68 0  1 0.68 0  0 0.72 0  0.04 0.72 0  0.08 0.72 0  0.12 0.72 0  0.16 0.72 0  0.2 0.72 0  0.24 0.72 0  0.28 0.72 0  0.32 0.72 0  0.36 0.72 0  0.4 0.72 0  0.44 0.72 0  0.48 0.72 0  0.52 0.72 0  0.5600000000000001 0.72 0  0.6 0.72 0  0.64 0.72 0  0.68 0.72 0  0.72 0.72 0  0.76 0.72 0  0.8 0.72 0  0.84 0.72 0  0.88 0.72 0  0.92 0.72 0  0.96 0.72 0  1 0.72 0  0 0.76 0  0.04 0.76 0  0.08 0.76 0  0.12 0.76 0  0.16 0.76 0  0.2 0.76 0  0.24 0.76 0  0.28 0.76 0  0.32 0.76 0  0.36 0.76 0  0.4 0.76 0  0.44 0.76 0  0.48 0.76 0  0.52 0.76 0  0.5600000000000001 0.76 0  0.6 0.76 0  0.64 0.76 0  0.68 0.76 0  0.72 0.76 0  0.76 0.76 0  0.8 0.76 0  0.84 0.76 0  0.88 0.76 0  0.92 0.76 0  0.96 0.76 0  1 0.76 0  0 0.8 0  0.04 0.8 0  0.08 0.8 0  0.12 0.8 0  0.16 0.8 0  0.2 0.8 0  0.24 0.8 0  0.28 0.8 0  0.32 0.8 0  0.36 0.8 0  0.4 0.8 0  0.44 0.8 0  0.48 0.8 0  0.52 0.8 0  0.5600000000000001 0.8 0  0.6 0.8 0  0.64 0.8 0  0.68 0.8 0  0.72 0.8 0  0.76 0.8 0  0.8 0.8 0  0.84 0.8 0  0.88 0.8 0  0.92 0.8 0  0.96 0.8 0  1 0.8 0  0 0.84 0  0.04 0.84 0  0.08 0.84 0  0.12 0.84 0  0.16 0.84 0  0.2 0.84 0  0.24 0.84 0  0.28 0.84 0  0.32 0.84 0  0.36 0.84 0  0.4 0.84 0  0.44 0.84 0  0.48 0.84 0  0.52 0.84 0  0.5600000000000001 0.84 0  0.6 0.84 0  0.64 0.84 0  0.68 0.84 0  0.72 0.84 0  0.76 0.84 0  0.8 0.84 0  0.84 0.84 0  0.88 0.84 0  0.92 0.84 0  0.96 0.84 0  1 0.84 0  0 0.88 0  0.04 0.88 0  0.08 0.88 0  0.12 0.88 0  0.16 0.88 0  0.2 0.88 0  0.24 0.88 0  0.28 0.88 0  0.32 0.88 0  0.36 0.88 0  0.4 0.88 0  0.44 0.88 0  0.48 0.88 0  0.52 0.88 0  0.5600000000000001 0.88 0  0.6 0.88 0  0.64 0.88 0  0.68 0.88 0  0.72 0.88 0  0.76 0.88 0  0.8 0.88 0  0.84 0.88 0  0.88 0.88 0  0.92 0.88 0  0.96 0.88 0  1 0.88 0  0 0.92 0  0.04 0.92 0  0.08 0.92 0  0.12 0.92 0  0.16 0.92 0  0.2 0.92 0  0.24 0.92 0  0.28 0.92 0  0.32 0.92 0  0.36 0.92 0  0.4 0.92 0  0.44 0.92 0  0.48 0.92 0  0.52 0.92 0  0.5600000000000001 0.92 0  0.6 0.92 0  0.64 0.92 0  0.68 0.92 0  0.72 0.92 0  0.76 0.92 0  0.8 0.92 0  0.84 0.92 0  0.88 0.92 0  0.92 0.92 0  0.96 0.92 0  1 0.92 0  0 0.96 0  0.04 0.96 0  0.08 0.96 0  0.12 0.96 0  0.16 0.96 0  0.2 0.96 0  0.24 0.96 0  0.28 0.96 0  0.32 0.96 0  0.36 0.96 0  0.4 0.96 0  0.44 0.96 0  0.48 0.96 0  0.52 0.96 0  0.5600000000000001 0.96 0  0.6 0.96 0  0.64 0.96 0  0.68 0.96 0  0.72 0.96 0  0.76 0.96 0  0.8 0.96 0  0.84 0.96 0  0.88 0.96 0  0.92 0.96 0  0.96 0.96 0  1 0.96 0  0 1 0  0.04 1 0  0.08 1 0  0.12 1 0  0.16 1 0  0.2 1 0  0.24 1 0  0.28 1 0  0.32 1 0  0.36 1 0  0.4 1 0  0.44 1 0  0.48 1 0  0.52 1 0  0.5600000000000001 1 0  0.6 1 0  0.64 1 0  0.68 1 0  0.72 1 0  0.76 1 0  0.8 1 0  0.84 1 0  0.88 1 0  0.92 1 0  0.96 1 0  1 1 0  </DataArray>
</Points>
<Cells>
[...]
<PointData  Scalars="Indicator Function"> 
<DataArray  type="Float64"  Name="Indicator Function"  format="ascii">-3.1019806300647453e-20  -8.6325359715547684e-19  1.6818915672240389e-17  1.5956805897613282e-17  -4.2052756700007795e-19  -1.2632177913236153e-19  -7.0973266611058570e-20  -7.3408978817244033e-19  -9.0656971777341562e-18  -5.4396011582798308e-19  5.1073186063769104e-17  8.1895167541338115e-18  8.0899764245096483e-35  -3.4382399804166004e-34  2.6389569865090160e-17  -2.5281176326592651e-36  2.5281176326592652e-35  2.9131992285704753e-18  -2.5281176326592651e-36  0.0000000000000000e+00  2.4981808288337332e-19  6.3202940816481627e-37  -6.6610837903312047e-21  6.8342748433581532e-19  -2.4140505330927103e-21  -2.5281176326592651e-36  -1.0644137410700549e-21  5.5880315238680301e-04  3.4691864079716200e-03  1.5179358636795414e-02  4.0998912599246514e-04  4.5512217394342519e-03  2.5570814165024858e-03  1.2922419037180281e-02  8.2344623318713062e-03  1.5775701405417137e-02  1.9112635970806541e-03  1.5192427909957538e-02  8.1460645044712770e-03  2.0213220826356799e-03  1.6390907290367506e-03  1.5095512431961503e-03  9.3277133197209369e-04  7.0740461534621617e-04  3.1554024587364225e-04  2.2040023167220948e-04  1.0372185772655648e-04  6.9076964342555517e-05  1.3082585885606078e-04  5.4582488476046260e-05  8.6975336650318923e-05  2.4140505330927174e-21  -2.6038898481376506e-19  1.9174773310602626e-05  7.7084214610188313e-05  4.3034078317892100e-03  2.4361807843116385e-02  4.9960909527921628e-03  2.6753913851530864e-02  2.5289259130312446e-02  4.8076697242786438e-02  1.5917051520499806e-03  2.3064115569375102e-02  1.0911050416888869e-02  3.1600609441128462e-02  4.7883801777231616e-04  4.6695931697412277e-03  4.3910553781159184e-03  3.1001972154836984e-03  2.0645197392644733e-03  1.2087676608526386e-03  5.8177391375176344e-04  5.1035248601576338e-04  4.3032989454981835e-04  2.6806202100380813e-04  3.0578813051941622e-04  5.7095279040071436e-06  -4.5520158274032777e-20  -9.4400780311398700e-20  4.6907509399146171e-03  6.4690989650509649e-03  7.4146475113556877e-03  4.0386801674316533e-02  3.4801435684478159e-03  8.9433448423610219e-03  5.3250145839527995e-05  2.7677711873183557e-02  2.6833595141817823e-02  4.3607769711316968e-02  1.0474545544576263e-02  4.7300986956723835e-02  2.9130149362704298e-02  9.8376445049451963e-03  1.0385682149044661e-02  8.3684240094842460e-03  4.7392635713576735e-03  3.0414518601909256e-03  1.5019672633881053e-03  9.2899507583428336e-04  6.0712241535526286e-04  5.5486576670053149e-04  5.5347439744090363e-04  3.5563228247802024e-04  -4.9353893538386929e-20  -4.6278967999691425e-19  3.9368434602047942e-03  3.7899323357590909e-03  2.2047763108718442e-03  3.8083359805890618e-04  5.7968178975909501e-02  5.9729179197549756e-03  6.6193205055195548e-02  4.7509451447415633e-02  1.2286990100837442e-01  2.0965611270522346e-02  7.2781643990959793e-02  5.0052369515819824e-02  1.0106898295264621e-01  2.9060835313728318e-02  2.3715130341624400e-02  2.0103901782591038e-02  1.3286548242363088e-02  7.1896546689586621e-03  3.6593720719478662e-03  1.5387251927415297e-03  1.0061899234705910e-03  5.9968691889147701e-04  3.9687663963236194e-04  4.8483513012248915e-04  1.2111190303705212e-19  -1.2134964636764472e-34  9.6412704819074727e-03  8.2997096914838760e-03  5.3081024067199488e-03  6.4645210953053964e-03  7.9519284620515773e-02  2.5988588492853206e-02  2.0794424813211813e-02  1.9685035150168458e-02  9.5104246773996329e-02  1.0844077775583798e-01  1.8524649115289474e-01  1.0231677581655577e-01  1.6370315067085553e-01  1.1666603301090155e-01  6.4288963350070297e-02  4.5688073892334653e-02  3.0399628535296149e-02  1.5836540037599104e-02  8.0380424282270480e-03  3.5042333778664923e-03  1.4921965731652510e-03  7.7627551762254562e-04  3.8515845524252919e-04  2.6066108706547270e-04  -1.4469597024195488e-20  -5.5618587918503831e-35  1.4328692620997898e-02  9.2975532949849879e-03  7.9255910224795886e-03  6.0968243401923732e-03  3.0600359340136409e-02  1.7419882391233596e-01  2.2183939338110633e-02  1.9740029202429277e-01  1.5762440661582774e-02  3.6586933284771039e-01  1.2079685537420172e-01  2.1109019694915909e-01  2.2207492421568265e-01  2.7568433915574153e-01  1.2193558443594704e-01  6.6494338672806130e-02  4.7875273576384991e-02  3.2187477883397986e-02  1.7137145465947089e-02  7.8258384217150308e-03  3.0254277732503936e-03  1.3155567674665069e-03  5.8840549460366625e-04  1.2471442481700105e-04  -6.9230412967358643e-21  5.8273111432796060e-34  9.8149050793669770e-03  3.5634252175827659e-03  2.1244366023432947e-02  3.7455521708771887e-02  3.0277585896736316e-02  1.3772445061253463e-01  1.2953115044077922e-03  1.7153219942885506e-01  1.2915234667784078e-01  6.8474771388108716e-02  3.6365220606618377e-02  4.0259682075522873e-01  4.1279976570484447e-03  3.8667869447723974e-01  4.9945704336509300e-01  7.2035169055600255e-03  4.9265365893264211e-02  5.6613418176790463e-02  3.4128443168053767e-02  1.6658975328619711e-02  6.7151703272913185e-03  2.6148581537548152e-03  1.0184820447783280e-03  3.1663515971410886e-04  -3.6657705673559340e-35  -1.2134964636764472e-34  1.8515288459179328e-02  1.7247501582163711e-02  5.5717973114998822e-03  1.4697496646725683e-02  5.6446311807609097e-02  9.2976470064808914e-02  1.4271506254585004e-01  2.0133557198862009e-01  3.0442639656762127e-01  1.1277255990839853e-01  1.9279561444724527e-01  3.5787007605260671e-02  1.2397835690065047e-01  1.0024245825489548e-02  8.5021712592189325e-02  7.2789523715946713e-02  1.6082704027915024e-02  7.4495283670103704e-02  5.3064744787671779e-02  3.0177023199269220e-02  1.3511466989991536e-02  5.1285170913235208e-03  2.1098004696957942e-03  7.5806407478661952e-04  -1.2134964636764472e-34  -1.0682950636041340e-19  2.9275301322767731e-03  1.3583161344781398e-02  3.9235264384306391e-02  8.6042528770388871e-02  7.5804028616567320e-02  4.4684578346487820e-02  2.2421453544363734e-01  4.4181652873885280e-01  8.5375215660940848e-02  4.1170111432257128e-02  7.6689031633865859e-03  1.1253274434979642e-01  1.0196649282292045e-01  5.9288192206713469e-02  5.4782235108663847e-02  1.1456509523389734e-01  7.3289842547296771e-02  2.2947121023309695e-02  6.1964100736834254e-02  4.2004527391007886e-02  2.2593815235618167e-02  9.0948078704642128e-03  3.5645297013202830e-03  1.2755089441215479e-03  6.0674823183822359e-35  2.7303670432720061e-34  2.9504821512475704e-03  4.5996852970001103e-03  3.8129858168354865e-03  2.9590440321154054e-02  1.2329024775547046e-01  3.8049454081043810e-01  1.1674732230553775e-01  1.5250454614327710e-01  4.5120140994023533e-02  5.6010516700954145e-02  1.8231291292627128e-02  8.5930278960015469e-02  7.7982761050449587e-02  9.6517104578515422e-02  5.4838259272565144e-02  1.3751586634265664e-01  1.1624716996342209e-01  6.7344718718575641e-02  4.7960359192534878e-02  4.1467011174206744e-02  2.8128358368594696e-02  1.4226980068092060e-02  5.4535212701834045e-03  2.0044244929160997e-03  4.8034235020526037e-34  -3.0337411591911180e-35  3.5162294916701487e-03  3.5491549672042426e-04  2.4378000868133281e-02  5.0525259563035899e-02  1.0407746480346707e-01  7.0718012455616333e-02  4.8844573093223265e-01  6.1917377040155118e-02  1.8433445712522766e-02  2.6638189437505379e-02  2.5129575970417910e-02  2.0447428595420310e-02  1.0671639861232084e-01  9.8207929200262167e-02  3.2170817817442604e-02  8.4282448588571174e-02  2.5882396755695347e-01  2.7321544768779749e-01  4.5571121363213854e-02  1.1566676712286110e-02  2.2622972332893797e-02  1.7369395101758188e-02  8.0445422985931988e-03  3.0055755589618446e-03  -5.6629834971567533e-34  -2.7334227577615767e-19  1.1583266117164514e-02  9.2037169685873863e-03  8.1625037355981932e-03  3.6524305316256153e-02  1.2846352907252800e-01  1.7492496887505024e-01  3.2642801420079796e-02  1.5750817006903423e-01  6.2145680647795049e-02  1.4023282042305673e-02  4.1852655395922658e-02  2.1024206124777147e-02  8.7503205525535477e-02  7.9383339675064932e-02  1.2198282288679926e-01  5.8154123089388624e-02  1.7319812488528194e-01  1.9681467318302087e-01  4.8190381931932724e-01  3.8829086324088262e-02  6.5026505982561627e-04  1.4191800113494859e-02  1.0058088940130164e-02  4.2334040671906537e-03  1.6179952849019297e-34  -5.0562352653185303e-35  4.9240966853204308e-03  1.5629249976517726e-02  3.2102555762219556e-02  6.6234987040634907e-02  9.5945304196558501e-02  1.3657196115946107e-01  2.5774289537582540e-01  8.1378068135050885e-02  9.7740849913792421e-02  3.3989445144060049e-02  7.7563997320243862e-03  1.7290567532412510e-02  2.3367772906637170e-02  1.1839222606371178e-01  1.0744711430770408e-01  3.1384953158568132e-03  2.2970106627523221e-01  4.9351873803299334e-01  3.8129174062544041e-02  6.6010220230165950e-02  4.2729009440453727e-02  6.1612779977414779e-04  9.5802737753528881e-03  5.1476897316633389e-03  1.6179952849019297e-34  -2.0860718542096486e-20  1.3530923131448514e-03  5.4576912459888272e-03  1.3264963241362053e-02  4.8028874258713078e-02  1.3659594742274014e-01  2.0601603961123532e-01  1.3206759664079418e-01  1.1236683744095245e-01  1.3520949673222443e-01  6.6324795497412534e-02  6.2313404006402860e-02  1.7177726764152888e-02  9.3133892363195952e-04  1.2026407392089156e-01  2.9692153373493908e-02  1.1086400231079409e-01  5.8313159466475778e-02  2.4877171552848282e-01  7.8069742021888755e-01  8.1592365379398249e-02  2.4153668818170274e-02  3.4756255100192063e-02  5.2962907264246196e-03  5.5913762050831825e-03  6.5528809038528149e-33  -4.8181781367625435e-20  8.0024095261165950e-03  7.4232919846335867e-03  1.8082899161191164e-02  3.1049163445568229e-02  5.9313201178441993e-02  8.4661327556935687e-02  2.8434132441820564e-01  1.3338768826573064e-01  9.7051986067687376e-02  1.2530460597434459e-01  7.3990911668720405e-02  8.5965539601363203e-02  2.3680802077802900e-02  5.5388443981624017e-03  3.1648264850090524e-01  2.3759532631484961e-01  1.4436459460661610e-01  1.2318118280720967e-01  1.0985727639125946e-02  1.2286121730258014e-01  3.2657926776756059e-02  3.9684976940547956e-02  2.3382896895632378e-02  6.4598803557455549e-03  -1.9719317534742266e-34  -1.0112470530637060e-35  8.6796581045313825e-04  7.4828268133492366e-03  1.5436475783269831e-02  3.6955149072292894e-02  7.3394583471968380e-02  1.0066917847650389e-01  2.4287660990354090e-03  1.9175894321770690e-01  5.7256116845803839e-02  1.9530424945828262e-01  6.1180004006826480e-02  1.3829111014928264e-01  9.6185941822655684e-03  7.1796749735144383e-02  2.3008790552747624e-01  1.0589799074233332e-01  5.6046634713937882e-01  3.8441063928979841e-01  1.9157726497793143e-01  6.8769108306300550e-02  4.7162962087461402e-02  1.3342347995668245e-02  2.7849725884882420e-02  1.0092490361741544e-02  -6.4719811396077186e-34  6.5731058449140888e-35  3.4048600652806350e-04  3.2055265062488191e-03  5.7590894649831009e-03  1.9730552889673493e-02  4.7024910751077176e-02  9.1557153743992079e-02  1.3801236585362264e-01  4.8212102673454924e-03  2.2622122238605763e-01  2.3667470078623484e-01  2.7841234178886021e-01  1.6685467677548163e-01  1.5044547805392619e-01  5.3707478993613590e-02  1.8563440732707043e-01  5.1751455681609904e-01  1.4123204958194144e-01  1.0948161175382759e-01  5.6110933043171482e-02  6.9513889102539861e-02  6.3417674432619725e-02  3.7682461684547433e-02  1.9656374317044333e-02  1.1680640886040509e-02  -2.8800316071254346e-32  -4.0827207143634248e-20  1.3478433596103999e-03  2.3071955108836575e-04  6.7480320685596755e-03  9.9738659105413005e-03  2.5598501376451352e-02  4.5741028454317149e-02  6.2214461402101670e-02  6.7024668026961443e-02  2.8016134153190753e-01  8.6022486060378239e-02  3.4821598897549777e-01  1.7563894237694935e-01  5.4827088558749693e-01  2.0671631815334907e-01  8.5721497803440502e-02  7.2418899014217708e-01  2.4514214200570569e-01  1.2624017347525751e-01  4.1784739458013115e-02  3.6181263045878091e-02  5.1423358381485207e-02  4.9470965555538648e-02  2.1672748092731214e-02  8.2792240062368513e-03  1.2943962279215437e-33  -6.1001219199635776e-20  1.2069144885458170e-03  1.6231661200547267e-03  2.9083884190882502e-03  8.3088489909020277e-03  1.6803903912087529e-02  3.2569982401244722e-02  4.4783537432462321e-02  4.1055893391988924e-02  7.0392800747627784e-02  1.6275375018919614e-02  4.2509674946608400e-02  5.3677937077026994e-01  3.0609080121677210e-02  6.2799699245006702e-01  4.7037674891943165e-01  7.5319244297628429e-02  8.9142245075015267e-02  8.1930176998585860e-02  7.7620271424046136e-02  2.7388319674813887e-02  4.9102467445370286e-02  4.2659676540558487e-02  3.8127694031075993e-02  1.6966442399677026e-03  -9.4182674990487310e-20  -6.1540627377470611e-20  1.2764276143483568e-03  2.1896653685521644e-03  1.4061862763688389e-03  6.4169509899425735e-03  9.7803299702581489e-03  2.1690219530471691e-02  3.4497433868556103e-02  3.9665086951915472e-02  1.3674379377204025e-02  2.1269369288413161e-02  2.3555668858695297e-02  1.4834496566607422e-01  2.9420001186270330e-02  1.3166119487327987e-01  2.1335539363587962e-02  1.1274119007947253e-01  2.8935055086484172e-02  6.7822105536781238e-02  6.8048921545555502e-02  4.3410944079975762e-02  3.1406114989588930e-02  3.1477129839137703e-02  2.6346804083724969e-02  1.9929633901902510e-02  -9.8697712379017704e-33  -2.9326399162953281e-20  1.1086173861012947e-03  1.8037099528549444e-03  2.7595334913395990e-03  2.7713732588318853e-03  8.0831460387175928e-03  1.2657099751827623e-02  2.3502829499273094e-02  3.2279488756365056e-02  3.7397311916248351e-02  2.5532836609679716e-02  3.4708295576076888e-02  2.5555744882928607e-02  7.9609479250474999e-02  2.0816179676290469e-02  7.2718400395681226e-02  2.8470430772854428e-02  2.7633515156247811e-02  2.2598491346217261e-03  6.0732712264817169e-02  4.8579154822802569e-02  1.9861827623748114e-02  2.5494414412996554e-02  1.3202084544379204e-02  6.9299029539601894e-03  0.0000000000000000e+00  -1.5478505069028017e-20  5.2829744136957950e-04  1.2277442486710376e-03  1.8431129614466563e-03  2.1355481764125696e-03  5.1925798046533519e-03  8.6015816613308812e-03  1.6033953519521263e-02  2.4482511841162818e-02  3.0462246349125845e-02  1.6515204505396369e-02  2.1750335493221654e-02  3.2958801113466663e-02  2.2465896754387128e-02  2.2572159648967223e-03  1.1900664945488320e-02  2.0132644417370216e-02  1.8310776338606265e-02  2.0065763710086760e-03  4.5575919037489247e-02  3.5914354328088580e-02  2.8784503856243031e-02  2.2074982243042236e-03  9.1483938688579070e-03  4.5461877107642922e-03  1.2943962279215437e-33  -6.4675047854333792e-21  2.7883595864450770e-04  5.9512042780714809e-04  9.1472099398530807e-04  1.6276823951911269e-03  1.7524516813663747e-03  5.6327217330828967e-03  8.9228818450746514e-03  1.7366172699025843e-02  2.6932489782370273e-02  3.7833298178916730e-02  4.6891947761713414e-03  1.2452880330222941e-02  2.3248259967812275e-02  2.5162833838722601e-02  2.5399830620618236e-02  4.7879427279173971e-04  3.1058395518462944e-04  8.0923846099751669e-03  1.4533093576717720e-03  2.1931853624762489e-02  1.4735662008996385e-02  1.4622367847389576e-02  6.4882369202182051e-03  1.1382709681281248e-04  3.1593365926566236e-21  -1.2640588163296325e-36  1.1650820856677846e-04  3.1527445121262942e-04  5.0052920982967750e-04  6.3923987501202366e-04  1.0258887682185016e-03  2.1208409590575687e-03  3.9815220373736141e-03  7.5582327712486221e-03  1.3767140426763674e-02  2.5310307669811814e-02  2.7215072095562010e-02  6.4794698657755830e-03  6.2388481265263510e-03  1.2974422146135459e-02  8.9453049970169562e-03  2.2769365993934299e-02  9.8911727596655598e-03  2.7652405132276583e-03  6.5654042113019390e-03  2.8079985851742124e-03  4.1864495706399312e-03  7.9251991224400147e-04  5.3824183905860799e-03  7.6127745470858307e-03  -4.2259387917274974e-19  -6.3202940816481627e-37  3.2337523927166542e-21  7.8755614832772772e-20  -6.9462381656292963e-20  1.2752759032939016e-19  2.7809293959251916e-35  -1.1773032321569056e-19  -2.0224941061274121e-35  1.2943962279215437e-33  4.2472376228675654e-34  -2.6166712160257329e-18  7.5536999143312431e-19  -3.5968283161744774e-19  0.0000000000000000e+00  1.3680805039057726e-17  -4.9656417849913277e-19  -1.2639537191291422e-18  2.7453519345803388e-19  -1.5350168432057526e-19  2.5887924558430874e-33  2.6410623466163504e-17  -2.3239463523783104e-19  0.0000000000000000e+00  -2.5240726444470101e-32  -4.2259387917274907e-19  7.3794529421455311e-18  </DataArray> 
</PointData> 
</Piece>
</UnstructuredGrid>
</VTKFile>