<?xml version="1.0"?>
<VTKFile type="UnstructuredGrid"  version="0.1"  >
<UnstructuredGrid>
<Piece  NumberOfPoints="676" NumberOfCells="1250">
<Points>
<DataArray  type="Float64"  NumberOfComponents="3"  format="ascii">0 0 0  0.04 0 0  0.08 0 0  0.12 0 0  0.16 0 0  0.2 0 0  0.24 0 0  0.28 0 0  0.32 0 0  0.36 0 0  0.4 0 0  0.44 0 0  0.48 0 0  0.52 0 0  0.5600000000000001 0 0  0.6 0 0  0.64 0 0  0.68 0 0  0.72 0 0  0.76 0 0  0.8 0 0  0.84 0 0  0.88 0 0  0.92 0 0  0.96 0 0  1 0 0  0 0.04 0  0.04 0.04 0  0.08 0.04 0  0.12 0.04 0  0.16 0.04 0  0.2 0.04 0  0.24 0.04 0  0.28 0.04 0  0.32 0.04 0  0.36 0.04 0  0.4 0.04 0  0.44 0.04 0  0.48 0.04 0  0.52 0.04 0  0.5600000000000001 0.04 0  0.6 0.04 0  0.64 0.04 0  0.68 0.04 0  0.72 0.04 0  0.76 0.04 0  0.8 0.04 0  0.84 0.04 0  0.88 0.04 0  0.92 0.04 0  0.96 0.04 0  1 0.04 0  0 0.08 0  0.04 0.08 0  0.08 0.08 0  0.12 0.08 0  0.16 0.08 0  0.2 0.08 0  0.24 0.08 0  0.28 0.08 0  0.32 0.08 0  0.36 0.08 0  0.4 0.08 0  0.44 0.08 0  0.48 0.08 0  0.52 0.08 0  0.5600000000000001 0.08 0  0.6 0.08 0  0.64 0.08 0  0.68 0.08 0  0.72 0.08 0  0.76 0.08 0  0.8 0.08 0  0.84 0.08 0  0.88 0.08 0  0.92 0.08 0  0.96 0.08 0  1 0.08 0  0 0.12 0  0.04 0.12 0  0.08 0.12 0  0.12 0.12 0  0.16 0.12 0  0.2 0.12 0  0.24 0.12 0  0.28 0.12 0  0.32 0.12 0  0.36 0.12 0  0.4 0.12 0  0.44 0.12 0  0.48 0.12 0  0.52 0.12 0  0.5600000000000001 0.12 0  0.6 0.12 0  0.64 0.12 0  0.68 0.12 0  0.72 0.12 0  0.76 0.12 0  0.8 0.12 0  0.84 0.12 0  0.88 0.12 0  0.92 0.12 0  0.96 0.12 0  1 0.12 0  0 0.16 0  0.04 0.16 0  0.08 0.16 0  0.12 0.16 0  0.16 0.16 0  0.2 0.16 0  0.24 0.16 0  0.28 0.16 0  0.32 0.16 0  0.36 0.16 0  0.4 0.16 0  0.44 0.16 0  0.48 0.16 0  0.52 0.16 0  0.5600000000000001 0.16 0  0.6 0.16 0  0.64 0.16 0  0.68 0.16 0  0.72 0.16 0  0.76 0.16 0  0.8 0.16 0  0.84 0.16 0  0.88 0.16 0  0.92 0.16 0  0.96 0.16 0  1 0.16 0  0 0.2 0  0.04 0.2 0  0.08 0.2 0  0.12 0.2 0  0.16 0.2 0  0.2 0.2 0  0.24 0.2 0  0.28 0.2 0  0.32 0.2 0  0.36 0.2 0  0.4 0.2 0  0.44 0.2 0  0.48 0.2 0  0.52 0.2 0  0.5600000000000001 0.2 0  0.6 0.2 0  0.64 0.2 0  0.68 0.2 0  0.72 0.2 0  0.76 0.2 0  0.8 0.2 0  0.84 0.2 0  0.88 0.2 0  0.92 0.2 0  0.96 0.2 0  1 0.2 0  0 0.24 0  0.04 0.24 0  0.08 0.24 0  0.12 0.24 0  0.16 0.24 0  0.2 0.24 0  0.24 0.24 0  0.28 0.24 0  0.32 0.24 0  0.36 0.24 0  0.4 0.24 0  0.44 0.24 0  0.48 0.24 0  0.52 0.24 0  0.5600000000000001 0.24 0  0.6 0.24 0  0.64 0.24 0  0.68 0.24 0  0.72 0.24 0  0.76 0.24 0  0.8 0.24 0  0.84 0.24 0  0.88 0.24 0  0.92 0.24 0  0.96 0.24 0  1 0.24 0  0 0.28 0  0.04 0.28 0  0.08 0.28 0  0.12 0.28 0  0.16 0.28 0  0.2 0.28 0  0.24 0.28 0  0.28 0.28 0  0.32 0.28 0  0.36 0.28 0  0.4 0.28 0  0.44 0.28 0  0.48 0.28 0  0.52 0.28 0  0.5600000000000001 0.28 0  0.6 0.28 0  0.64 0.28 0  0.68 0.28 0  0.72 0.28 0  0.76 0.28 0  0.8 0.28 0  0.84 0.28 0  0.88 0.28 0  0.92 0.28 0  0.96 0.28 0  1 0.28 0  0 0.32 0  0.04 0.32 0  0.08 0.32 0  0.12 0.32 0  0.16 0.32 0  0.2 0.32 0  0.24 0.32 0  0.28 0.32 0  0.32 0.32 0  0.36 0.32 0  0.4 0.32 0  0.44 0.32 0  0.48 0.32 0  0.52 0.32 0  0.5600000000000001 0.32 0  0.6 0.32 0  0.64 0.32 0  0.68 0.32 0  0.72 0.32 0  0.76 0.32 0  0.8 0.32 0  0.84 0.32 0  0.88 0.32 0  0.92 0.32 0  0.96 0.32 0  1 0.32 0  0 0.36 0  0.04 0.36 0  0.08 0.36 0  0.12 0.36 0  0.16 0.36 0  0.2 0.36 0  0.24 0.36 0  0.28 0.36 0  0.32 0.36 0  0.36 0.36 0  0.4 0.36 0  0.44 0.36 0  0.48 0.36 0  0.52 0.36 0  0.5600000000000001 0.36 0  0.6 0.36 0  0.64 0.36 0  0.68 0.36 0  0.72 0.36 0  0.76 0.36 0  0.8 0.36 0  0.84 0.36 0  0.88 0.36 0  0.92 0.36 0  0.96 0.36 0  1 0.36 0  0 0.4 0  0.04 0.4 0  0.08 0.4 0  0.12 0.4 0  0.16 0.4 0  0.2 0.4 0  0.24 0.4 0  0.28 0.4 0  0.32 0.4 0  0.36 0.4 0  0.4 0.4 0  0.44 0.4 0  0.48 0.4 0  0.52 0.4 0  0.5600000000000001 0.4 0  0.6 0.4 0  0.64 0.4 0  0.68 0.4 0  0.72 0.4 0  0.76 0.4 0  0.8 0.4 0  0.84 0.4 0  0.88 0.4 0  0.92 0.4 0  0.96 0.4 0  1 0.4 0  0 0.44 0  0.04 0.44 0  0.08 0.44 0  0.12 0.44 0  0.16 0.44 0  0.2 0.44 0  0.24 0.44 0  0.28 0.44 0  0.32 0.44 0  0.36 0.44 0  0.4 0.44 0  0.44 0.44 0  0.48 0.44 0  0.52 0.44 0  0.5600000000000001 0.44 0  0.6 0.44 0  0.64 0.44 0  0.68 0.44 0  0.72 0.44 0  0.76 0.44 0  0.8 0.44 0  0.84 0.44 0  0.88 0.44 0  0.92 0.44 0  0.96 0.44 0  1 0.44 0  0 0.48 0  0.04 0.48 0  0.08 0.48 0  0.12 0.48 0  0.16 0.48 0  0.2 0.48 0  0.24 0.48 0  0.28 0.48 0  0.32 0.48 0  0.36 0.48 0  0.4 0.48 0  0.44 0.48 0  0.48 0.48 0  0.52 0.48 0  0.5600000000000001 0.48 0  0.6 0.48 0  0.64 0.48 0  0.68 0.48 0  0.72 0.48 0  0.76 0.48 0  0.8 0.48 0  0.84 0.48 0  0.88 0.48 0  0.92 0.48 0  0.96 0.48 0  1 0.48 0  0 0.52 0  0.04 0.52 0  0.08 0.52 0  0.12 0.52 0  0.16 0.52 0  0.2 0.52 0  0.24 0.52 0  0.28 0.52 0  0.32 0.52 0  0.36 0.52 0  0.4 0.52 0  0.44 0.52 0  0.48 0.52 0  0.52 0.52 0  0.5600000000000001 0.52 0  0.6 0.52 0  0.64 0.52 0  0.68 0.52 0  0.72 0.52 0  0.76 0.52 0  0.8 0.52 0  0.84 0.52 0  0.88 0.52 0  0.92 0.52 0  0.96 0.52 0  1 0.52 0  0 0.5600000000000001 0  0.04 0.5600000000000001 0  0.08 0.5600000000000001 0  0.12 0.5600000000000001 0  0.16 0.5600000000000001 0  0.2 0.5600000000000001 0  0.24 0.5600000000000001 0  0.28 0.5600000000000001 0  0.32 0.5600000000000001 0  0.36 0.5600000000000001 0  0.4 0.5600000000000001 0  0.44 0.5600000000000001 0  0.48 0.5600000000000001 0  0.52 0.5600000000000001 0  0.5600000000000001 0.5600000000000001 0  0.6 0.5600000000000001 0  0.64 0.5600000000000001 0  0.68 0.5600000000000001 0  0.72 0.5600000000000001 0  0.76 0.5600000000000001 0  0.8 0.5600000000000001 0  0.84 0.5600000000000001 0  0.88 0.5600000000000001 0  0.92 0.5600000000000001 0  0.96 0.5600000000000001 0  1 0.5600000000000001 0  0 0.6 0  0.04 0.6 0  0.08 0.6 0  0.12 0.6 0  0.16 0.6 0  0.2 0.6 0  0.24 0.6 0  0.28 0.6 0  0.32 0.6 0  0.36 0.6 0  0.4 0.6 0  0.44 0.6 0  0.48 0.6 0  0.52 0.6 0  0.5600000000000001 0.6 0  0.6 0.6 0  0.64 0.6 0  0.68 0.6 0  0.72 0.6 0  0.76 0.6 0  0.8 0.6 0  0.84 0.6 0  0.88 0.6 0  0.92 0.6 0  0.96 0.6 0  1 0.6 0  0 0.64 0  0.04 0.64 0  0.08 0.64 0  0.12 0.64 0  0.16 0.64 0  0.2 0.64 0  0.24 0.64 0  0.28 0.64 0  0.32 0.64 0  0.36 0.64 0  0.4 0.64 0  0.44 0.64 0  0.48 0.64 0  0.52 0.64 0  0.5600000000000001 0.64 0  0.6 0.64 0  0.64 0.64 0  0.68 0.64 0  0.72 0.64 0  0.76 0.64 0  0.8 0.64 0  0.84 0.64 0  0.88 0.64 0  0.92 0.64 0  0.96 0.64 0  1 0.64 0  0 0.68 0  0.04 0.68 0  0.08 0.68 0  0.12 0.68 0  0.16 0.68 0  0.2 0.68 0  0.24 0.68 0  0.28 0.68 0  0.32 0.68 0  0.36 0.68 0  0.4 0.68 0  0.44 0.68 0  0.48 0.68 0  0.52 0.68 0  0.5600000000000001 0.68 0  0.6 0.68 0  0.64 0.68 0  0.68 0.68 0  0.72 0.68 0  0.76 0.68 0  0.8 0.68 0  0.84 0.68 0  0.88 0.68 0  0.92 0.68 0  0.96 0.68 0  1 0.68 0  0 0.72 0  0.04 0.72 0  0.08 0.72 0  0.12 0.72 0  0.16 0.72 0  0.2 0.72 0  0.24 0.72 0  0.28 0.72 0  0.32 0.72 0  0.36 0.72 0  0.4 0.72 0  0.44 0.72 0  0.48 0.72 0  0.52 0.72 0  0.5600000000000001 0.72 0  0.6 0.72 0  0.64 0.72 0  0.68 0.72 0  0.72 0.72 0  0.76 0.72 0  0.8 0.72 0  0.84 0.72 0  0.88 0.72 0  0.92 0.72 0  0.96 0.72 0  1 0.72 0  0 0.76 0  0.04 0.76 0  0.08 0.76 0  0.12 0.76 0  0.16 0.76 0  0.2 0.76 0  0.24 0.76 0  0.28 0.76 0  0.32 0.76 0  0.36 0.76 0  0.4 0.76 0  0.44 0.76 0  0.48 0.76 0  0.52 0.76 0  0.5600000000000001 0.76 0  0.6 0.76 0  0.64 0.76 0  0.68 0.76 0  0.72 0.76 0  0.76 0.76 0  0.8 0.76 0  0.84 0.76 0  0.88 0.76 0  0.92 0.76 0  0.96 0.76 0  1 0.76 0  0 0.8 0  0.04 0.8 0  0.08 0.8 0  0.12 0.8 0  0.16 0.8 0  0.2 0.8 0  0.24 0.8 0  0.28 0.8 0  0.32 0.8 0  0.36 0.8 0  0.4 0.8 0  0.44 0.8 0  0.48 0.8 0  0.52 0.8 0  0.5600000000000001 0.8 0  0.6 0.8 0  0.64 0.8 0  0.68 0.8 0  0.72 0.8 0  0.76 0.8 0  0.8 0.8 0  0.84 0.8 0  0.88 0.8 0  0.92 0.8 0  0.96 0.8 0  1 0.8 0  0 0.84 0  0.04 0.84 0  0.08 0.84 0  0.12 0.84 0  0.16 0.84 0  0.2 0.84 0  0.24 0.84 0  0.28 0.84 0  0.32 0.84 0  0.36 0.84 0  0.4 0.84 0  0.44 0.84 0  0.48 0.84 0  0.52 0.84 0  0.5600000000000001 0.84 0  0.6 0.84 0  0.64 0.84 0  0.68 0.84 0  0.72 0.84 0  0.76 0.84 0  0.8 0.84 0  0.84 0.84 0  0.88 0.84 0  0.92 0.84 0  0.96 0.84 0  1 0.84 0  0 0.88 0  0.04 0.88 0  0.08 0.88 0  0.12 0.88 0  0.16 0.88 0  0.2 0.88 0  0.24 0.88 0  0.28 0.88 0  0.32 0.88 0  0.36 0.88 0  0.4 0.88 0  0.44 0.88 0  0.48 0.88 0  0.52 0.88 0  0.5600000000000001 0.88 0  0.6 0.88 0  0.64 0.88 0  0.68 0.88 0  0.72 0.88 0  0.76 0.88 0  0.8 0.88 0  0.84 0.88 0  0.88 0.88 0  0.92 0.88 0  0.96 0.88 0  1 0.88 0  0 0.92 0  0.04 0.92 0  0.08 0.92 0  0.12 0.92 0  0.16 0.92 0  0.2 0.92 0  0.24 0.92 0  0.28 0.92 0  0.32 0.92 0  0.36 0.92 0  0.4 0.92 0  0.44 0.92 0  0.48 0.92 0  0.52 0.92 0  0.5600000000000001 0.92 0  0.6 0.92 0  0.64 0.92 0  0.68 0.92 0  0.72 0.92 0  0.76 0.92 0  0.8 0.92 0  0.84 0.92 0  0.88 0.92 0  0.92 0.92 0  0.96 0.92 0  1 0.92 0  0 0.96 0  0.04 0.96 0  0.08 0.96 0  0.12 0.96 0  0.16 0.96 0  0.2 0.96 0  0.24 0.96 0  0.28 0.96 0  0.32 0.96 0  0.36 0.96 0  0.4 0.96 0  0.44 0.96 0  0.48 0.96 0  0.52 0.96 0  0.5600000000000001 0.96 0  0.6 0.96 0  0.64 0.96 0  0.68 0.96 0  0.72 0.96 0  0.76 0.96 0  0.8 0.96 0  0.84 0.96 0  0.88 0.96 0  0.92 0.96 0  0.96 0.96 0  1 0.96 0  0 1 0  0.04 1 0  0.08 1 0  0.12 1 0  0.16 1 0  0.2 1 0  0.24 1 0  0.28 1 0  0.32 1 0  0.36 1 0  0.4 1 0  0.44 1 0  0.48 1 0  0.52 1 0  0.5600000000000001 1 0  0.6 1 0  0.64 1 0  0.68 1 0  0.72 1 0  0.76 1 0  0.8 1 0  0.84 1 0  0.88 1 0  0.92 1 0  0.96 1 0  1 1 0  </DataArray>
</Points>
<Cells>
[...]
<PointData  Scalars="Indicator Function"> 
<DataArray  type="Float64"  Name="Indicator Function"  format="ascii">-3.0490329705905552e-20  -8.6458609656743840e-19  1.6828423275540583e-17  1.5955660568890817e-17  -4.3039007335104207e-19  -1.2631910273306444e-19  -7.1495990119835764e-20  -7.6605217820369596e-19  -9.0821375194191144e-18  -5.4320339703516010e-19  5.1186915245343840e-17  8.1826318328882232e-18  0.0000000000000000e+00  -3.5753374867954034e-34  2.6141871172902652e-17  -4.9657465094380605e-36  1.8621549410392728e-35  3.2951961231769985e-18  4.9657465094380605e-36  -2.4828732547190303e-36  -6.3561555320807175e-34  1.5517957841993939e-37  -7.3365397459724443e-21  6.2352679846362275e-19  -2.4519300922261080e-21  -2.4828732547190303e-36  -1.2163728579937668e-21  5.4926495000767901e-04  3.4602106656100805e-03  1.5174624006577960e-02  3.9910551005598624e-04  4.5511253119872360e-03  2.5759145156972526e-03  1.2929006921120315e-02  8.2165755986951718e-03  1.5770668220893007e-02  1.9001483554491924e-03  1.5185993791461244e-02  8.1458867032363925e-03  2.0323302915367359e-03  1.6476736571756426e-03  1.5093090116615312e-03  9.3311695142941019e-04  7.1084345985692962e-04  3.1205312308511682e-04  2.2393827122983424e-04  1.1755336855000207e-04  5.8604352860458792e-05  1.3985522115901922e-04  6.2235740085091277e-05  8.8340091597503926e-05  2.4519300922261114e-21  -2.6074727292392103e-19  2.1912225400015289e-05  9.6217492152204438e-05  4.3305808618553012e-03  2.4337378021102592e-02  4.9712563205602956e-03  2.6738129551651224e-02  2.5294255854265618e-02  4.8073346105099467e-02  1.5448375297795872e-03  2.3040007365158599e-02  1.0909808859874847e-02  3.1575950354873393e-02  4.6192037510406244e-04  4.6990669686164136e-03  4.4158972258797153e-03  3.1059111412743852e-03  2.0665151652215735e-03  1.1975406919981038e-03  5.8782310232904542e-04  5.0980567024753933e-04  4.2890175352365377e-04  2.7782589270160328e-04  3.1267139959187954e-04  6.1313710681608312e-06  -4.6459238805595458e-20  -9.4047156731674594e-20  4.6972052847121760e-03  6.4608567785961911e-03  7.3886739055492329e-03  4.0385859123582980e-02  3.5353587100718084e-03  8.9629986438503687e-03  6.3912101908176602e-06  2.7700754137856221e-02  2.6799687119878596e-02  4.3584685468619391e-02  1.0438554870178056e-02  4.7298529964222499e-02  2.9114655990706860e-02  9.8469609231576025e-03  1.0427637353674276e-02  8.3901331040987376e-03  4.7513084551612673e-03  3.0551504938157105e-03  1.4877782901903864e-03  9.4057667614673012e-04  6.1809367285961796e-04  5.2275025268449919e-04  5.6467873984615839e-04  3.7786393520449927e-04  -5.2439155129937891e-20  -4.6325090658771423e-19  3.9463586101008618e-03  3.7871513279538831e-03  2.1939806922576010e-03  3.4857223027537403e-04  5.7948803540119241e-02  5.9339323624285562e-03  6.6186981504659306e-02  4.7516925621636098e-02  1.2288663793193320e-01  2.0916580833245383e-02  7.2781770760967743e-02  5.0081351922377532e-02  1.0108861308014934e-01  2.9081110025326699e-02  2.3763695715691414e-02  2.0149248904940874e-02  1.3310964745145967e-02  7.2140802554395804e-03  3.6571365899302987e-03  1.5471474993643771e-03  1.0160501356026896e-03  5.9971837495272887e-04  3.8862206688819809e-04  4.7059568414702482e-04  1.1755488686158213e-19  -1.3904090226426568e-34  9.6337463009675134e-03  8.3099149787348291e-03  5.3166447172736499e-03  6.4685359452277711e-03  7.9526940313400379e-02  2.6004901946787659e-02  2.0817986764250798e-02  1.9661489128284072e-02  9.5146424161760251e-02  1.0845917989021740e-01  1.8524137291062426e-01  1.0232936556873129e-01  1.6374403234489340e-01  1.1675557081876599e-01  6.4333071391728294e-02  4.5763074655266731e-02  3.0457228561612006e-02  1.5879695423474376e-02  8.0789355120440120e-03  3.4928304280522596e-03  1.5254916374292779e-03  7.8738253611872406e-04  3.7030424744881460e-04  2.6248970938107312e-04  -1.4571105954101642e-20  -2.9794479056628363e-35  1.4358755351792079e-02  9.3098523938772142e-03  7.9284896282968333e-03  6.1068870860001793e-03  3.0604049411017409e-02  1.7418435769460858e-01  2.2176573323581830e-02  1.9740358448407982e-01  1.5750672089935986e-02  3.6585821966012649e-01  1.2067779929298136e-01  2.1094474691432460e-01  2.2197335001295948e-01  2.7555996045406816e-01  1.2200682505596902e-01  6.6574747527053002e-02  4.7955258452433397e-02  3.2252412493073174e-02  1.7202322419094331e-02  7.8523607812046609e-03  3.0397955512774370e-03  1.3522240630069828e-03  5.7211241031229494e-04  1.4905284226261143e-04  -8.2740948682886246e-21  5.2698984831411415e-34  9.8283913368283991e-03  3.5286801479235959e-03  2.1250317561175281e-02  3.7465301461029311e-02  3.0296056700154513e-02  1.3770574252531537e-01  1.3086916092793666e-03  1.7148548542980610e-01  1.2928359293663835e-01  6.8341696380334591e-02  3.6419058940931733e-02  4.0268826123187540e-01  4.1282180435834436e-03  3.8669125207337218e-01  4.9946634063731499e-01  7.2678270919471523e-03  4.9283699228692836e-02  5.6692660945977934e-02  3.4210957161408408e-02  1.6722296737409294e-02  6.7101444990668524e-03  2.6260451350750467e-03  1.0498037664127317e-03  2.8873113127103356e-04  -5.0898901721740114e-35  -1.9862986037752240e-34  1.8535752929071000e-02  1.7278969616518636e-02  5.5882346438783457e-03  1.4700254025590494e-02  5.6438791850957487e-02  9.3010089481509808e-02  1.4266398714773929e-01  2.0123777244463797e-01  3.0436620248620794e-01  1.1282421593502265e-01  1.9291883929165163e-01  3.5905436792325489e-02  1.2409817021900497e-01  1.0110468424616490e-02  8.5004254685504113e-02  7.2897274340201962e-02  1.5826976679180638e-02  7.4489839426962745e-02  5.3134469486547063e-02  3.0301757411276390e-02  1.3554918824784776e-02  5.1181719744952947e-03  2.0717070134435209e-03  7.4719964584533602e-04  -3.1780777660403587e-34  -1.0659685997918735e-19  2.9399145759765361e-03  1.3591376749596609e-02  3.9268024995797249e-02  8.6079073447476673e-02  7.5845046344360428e-02  4.4709269840360527e-02  2.2435202752663638e-01  4.4178597372266565e-01  8.5521099741040801e-02  4.1044516257835423e-02  7.6390591573142043e-03  1.1264767545203072e-01  1.0213761870148144e-01  5.9472483300448895e-02  5.4831654177199145e-02  1.1453088293833513e-01  7.3116259671940825e-02  2.2668707921129523e-02  6.1954979544918139e-02  4.2112521436331589e-02  2.2743485574322101e-02  9.1511452077349658e-03  3.5875663408968779e-03  1.2532368829791766e-03  5.9588958113256726e-35  2.6815031150965525e-34  2.9183181490898026e-03  4.5899152108025768e-03  3.8154689520865310e-03  2.9600933579789785e-02  1.2332310279536593e-01  3.8048804572190231e-01  1.1671462072309179e-01  1.5251033094565533e-01  4.5360809176535094e-02  5.6288782258781353e-02  1.8153562144923623e-02  8.6158974337197547e-02  7.8292753759125949e-02  9.6836070781069705e-02  5.5183327907608840e-02  1.3767079989063480e-01  1.1624250933851002e-01  6.7072479383751493e-02  4.7637472891564017e-02  4.1459928002342113e-02  2.8293375801644580e-02  1.4343979966853999e-02  5.5453863741172227e-03  2.0512795907568679e-03  3.8236248122673067e-34  -8.9383437169885084e-35  3.5161900402495127e-03  4.0045574506551945e-04  2.4390737754618221e-02  5.0547327868088493e-02  1.0409239733188583e-01  7.0599566294717586e-02  4.8839265311550695e-01  6.1869926692499654e-02  1.8719474242851000e-02  2.7081727621422670e-02  2.5584812256500958e-02  2.0992811362290080e-02  1.0710921381716890e-01  9.8660381066391273e-02  3.2577587508184937e-02  8.4625052466141396e-02  2.5900782861780308e-01  2.7314176330548301e-01  4.5918387638961521e-02  1.1131767732822160e-02  2.2602654309447918e-02  1.7487515051460647e-02  8.1341264942224791e-03  3.0945943750223847e-03  -4.7671166490605381e-34  -2.7369619349299057e-19  1.1594923517120499e-02  9.2037824695231484e-03  8.1442887412394530e-03  3.6594165098663659e-02  1.2849034970455397e-01  1.7471767363632931e-01  3.2773788510378821e-02  1.5756894140626693e-01  6.2155155117307112e-02  1.4294702512625979e-02  4.2204929995299234e-02  2.1487056821518906e-02  8.7884877982055395e-02  7.9778761976459403e-02  1.2235923858588031e-01  5.8423661540474327e-02  1.7344139284623614e-01  1.9686716795097037e-01  4.8191976244691148e-01  3.9299802830251654e-02  1.9355809442806916e-04  1.4242163045132634e-02  1.0111480676291222e-02  4.3285535621747926e-03  1.5890388830201794e-34  -3.9725972075504484e-35  4.9304723001110237e-03  1.5649223792192562e-02  3.2135234359742776e-02  6.6267134025024266e-02  9.6009893187308348e-02  1.3649916198085993e-01  2.5783297884508238e-01  8.1430181701487234e-02  9.7865615151304888e-02  3.4072412272865983e-02  7.3908329975961766e-03  1.7669885640630236e-02  2.3626601495288641e-02  1.1866104404270433e-01  1.0773482500717745e-01  2.8921672824071807e-03  2.2981993583149615e-01  4.9352591949357832e-01  3.8427426543449897e-02  6.5978891289674851e-02  4.3315578638070423e-02  1.5452665111818597e-04  9.5768086735462717e-03  5.1845859446026030e-03  3.9725972075504480e-34  -2.1362319157304703e-20  1.3850621354993202e-03  5.4871522504414154e-03  1.3304118101040124e-02  4.8134908946661108e-02  1.3676095665620241e-01  2.0584514716903857e-01  1.3207356939295270e-01  1.1244791217640340e-01  1.3538287848786268e-01  6.6635930932754314e-02  6.2112268593600799e-02  1.7619035010397459e-02  4.1303183130523903e-05  1.2031391278739825e-01  2.9922408447182913e-02  1.1107809125260969e-01  5.8213649224141677e-02  2.4870257266349818e-01  7.8096573284477078e-01  8.1944488577664551e-02  2.4621347457259184e-02  3.5388737780656931e-02  5.2588237665122245e-03  5.6101101117377412e-03  6.2767035879297085e-33  -4.7226275258036090e-20  8.0023266642951334e-03  7.3978952709648129e-03  1.8129006495707110e-02  3.1130675910164721e-02  5.9411714337692843e-02  8.4847069174542100e-02  2.8440575829249787e-01  1.3344095411427906e-01  9.7254386869417619e-02  1.2565547804245564e-01  7.4084617710127587e-02  8.5626888012266103e-02  2.3346993814704627e-02  5.8862189308390121e-03  3.1658957853615627e-01  2.3785934571639533e-01  1.4417180118227343e-01  1.2295463099374843e-01  1.1327623651829400e-02  1.2337260515672713e-01  3.3386626682926648e-02  4.0040752210094982e-02  2.4040949644284600e-02  6.7602249403624593e-03  -6.3614524487249330e-20  -1.9862986037752242e-35  8.5075294261675069e-04  7.4657406748281268e-03  1.5476073958696653e-02  3.7043024709689190e-02  7.3548147015726220e-02  1.0077892287346364e-01  1.8154451993860085e-03  1.9178495733615206e-01  5.7439690708029401e-02  1.9558012850582709e-01  6.1423224911174010e-02  1.3806171700075320e-01  9.9061312362894553e-03  7.1386834441111324e-02  2.3010695854626434e-01  1.0611774999961268e-01  5.6054074022401634e-01  3.8431727878200961e-01  1.9181344898785566e-01  6.9240935150324270e-02  4.7913731415772029e-02  1.3035330899509145e-02  2.8068265197263905e-02  1.0311139273579259e-02  -6.3561555320807175e-34  7.4486197641570910e-35  3.7131070212164400e-04  3.1892353589368524e-03  5.7731194176852164e-03  1.9840970970714439e-02  4.7201009097647011e-02  9.1736807295157166e-02  1.3815261462663492e-01  4.6181741519175958e-03  2.2633694834651233e-01  2.3679680108642923e-01  2.7862038361365304e-01  1.6686496813031421e-01  1.5027789970411154e-01  5.3940445503776191e-02  1.8573132317856461e-01  5.1748746908694920e-01  1.4142353315778211e-01  1.0977361310884118e-01  5.6113707154594614e-02  6.9934053513697900e-02  6.4165364848047191e-02  3.8768730805543029e-02  1.9788030998356895e-02  1.1746394840926232e-02  -3.0509546553987444e-32  -4.6716649315821676e-20  1.3517363044087292e-03  2.0183012999253037e-04  6.7344263177039889e-03  1.0039494247825888e-02  2.5763643156558831e-02  4.6028635733774116e-02  6.2514297560943899e-02  6.6661936651357792e-02  2.7984496058477487e-01  8.5907865289225060e-02  3.4810137699254529e-01  1.7577794066073041e-01  5.4824315214109931e-01  2.0655085287206348e-01  8.5475454713828891e-02  7.2395160695761740e-01  2.4555451361805419e-01  1.2658899641734489e-01  4.1471789707467496e-02  3.6630404125388281e-02  5.2314904552174996e-02  5.0437834749098770e-02  2.1815138265668940e-02  8.4982106702320651e-03  1.2712311064161435e-33  -6.6249708421153583e-20  1.2049954849524425e-03  1.6082847050710378e-03  2.9154980357226057e-03  8.3449052683505047e-03  1.6935327418845587e-02  3.2765222079830285e-02  4.5039263425504850e-02  4.1694287351522211e-02  7.0997021588985215e-02  1.6438172157187136e-02  4.2235909451472146e-02  5.3694469279403900e-01  3.0689415618824340e-02  6.2799492712385230e-01  4.7048219793392693e-01  7.5252431242210843e-02  8.8588885016277916e-02  8.2613882307859335e-02  7.7993627672513638e-02  2.7691494985764790e-02  4.9989291855982894e-02  4.3851556114532134e-02  3.9203452035208954e-02  1.0814740930308884e-03  -6.0033871930923379e-20  -6.4586801360868656e-20  1.3071541687227030e-03  2.1963761966034413e-03  1.4045641047132054e-03  6.4136510437936816e-03  9.9023757233294950e-03  2.1918886613467550e-02  3.4822265203018211e-02  3.9996925987626913e-02  1.2891008785035612e-02  2.1821142228894946e-02  2.3506993208544193e-02  1.4861429613846838e-01  2.8910794121443630e-02  1.3163833724689858e-01  2.1240390362545457e-02  1.1268976584891617e-01  2.9286533989200853e-02  6.9109947416347101e-02  6.8707544626292763e-02  4.3738934100091893e-02  3.2041416868344524e-02  3.2334137785201576e-02  2.7298733297972999e-02  2.0931538808948255e-02  1.5774690874349424e-19  -2.9831122143693038e-20  1.1634923781674435e-03  1.8589253044250479e-03  2.7853570067437614e-03  2.8244889020026028e-03  8.1178975495855791e-03  1.2840549552416827e-02  2.3793021933040687e-02  3.2761317857142334e-02  3.8449443791646956e-02  2.6286761516523493e-02  3.4996386550480582e-02  2.5116951536788178e-02  7.9591620580069439e-02  2.0842947805992648e-02  7.2439537145630242e-02  2.8316921887094580e-02  2.7574139363532486e-02  2.7837868788753977e-03  6.1799660067794998e-02  4.9082291988356487e-02  1.9906022062247768e-02  2.5865431905935057e-02  1.3604252303138562e-02  7.1267665801127917e-03  1.2712311064161435e-33  -1.6282519885213329e-20  5.3738972228151898e-04  1.2909548194883877e-03  1.9062507172597988e-03  2.1843134156590590e-03  5.2504207228918345e-03  8.7671414505968454e-03  1.6306351948462819e-02  2.4867012191825671e-02  3.1088538244937406e-02  1.6197767481757684e-02  2.2036112096138618e-02  3.3091149394860797e-02  2.3208622614796715e-02  1.9633624019683581e-03  1.1624710168907424e-02  1.9814023379983874e-02  1.8134337356619117e-02  1.7653487647885126e-03  4.6900540412916088e-02  3.6611855856409428e-02  2.9189280464955638e-02  2.2491473509302883e-03  9.4821393055491438e-03  4.6047461880160444e-03  1.2712311064161435e-33  -6.7369250666054205e-21  2.9331980195079803e-04  6.2689725422065089e-04  9.6660232462345377e-04  1.6820839344165220e-03  1.8245184515210719e-03  5.6938390420867187e-03  9.1835908009347857e-03  1.7783602470448735e-02  2.7617708181382421e-02  3.8659793613392057e-02  4.3556702236798141e-03  1.2623310899358618e-02  2.3453483965343636e-02  2.5664643952435562e-02  2.5215315386613767e-02  1.6200668815823899e-04  4.3143675642344964e-04  7.9686967416812103e-03  1.0065506768337173e-03  2.3152152117907922e-02  1.5168462952611860e-02  1.4771357333178196e-02  6.7198649601336148e-03  3.3496524040776091e-05  -3.8772548745692378e-32  -1.0862570489395757e-36  1.3502942131714710e-04  3.2070762517931765e-04  5.2203744521268111e-04  6.6573981163551741e-04  1.0479742755063449e-03  2.1695581523456984e-03  4.0775596597894823e-03  7.7797241901563568e-03  1.4211865404236119e-02  2.6347472694250178e-02  2.7277745444110574e-02  6.2529679253518280e-03  6.5302339601983400e-03  1.3311887861333471e-02  9.2675655960272624e-03  2.2849917125607175e-02  1.0016105648085572e-02  2.7378265941941557e-03  6.6657857891002309e-03  3.0906605546889778e-03  4.0550896777776756e-03  9.0455391728271983e-04  5.3291700050126546e-03  7.3528153396337417e-03  -4.0816324429391943e-19  0.0000000000000000e+00  3.7478193137026422e-21  8.0112822670560391e-20  -7.2447248923951491e-20  1.4408892870457543e-19  3.9725972075504484e-35  -1.2043467069987039e-19  -1.0924642320763734e-34  1.2315051343406390e-33  4.4195143933998736e-34  -2.8591534263451860e-18  7.5710952629784335e-19  -3.4710944814841070e-19  2.5424622128322870e-33  1.3896941390011108e-17  -5.1445323534667193e-19  -1.2684252051812840e-18  2.7800277768945683e-19  -1.5197990611527347e-19  0.0000000000000000e+00  2.7996394710115435e-17  -2.2510269635942575e-19  5.0849244256645740e-33  -2.7331468787947087e-32  -4.0816324429391880e-19  7.4366477773068520e-18  </DataArray> 
</PointData> 
</Piece>
</UnstructuredGrid>
</VTKFile>