<?xml version="1.0"?>
<VTKFile type="UnstructuredGrid"  version="0.1"  >
<UnstructuredGrid>
<Piece  NumberOfPoints="2601" NumberOfCells="5000">
<Points>
<DataArray  type="Float64"  NumberOfComponents="3"  format="ascii">0 0 0  0.02 0 0  0.04 0 0  0.06 0 0  0.08 0 0  0.1 0 0  0.12 0 0  0.14 0 0  0.16 0 0  0.18 0 0  0.2 0 0  0.22 0 0  0.24 0 0  0.26 0 0  0.28 0 0  0.3 0 0  0.32 0 0  0.34 0 0  0.36 0 0  0.38 0 0  0.4 0 0  0.42 0 0  0.44 0 0  0.46 0 0  0.48 0 0  0.5 0 0  0.52 0 0  0.54 0 0  0.5600000000000001 0 0  0.58 0 0  0.6 0 0  0.62 0 0  0.64 0 0  0.66 0 0  0.68 0 0  0.7 0 0  0.72 0 0  0.74 0 0  0.76 0 0  0.78 0 0  0.8 0 0  0.82 0 0  0.84 0 0  0.86 0 0  0.88 0 0  0.9 0 0  0.92 0 0  0.9399999999999999 0 0  0.96 0 0  0.98 0 0  1 0 0  0 0.02 0  0.02 0.02 0  0.04 0.02 0  0.06 0.02 0  0.08 0.02 0  0.1 0.02 0  0.12 0.02 0  0.14 0.02 0  0.16 0.02 0  0.18 0.02 0  0.2 0.02 0  0.22 0.02 0  0.24 0.02 0  0.26 0.02 0  0.28 0.02 0  0.3 0.02 0  0.32 0.02 0  0.34 0.02 0  0.36 0.02 0  0.38 0.02 0  0.4 0.02 0  0.42 0.02 0  0.44 0.02 0  0.46 0.02 0  0.48 0.02 0  0.5 0.02 0  0.52 0.02 0  0.54 0.02 0  0.5600000000000001 0.02 0  0.58 0.02 0  0.6 0.02 0  0.62 0.02 0  0.64 0.02 0  0.66 0.02 0  0.68 0.02 0  0.7 0.02 0  0.72 0.02 0  0.74 0.02 0  0.76 0.02 0  0.78 0.02 0  0.8 0.02 0  0.82 0.02 0  0.84 0.02 0  0.86 0.02 0  0.88 0.02 0  0.9 0.02 0  0.92 0.02 0  0.9399999999999999 0.02 0  0.96 0.02 0  0.98 0.02 0  1 0.02 0  0 0.04 0  0.02 0.04 0  0.04 0.04 0  0.06 0.04 0  0.08 0.04 0  0.1 0.04 0  0.12 0.04 0  0.14 0.04 0  0.16 0.04 0  0.18 0.04 0  0.2 0.04 0  0.22 0.04 0  0.24 0.04 0  0.26 0.04 0  0.28 0.04 0  0.3 0.04 0  0.32 0.04 0  0.34 0.04 0  0.36 0.04 0  0.38 0.04 0  0.4 0.04 0  0.42 0.04 0  0.44 0.04 0  0.46 0.04 0  0.48 0.04 0  0.5 0.04 0  0.52 0.04 0  0.54 0.04 0  0.5600000000000001 0.04 0  0.58 0.04 0  0.6 0.04 0  0.62 0.04 0  0.64 0.04 0  0.66 0.04 0  0.68 0.04 0  0.7 0.04 0  0.72 0.04 0  0.74 0.04 0  0.76 0.04 0  0.78 0.04 0  0.8 0.04 0  0.82 0.04 0  0.84 0.04 0  0.86 0.04 0  0.88 0.04 0  0.9 0.04 0  0.92 0.04 0  0.9399999999999999 0.04 0  0.96 0.04 0  0.98 0.04 0  1 0.04 0  0 0.06 0  0.02 0.06 0  0.04 0.06 0  0.06 0.06 0  0.08 0.06 0  0.1 0.06 0  0.12 0.06 0  0.14 0.06 0  0.16 0.06 0  0.18 0.06 0  0.2 0.06 0  0.22 0.06 0  0.24 0.06 0  0.26 0.06 0  0.28 0.06 0  0.3 0.06 0  0.32 0.06 0  0.34 0.06 0  0.36 0.06 0  0.38 0.06 0  0.4 0.06 0  0.42 0.06 0  0.44 0.06 0  0.46 0.06 0  0.48 0.06 0  0.5 0.06 0  0.52 0.06 0  0.54 0.06 0  0.5600000000000001 0.06 0  0.58 0.06 0  0.6 0.06 0  0.62 0.06 0  0.64 0.06 0  0.66 0.06 0  0.68 0.06 0  0.7 0.06 0  0.72 0.06 0  0.74 0.06 0  0.76 0.06 0  0.78 0.06 0  0.8 0.06 0  0.82 0.06 0  0.84 0.06 0  0.86 0.06 0  0.88 0.06 0  0.9 0.06 0  0.92 0.06 0  0.9399999999999999 0.06 0  0.96 0.06 0  0.98 0.06 0  1 0.06 0  0 0.08 0  0.02 0.08 0  0.04 0.08 0  0.06 0.08 0  0.08 0.08 0  0.1 0.08 0  0.12 0.08 0  0.14 0.08 0  0.16 0.08 0  0.18 0.08 0  0.2 0.08 0  0.22 0.08 0  0.24 0.08 0  0.26 0.08 0  0.28 0.08 0  0.3 0.08 0  0.32 0.08 0  0.34 0.08 0  0.36 0.08 0  0.38 0.08 0  0.4 0.08 0  0.42 0.08 0  0.44 0.08 0  0.46 0.08 0  0.48 0.08 0  0.5 0.08 0  0.52 0.08 0  0.54 0.08 0  0.5600000000000001 0.08 0  0.58 0.08 0  0.6 0.08 0  0.62 0.08 0  0.64 0.08 0  0.66 0.08 0  0.68 0.08 0  0.7 0.08 0  0.72 0.08 0  0.74 0.08 0  0.76 0.08 0  0.78 0.08 0  0.8 0.08 0  0.82 0.08 0  0.84 0.08 0  0.86 0.08 0  0.88 0.08 0  0.9 0.08 0  0.92 0.08 0  0.9399999999999999 0.08 0  0.96 0.08 0  0.98 0.08 0  1 0.08 0  0 0.1 0  0.02 0.1 0  0.04 0.1 0  0.06 0.1 0  0.08 0.1 0  0.1 0.1 0  0.12 0.1 0  0.14 0.1 0  0.16 0.1 0  0.18 0.1 0  0.2 0.1 0  0.22 0.1 0  0.24 0.1 0  0.26 0.1 0  0.28 0.1 0  0.3 0.1 0  0.32 0.1 0  0.34 0.1 0  0.36 0.1 0  0.38 0.1 0  0.4 0.1 0  0.42 0.1 0  0.44 0.1 0  0.46 0.1 0  0.48 0.1 0  0.5 0.1 0  0.52 0.1 0  0.54 0.1 0  0.5600000000000001 0.1 0  0.58 0.1 0  0.6 0.1 0  0.62 0.1 0  0.64 0.1 0  0.66 0.1 0  0.68 0.1 0  0.7 0.1 0  0.72 0.1 0  0.74 0.1 0  0.76 0.1 0  0.78 0.1 0  0.8 0.1 0  0.82 0.1 0  0.84 0.1 0  0.86 0.1 0  0.88 0.1 0  0.9 0.1 0  0.92 0.1 0  0.9399999999999999 0.1 0  0.96 0.1 0  0.98 0.1 0  1 0.1 0  0 0.12 0  0.02 0.12 0  0.04 0.12 0  0.06 0.12 0  0.08 0.12 0  0.1 0.12 0  0.12 0.12 0  0.14 0.12 0  0.16 0.12 0  0.18 0.12 0  0.2 0.12 0  0.22 0.12 0  0.24 0.12 0  0.26 0.12 0  0.28 0.12 0  0.3 0.12 0  0.32 0.12 0  0.34 0.12 0  0.36 0.12 0  0.38 0.12 0  0.4 0.12 0  0.42 0.12 0  0.44 0.12 0  0.46 0.12 0  0.48 0.12 0  0.5 0.12 0  0.52 0.12 0  0.54 0.12 0  0.5600000000000001 0.12 0  0.58 0.12 0  0.6 0.12 0  0.62 0.12 0  0.64 0.12 0  0.66 0.12 0  0.68 0.12 0  0.7 0.12 0  0.72 0.12 0  0.74 0.12 0  0.76 0.12 0  0.78 0.12 0  0.8 0.12 0  0.82 0.12 0  0.84 0.12 0  0.86 0.12 0  0.88 0.12 0  0.9 0.12 0  0.92 0.12 0  0.9399999999999999 0.12 0  0.96 0.12 0  0.98 0.12 0  1 0.12 0  0 0.14 0  0.02 0.14 0  0.04 0.14 0  0.06 0.14 0  0.08 0.14 0  0.1 0.14 0  0.12 0.14 0  0.14 0.14 0  0.16 0.14 0  0.18 0.14 0  0.2 0.14 0  0.22 0.14 0  0.24 0.14 0  0.26 0.14 0  0.28 0.14 0  0.3 0.14 0  0.32 0.14 0  0.34 0.14 0  0.36 0.14 0  0.38 0.14 0  0.4 0.14 0  0.42 0.14 0  0.44 0.14 0  0.46 0.14 0  0.48 0.14 0  0.5 0.14 0  0.52 0.14 0  0.54 0.14 0  0.5600000000000001 0.14 0  0.58 0.14 0  0.6 0.14 0  0.62 0.14 0  0.64 0.14 0  0.66 0.14 0  0.68 0.14 0  0.7 0.14 0  0.72 0.14 0  0.74 0.14 0  0.76 0.14 0  0.78 0.14 0  0.8 0.14 0  0.82 0.14 0  0.84 0.14 0  0.86 0.14 0  0.88 0.14 0  0.9 0.14 0  0.92 0.14 0  0.9399999999999999 0.14 0  0.96 0.14 0  0.98 0.14 0  1 0.14 0  0 0.16 0  0.02 0.16 0  0.04 0.16 0  0.06 0.16 0  0.08 0.16 0  0.1 0.16 0  0.12 0.16 0  0.14 0.16 0  0.16 0.16 0  0.18 0.16 0  0.2 0.16 0  0.22 0.16 0  0.24 0.16 0  0.26 0.16 0  0.28 0.16 0  0.3 0.16 0  0.32 0.16 0  0.34 0.16 0  0.36 0.16 0  0.38 0.16 0  0.4 0.16 0  0.42 0.16 0  0.44 0.16 0  0.46 0.16 0  0.48 0.16 0  0.5 0.16 0  0.52 0.16 0  0.54 0.16 0  0.5600000000000001 0.16 0  0.58 0.16 0  0.6 0.16 0  0.62 0.16 0  0.64 0.16 0  0.66 0.16 0  0.68 0.16 0  0.7 0.16 0  0.72 0.16 0  0.74 0.16 0  0.76 0.16 0  0.78 0.16 0  0.8 0.16 0  0.82 0.16 0  0.84 0.16 0  0.86 0.16 0  0.88 0.16 0  0.9 0.16 0  0.92 0.16 0  0.9399999999999999 0.16 0  0.96 0.16 0  0.98 0.16 0  1 0.16 0  0 0.18 0  0.02 0.18 0  0.04 0.18 0  0.06 0.18 0  0.08 0.18 0  0.1 0.18 0  0.12 0.18 0  0.14 0.18 0  0.16 0.18 0  0.18 0.18 0  0.2 0.18 0  0.22 0.18 0  0.24 0.18 0  0.26 0.18 0  0.28 0.18 0  0.3 0.18 0  0.32 0.18 0  0.34 0.18 0  0.36 0.18 0  0.38 0.18 0  0.4 0.18 0  0.42 0.18 0  0.44 0.18 0  0.46 0.18 0  0.48 0.18 0  0.5 0.18 0  0.52 0.18 0  0.54 0.18 0  0.5600000000000001 0.18 0  0.58 0.18 0  0.6 0.18 0  0.62 0.18 0  0.64 0.18 0  0.66 0.18 0  0.68 0.18 0  0.7 0.18 0  0.72 0.18 0  0.74 0.18 0  0.76 0.18 0  0.78 0.18 0  0.8 0.18 0  0.82 0.18 0  0.84 0.18 0  0.86 0.18 0  0.88 0.18 0  0.9 0.18 0  0.92 0.18 0  0.9399999999999999 0.18 0  0.96 0.18 0  0.98 0.18 0  1 0.18 0  0 0.2 0  0.02 0.2 0  0.04 0.2 0  0.06 0.2 0  0.08 0.2 0  0.1 0.2 0  0.12 0.2 0  0.14 0.2 0  0.16 0.2 0  0.18 0.2 0  0.2 0.2 0  0.22 0.2 0  0.24 0.2 0  0.26 0.2 0  0.28 0.2 0  0.3 0.2 0  0.32 0.2 0  0.34 0.2 0  0.36 0.2 0  0.38 0.2 0  0.4 0.2 0  0.42 0.2 0  0.44 0.2 0  0.46 0.2 0  0.48 0.2 0  0.5 0.2 0  0.52 0.2 0  0.54 0.2 0  0.5600000000000001 0.2 0  0.58 0.2 0  0.6 0.2 0  0.62 0.2 0  0.64 0.2 0  0.66 0.2 0  0.68 0.2 0  0.7 0.2 0  0.72 0.2 0  0.74 0.2 0  0.76 0.2 0  0.78 0.2 0  0.8 0.2 0  0.82 0.2 0  0.84 0.2 0  0.86 0.2 0  0.88 0.2 0  0.9 0.2 0  0.92 0.2 0  0.9399999999999999 0.2 0  0.96 0.2 0  0.98 0.2 0  1 0.2 0  0 0.22 0  0.02 0.22 0  0.04 0.22 0  0.06 0.22 0  0.08 0.22 0  0.1 0.22 0  0.12 0.22 0  0.14 0.22 0  0.16 0.22 0  0.18 0.22 0  0.2 0.22 0  0.22 0.22 0  0.24 0.22 0  0.26 0.22 0  0.28 0.22 0  0.3 0.22 0  0.32 0.22 0  0.34 0.22 0  0.36 0.22 0  0.38 0.22 0  0.4 0.22 0  0.42 0.22 0  0.44 0.22 0  0.46 0.22 0  0.48 0.22 0  0.5 0.22 0  0.52 0.22 0  0.54 0.22 0  0.5600000000000001 0.22 0  0.58 0.22 0  0.6 0.22 0  0.62 0.22 0  0.64 0.22 0  0.66 0.22 0  0.68 0.22 0  0.7 0.22 0  0.72 0.22 0  0.74 0.22 0  0.76 0.22 0  0.78 0.22 0  0.8 0.22 0  0.82 0.22 0  0.84 0.22 0  0.86 0.22 0  0.88 0.22 0  0.9 0.22 0  0.92 0.22 0  0.9399999999999999 0.22 0  0.96 0.22 0  0.98 0.22 0  1 0.22 0  0 0.24 0  0.02 0.24 0  0.04 0.24 0  0.06 0.24 0  0.08 0.24 0  0.1 0.24 0  0.12 0.24 0  0.14 0.24 0  0.16 0.24 0  0.18 0.24 0  0.2 0.24 0  0.22 0.24 0  0.24 0.24 0  0.26 0.24 0  0.28 0.24 0  0.3 0.24 0  0.32 0.24 0  0.34 0.24 0  0.36 0.24 0  0.38 0.24 0  0.4 0.24 0  0.42 0.24 0  0.44 0.24 0  0.46 0.24 0  0.48 0.24 0  0.5 0.24 0  0.52 0.24 0  0.54 0.24 0  0.5600000000000001 0.24 0  0.58 0.24 0  0.6 0.24 0  0.62 0.24 0  0.64 0.24 0  0.66 0.24 0  0.68 0.24 0  0.7 0.24 0  0.72 0.24 0  0.74 0.24 0  0.76 0.24 0  0.78 0.24 0  0.8 0.24 0  0.82 0.24 0  0.84 0.24 0  0.86 0.24 0  0.88 0.24 0  0.9 0.24 0  0.92 0.24 0  0.9399999999999999 0.24 0  0.96 0.24 0  0.98 0.24 0  1 0.24 0  0 0.26 0  0.02 0.26 0  0.04 0.26 0  0.06 0.26 0  0.08 0.26 0  0.1 0.26 0  0.12 0.26 0  0.14 0.26 0  0.16 0.26 0  0.18 0.26 0  0.2 0.26 0  0.22 0.26 0  0.24 0.26 0  0.26 0.26 0  0.28 0.26 0  0.3 0.26 0  0.32 0.26 0  0.34 0.26 0  0.36 0.26 0  0.38 0.26 0  0.4 0.26 0  0.42 0.26 0  0.44 0.26 0  0.46 0.26 0  0.48 0.26 0  0.5 0.26 0  0.52 0.26 0  0.54 0.26 0  0.5600000000000001 0.26 0  0.58 0.26 0  0.6 0.26 0  0.62 0.26 0  0.64 0.26 0  0.66 0.26 0  0.68 0.26 0  0.7 0.26 0  0.72 0.26 0  0.74 0.26 0  0.76 0.26 0  0.78 0.26 0  0.8 0.26 0  0.82 0.26 0  0.84 0.26 0  0.86 0.26 0  0.88 0.26 0  0.9 0.26 0  0.92 0.26 0  0.9399999999999999 0.26 0  0.96 0.26 0  0.98 0.26 0  1 0.26 0  0 0.28 0  0.02 0.28 0  0.04 0.28 0  0.06 0.28 0  0.08 0.28 0  0.1 0.28 0  0.12 0.28 0  0.14 0.28 0  0.16 0.28 0  0.18 0.28 0  0.2 0.28 0  0.22 0.28 0  0.24 0.28 0  0.26 0.28 0  0.28 0.28 0  0.3 0.28 0  0.32 0.28 0  0.34 0.28 0  0.36 0.28 0  0.38 0.28 0  0.4 0.28 0  0.42 0.28 0  0.44 0.28 0  0.46 0.28 0  0.48 0.28 0  0.5 0.28 0  0.52 0.28 0  0.54 0.28 0  0.5600000000000001 0.28 0  0.58 0.28 0  0.6 0.28 0  0.62 0.28 0  0.64 0.28 0  0.66 0.28 0  0.68 0.28 0  0.7 0.28 0  0.72 0.28 0  0.74 0.28 0  0.76 0.28 0  0.78 0.28 0  0.8 0.28 0  0.82 0.28 0  0.84 0.28 0  0.86 0.28
[...]
<PointData  Scalars="Indicator Function"> 
<DataArray  type="Float64"  Name="Indicator Function"  format="ascii">-2.4318240160044163e-21  1.5330993164452269e-17  -1.6243664427891442e-18  3.0058584613018155e-17  9.4099770166518511e-18  -4.3609571059794863e-19  -1.9524440485539652e-18  4.2268342400522911e-16  2.1511202751328266e-16  -9.9790894570110878e-19  1.8067944243421135e-16  4.7563242193569551e-16  -3.0687830308744137e-19  -1.0214687509412919e-32  -5.3098695118923336e-17  -2.0834338501113886e-18  -7.7217323799746715e-19  2.4212129337080087e-16  -9.1632299869984863e-19  -1.3846770714896223e-18  1.3459746662371775e-16  -1.0854912556101233e-18  -9.8868896147390940e-19  4.8051463077398077e-16  2.3663368747674718e-34  -6.5744113847646234e-19  -3.0378445369263350e-19  -1.5384427617703558e-19  1.5929173971209681e-16  -1.4371613836860037e-21  -3.5145806835763541e-20  -1.7572903417881777e-20  -8.0206762280679380e-20  -1.0127949256378981e-19  -2.0093179944747958e-19  -5.5074604588931786e-20  -9.8597369781977980e-36  -2.2915460269256441e-20  -6.6681013800317407e-20  -7.4213034216784496e-20  4.0441340139541423e-17  -3.2910630196625267e-20  -6.2960614903066526e-20  -6.9395095930682019e-20  -5.9608872635509740e-20  -3.2839644467395433e-20  1.4335747602452723e-18  -8.3657987464053326e-21  -3.4475705019852183e-21  -1.9279115957040790e-21  9.8597369781977980e-36  -8.3933822342119181e-19  8.0620888138006712e-03  2.6114939937639122e-03  1.8553410196185604e-03  1.0910768922184835e-02  1.5712003837974338e-02  7.1422907597336761e-04  3.5172105158117480e-02  1.5810955530450293e-02  3.2340943600094055e-02  1.7976729424036764e-02  3.2674721069484575e-03  1.1056456091461522e-02  1.0396852008733219e-02  1.8735409713688648e-02  1.9422669577526832e-02  2.7820472855287486e-02  3.6601011337056087e-02  2.2641804642759507e-02  9.0195270758083208e-03  2.0434361034852327e-02  3.4851382197394795e-02  2.1287809584213265e-03  1.7810636953916929e-02  1.5602595890676994e-02  1.7968364908675402e-03  1.0944988419608748e-02  5.5428241989117083e-03  7.3944918308485315e-04  5.1779195776316247e-05  1.5422511132491871e-05  6.3313057027672014e-04  4.9001150807564140e-04  1.1998708248416258e-03  1.2245537274614120e-03  1.2496008240547580e-03  3.6733546278978338e-04  1.4783937454635159e-04  4.1280823331858675e-04  9.9481423895589186e-04  8.3949605350102632e-04  3.5774426643652389e-04  4.1399307434193688e-04  9.2720107009490189e-04  7.8651037765158647e-04  6.8056279753123475e-04  2.5130504357974778e-04  5.2986029286554705e-05  1.2421181782459301e-04  6.9460335552129189e-05  -4.9437091028573215e-21  1.2620463332093181e-33  2.0476214517057490e-02  2.3550075568193815e-02  8.7854114297904080e-03  1.1320045555078248e-02  1.3580306777482433e-02  2.9597594981391934e-02  3.4245029538307645e-02  1.0089536247847216e-02  3.4553031261618218e-02  2.3371403841254169e-02  5.1935245545263034e-02  8.5614658463232421e-02  6.2677436187170338e-02  7.1764417053560630e-03  4.6136605210616570e-02  5.8332934070478223e-02  2.8448963421563488e-03  6.1654806148711355e-02  6.4296946114938257e-03  3.7200568999682833e-02  1.8052148849185455e-02  6.6894430278073236e-02  6.1981911128104458e-02  4.6707280947627133e-02  1.9823867093133725e-02  2.6022138086941284e-02  2.0176943586326618e-03  6.0793736511443354e-03  4.5347822156084922e-03  3.8364358409423058e-04  1.7788054891157049e-04  3.5242950364154353e-04  1.8412968905540093e-03  2.0213099196357931e-03  1.4610228838414228e-03  1.7569728031485803e-03  2.8317561109636566e-04  3.9653782378967848e-04  1.0625991945826163e-03  1.4226115406558808e-03  1.7240668624380923e-04  9.3328460012528805e-04  7.1372643702012606e-04  1.4996277762751853e-03  8.2017578626940866e-04  5.4342931870054415e-04  6.8908091881177842e-06  3.4170105640210930e-04  2.4472010828900767e-04  6.1131127232524211e-20  -1.7041313314507743e-19  1.1190200596114332e-02  3.9876836808377366e-03  8.5089544083996813e-03  1.6956273096819293e-02  1.9351064643031289e-02  3.0853012584375093e-02  4.6662436728696546e-03  7.7854890419602293e-02  5.5254954188416243e-02  7.9001701597892424e-02  5.9973331824209726e-02  2.5814825275443019e-02  3.2323396519645400e-03  1.2565357776961160e-02  2.5453349116377737e-02  3.6520599597109134e-02  5.5376567429990871e-02  8.6760077462828142e-02  4.0369748958600758e-02  4.1168895859541093e-03  4.2564455379290794e-02  5.7418189512915378e-02  7.3888250008613968e-03  5.6091815610505955e-02  5.7967222781602316e-02  1.1678479822407842e-02  2.5980070652140197e-02  1.8367060645326609e-02  2.8199992191543263e-03  2.8869103233980899e-03  3.9527336566898112e-04  8.8410702063585584e-04  1.3176849696768405e-03  2.5131156833357970e-03  2.0497323439254357e-03  1.9092610094032039e-03  6.9287573390043936e-04  1.9690358643102186e-04  1.5096605939095289e-04  1.3775676466303947e-03  9.2628656304242682e-04  1.6838901639319680e-03  9.3919214910634255e-04  1.5476201186733656e-03  1.2979070134968914e-03  9.6348664974732696e-04  2.0195790817390460e-04  2.1463608310619422e-04  3.1079262612832443e-04  -4.3131141176422902e-20  -5.1156123693568898e-19  3.4081067162187131e-02  3.1253775225184668e-03  2.6334699973921648e-02  1.2649628439840976e-03  2.0086674820280807e-02  2.1998242691219541e-02  5.8850337974490810e-02  3.6476612591898133e-02  7.6600958217082028e-03  3.2419439728231664e-02  1.7860571539242035e-02  5.9238586924774843e-02  1.2681127881482279e-01  1.1615875734276589e-01  2.5368205963345408e-02  8.5435905651137956e-02  1.0704733400399324e-01  8.8314108658102772e-03  1.1285173243302317e-01  7.4756170152432324e-03  3.9826984301913983e-02  2.1026653898189432e-02  1.0086796506968698e-01  1.0317999264923786e-01  6.0274271878094407e-02  1.8888903826905411e-02  3.6216007679199143e-02  5.5415330086778212e-04  1.6265142616539451e-02  9.5560769849672537e-03  1.3351834843286212e-06  1.7148383271459568e-04  7.1370210181040362e-04  2.9499036296474039e-03  2.6956086520159789e-03  1.5864756841089086e-03  2.3204998608662140e-03  7.3958477819926734e-04  9.8253911324130256e-04  1.0259324538248380e-03  1.4909979282682676e-03  8.6366352925003451e-04  2.2435770833741041e-03  1.0274824531510812e-03  2.2972694933866005e-03  1.0539860941815712e-03  8.9640657355417159e-04  1.1086815397951907e-04  2.4857387402663387e-04  5.5157725324282080e-20  -3.0104290068916037e-19  2.2202983393802396e-02  1.9835285102592710e-02  2.3462491169444159e-02  1.0809342699349538e-02  2.2609656534499371e-02  3.4465204140272161e-02  2.6130740428778075e-02  3.9784555542316663e-03  1.0526226653935365e-01  8.0107475868512537e-02  1.0283112502713028e-01  8.1803693595686885e-02  4.5968269991504156e-02  3.1976271804326717e-02  4.6240203854980531e-03  2.7509191364168555e-02  3.4578843236418223e-02  7.9095806083318940e-02  1.1637330530791440e-01  5.7875602329323685e-02  1.8301099545180499e-02  5.8322988434250364e-02  7.3715216290202557e-02  1.4439729271485546e-02  9.2969823903511717e-02  8.8282771835681534e-02  2.2998808224071944e-02  3.9043905556048121e-02  2.5812824850070464e-02  3.7160619379923975e-04  7.5946070968782352e-03  7.2365573320445290e-04  8.2586448190503611e-04  1.3046077583358207e-03  3.3939296809377263e-03  2.3450502147100900e-03  1.8319693841416344e-03  1.0121494810515293e-03  3.3601868966734384e-04  3.9865888974207286e-04  1.5131556822234962e-03  8.7559719361717534e-04  2.8136852638807096e-03  1.8131250372839774e-03  1.9418424116021810e-03  2.0573765518620492e-03  1.2974814485407530e-03  6.2622299808066137e-04  1.1825436047321757e-04  7.8877895825582384e-35  -4.6337531173930649e-19  9.5802282983070419e-03  2.5797824725030973e-02  2.9024854560117962e-02  4.0856255425959678e-02  3.7629912696781611e-03  2.6333807023054108e-02  2.4668264423209071e-02  7.7906141048853378e-02  4.1891322969538361e-02  7.0684662758390537e-03  2.9418313997968945e-02  1.0460335161686195e-02  5.7122686927008295e-02  1.4702736880432593e-01  1.4358678841806266e-01  3.3292921081967360e-02  1.1853207582093796e-01  1.5035961154432090e-01  2.5812320631194464e-02  1.6170360059371380e-01  2.1055988455031368e-02  3.0110017141039915e-02  2.6760552868405271e-02  1.2741187013962238e-01  1.2865585773201976e-01  6.0628110371030629e-02  5.7114866257526571e-03  3.6133795304570081e-02  5.8263457473552282e-03  2.5683210198557974e-02  1.1970865641837702e-02  3.1627817619017578e-03  8.2419125017224327e-05  1.2172702951934325e-03  3.2598369521927100e-03  3.0788050313816416e-03  1.5692435542303301e-03  2.2721651285963398e-03  8.8501590708281528e-04  8.0782379477133050e-04  8.8798520958321178e-04  1.7246170776043874e-03  1.0660053137970739e-03  3.4054198574501593e-03  1.4725336850336228e-03  2.8431118454112399e-03  1.5869121672248637e-03  1.3301250929426795e-03  4.6165458245701842e-04  2.7114276690043944e-35  -4.7722625985233358e-19  1.3601569365415848e-02  1.3830283566489186e-02  1.3927894143444908e-02  3.4128098479500442e-02  3.3268271162020670e-02  4.3508721740613515e-02  4.3513461313332683e-02  1.9356647175850422e-02  1.9782563109633923e-02  1.3205357640892881e-01  8.8378409103368680e-02  1.0696974521297155e-01  8.3480876167956283e-02  4.2948265918189545e-02  3.7011279938112582e-02  6.4452352999058533e-03  2.2392356636253222e-02  3.4201755763991419e-02  8.6776283559134151e-02  1.3608866724037741e-01  6.8446521259750634e-02  1.7810107145891454e-02  7.0483243837139511e-02  9.9698191768425218e-02  9.6683217372522719e-03  1.1538090148442298e-01  9.7887694655690236e-02  1.0736835599402972e-02  4.2994592759257336e-02  2.5791993387276394e-02  5.0314378517911009e-03  1.1765498373421017e-02  4.7135016739196665e-04  1.2174678570425355e-03  5.1779829635160740e-04  3.6816737972441005e-03  2.2100734190671507e-03  1.4560976953339822e-03  9.3281942779666082e-04  9.9763431490486462e-04  5.0807984077476550e-04  1.7565395932464104e-03  1.0747818696231247e-03  3.1669590071475837e-03  2.6458811496573652e-03  2.0561080436794421e-03  2.5561258417978920e-03  1.5057680063399639e-03  9.1740999950455638e-04  -1.0984762602200649e-19  -3.6812003213247505e-19  8.7913876459522373e-03  4.7957115634175819e-03  2.4401549141210323e-02  4.4345760233961723e-02  3.7163567281842530e-02  1.6785387529191169e-02  2.5609675097270086e-02  4.8765353414734914e-03  9.8572521296747304e-02  6.1366057915287833e-02  1.7188858699878538e-02  5.0131888083820582e-02  1.6363278449280254e-02  6.9552460428947110e-02  1.7654209890405123e-01  1.7167066548165483e-01  4.0394434036702433e-02  1.5176125830401366e-01  2.0090722449335213e-01  3.7191795703594210e-02  2.1563793052177849e-01  4.5824678205728157e-02  2.1419869719910358e-02  2.8291694311317415e-02  1.5900084094216985e-01  1.4734754782820864e-01  6.9572735204146766e-02  6.3837781777896169e-03  4.4456658480217327e-02  1.2153968319810549e-02  2.9043478424914081e-02  1.1185156162097080e-02  8.4396209795986245e-03  5.4819218139183891e-04  1.8457316513382077e-03  2.5484086772191942e-03  3.0095659815012809e-03  1.0791121675840067e-03  1.5059017630473200e-03  1.1576985657155993e-03  2.3255234923720211e-04  9.3341987287598818e-04  2.2274064713283317e-03  8.9871999112481847e-04  3.9238204441632762e-03  1.8951934421542447e-03  2.7793053324298104e-03  1.8160225949730533e-03  1.0538105668708340e-03  2.9249118873331227e-20  -2.9016186865011059e-19  1.3619806013800544e-02  1.3411447377723063e-02  1.0883385094961773e-02  4.8831865419267425e-03  4.3981058485828825e-02  5.0604052324135305e-02  5.3229196276962765e-02  7.2025540290182752e-02  7.6622853083113500e-03  4.4452297896189943e-02  1.8672920696274459e-01  8.2809375170043775e-02  1.1256975043806326e-01  7.4093936081550016e-02  3.6320891483555953e-02  2.1296043559396904e-02  1.2542906908545202e-02  3.5435795922801345e-03  3.5184613279793941e-02  6.9696878827748110e-02  1.4932417599356465e-01  6.2340954078003455e-02  6.8940277859756158e-03  9.7445619926909227e-02  1.3989771139741766e-01  9.4778706895545534e-03  1.1915963483800539e-01  1.0385783374713259e-01  1.8618291417501206e-02  4.0699293120739943e-02  1.9192237412702307e-02  7.8315498696150381e-03  1.4832790953599653e-02  5.2449748114627966e-03  2.4701899804624688e-03  6.8613841766085066e-04  3.0773497454732409e-03  1.6056836570215970e-03  6.7238325159270384e-04  6.4257557397824526e-06  1.7512052547186134e-03  5.7031551944481242e-04  2.3464158487504719e-03  1.7711124491324867e-03  2.7499036334223508e-03  3.1124976491085053e-03  2.0370670391145966e-03  2.4551637318310270e-03  1.3321441794568237e-03  -7.3948857007667558e-20  0.0000000000000000e+00  1.6181902292522893e-02  1.6883831726772481e-02  1.2579136990269583e-02  5.4617171522546408e-03  6.9736144068200029e-02  3.2159195900487297e-02  4.1635662328707641e-02  2.9811605735012344e-02  1.1219145359367867e-02  8.8430245914642852e-02  5.5024213443948963e-02  3.9258696982165664e-02  1.1492466811769222e-01  9.6565569445259264e-03  1.2006546163785391e-01  2.0320474746409034e-01  2.3197336134030697e-01  5.6117356725260262e-02  1.8032866512670018e-01  2.6535217533773409e-01  1.5615227858415452e-02  3.0160515572595487e-01  8.3770764680138943e-02  1.8651739117246390e-02  3.4838577453872956e-02  2.2054847738764058e-01  1.5106777486134018e-01  1.0392149029652512e-01  2.0571475856985780e-02  7.8572338626058058e-02  1.8918537185770794e-02  2.1072120646697248e-02  9.6802122547986098e-03  1.4423864135305461e-02  3.9285539049689917e-03  3.6569107268640678e-03  6.6990202065364860e-04  2.1797799228070805e-03  9.2897791516205472e-06  2.5180584545596611e-04  1.9560808205669657e-03  1.6503035532609597e-03  1.7586810627123778e-03  3.2504929673469350e-03  2.9746569627942864e-05  3.2490073009047624e-03  1.9030199696404711e-03  2.0846030557094605e-03  1.3960570494939077e-03  -1.9374183500479992e-19  -2.3037465224369265e-19  9.7720629893434958e-03  6.0839666071107563e-03  2.3401674706814007e-02  1.9781838031490400e-02  1.5358791698286941e-02  1.3667840666005411e-02  1.1115502036942197e-01  8.2792078156020146e-02  1.0854446864585690e-01  3.5823489864217429e-03  6.2398483756817565e-02  2.1533663716851742e-01  1.4716880292508641e-01  7.1049979016383338e-02  8.0357306057305650e-02  5.4598789881309166e-02  4.5288555927773658e-02  4.4904167154801540e-03  5.9449376367322046e-02  6.0010019439374986e-02  3.9526635887273467e-02  1.7015054701490676e-01  7.8828943948192121e-02  1.1925621177769137e-01  1.9695460920468361e-01  2.1543942847486511e-01  2.1228724157629799e-02  7.8153928263465136e-02  1.4881978681952357e-01  6.9284921671549080e-02  5.4550084919505241e-02  4.8786748912699514e-03  2.1690367292710629e-03  1.9746047477834556e-02  1.4102855369183390e-02  5.7539784514550182e-03  3.0646110806584383e-03  8.2817405770447064e-04  1.3747736875502752e-04  8.3821843570990821e-04  1.7305160999494438e-03  2.6345465771773807e-03  2.4255800740628636e-03  3.1072094253287380e-03  2.7938828046818256e-03  1.7613380183633669e-03  2.5621277260197686e-03  1.4652675364324251e-03  1.1309353749186400e-03  -1.9892441620354139e-19  -9.8597369781977983e-35  1.1527129673615223e-02  8.1622880023372660e-03  9.5043940962054817e-04  4.7641912966747951e-03  6.0058886454057549e-03  7.3371876592958074e-02  2.8037347819210176e-02  3.0704278870242102e-02  4.5979642977880576e-02  1.0834337749464255e-01  1.1554424637921407e-01  6.7110281467069322e-02  5.2111041291077236e-02  1.7484319567959633e-01  1.0054344358570404e-01  4.6599623812477106e-02  3.5659411331000479e-01  2.4523136082496308e-01  9.4826205944528688e-02  1.7671121012901309e-01  3.9922929023053705e-01  1.7662990711494516e-03  3.9533286630637304e-01  1.1399148434280847e-01  4.8622582856690598e-02  1.4014937536594083e-01  4.3300115357951952e-01  3.5364464284846700e-02  2.3352582362778820e-01  1.0938903882940465e-02  1.6973053954404699e-01  5.8089472204898580e-02  1.0189395868816549e-02  1.7904874140690946e-02  2.3491264728860626e-02  1.2718613106066503e-02  7.3142329331530535e-03  2.3043049795042668e-03  1.9152711941952246e-05  2.0166726159741117e-03  1.8654056116039796e-03  3.8385839725290222e-03  3.3286301202260717e-03  3.6494281321938072e-03  4.3777740659251751e-03  9.8774525232102253e-04  2.2202560395195316e-03  1.7267026116161237e-03  1.1581150683385619e-03  -6.4288300701740189e-20  -1.8238372070306371e-19  1.7830358014385199e-02  1.5467177973124892e-02  4.4198774008624830e-03  2.5031658370713340e-02  4.8012394970968859e-03  9.2755535252780647e-03  2.4906075422508878e-02  1.2134983545755589e-01  5.1301332974365538e-02  1.6528965902805653e-01  7.3374372348130060e-02  2.2101582465709610e-01  3.7393006602645251e-01  1.2229915899874065e-01  1.1478447721725778e-01  4.5872492444492388e-02  1.9590774031026806e-03  9.5988000087903036e-02  3.0341641147602233e-01  2.1466713638922819e-01  1.6911810647691719e-01  5.6418211818501873e-02  8.0953621391116237e-01  6.0725607630680023e-02  5.2052832648307665e-02  5.0315142053936945e-02  6.5111040896098371e-01  1.0822756786411916e-01  1.9074185907261385e-01  3.7665861296726666e-01  2.1505689374163900e-01  1.1147324869593758e-01  1.7768127493247958e-02  2.7660314336594868e-02  2.6829128879821786e-02  2.4449323210922101e-02  1.2216237219366627e-02  6.3552808482539138e-03  2.1850687445969237e-03  1.7701762006485837e-03  2.8980669106070446e-03  4.1817749687986404e-03  4.3624155186449652e-03  5.0795386141909774e-03  4.9820332819523689e-03  4.4736617987910727e-03  2.2305593356018304e-04  1.3822643882991444e-03  1.1766026517357978e-03  -6.5314567739604713e-20  2.0508252914651422e-33  3.2855330263870529e-03  1.0260849365193421e-02  2.1676019616800612e-02  2.7345564357521432e-02  8.3007030892133047e-03  6.1141726225940501e-04  6.0620714140315807e-02  3.8455569843666312e-03  6.1622289843167227e-02  5.0543366064877492e-02  8.0029061358122197e-02  2.2348750336377526e-03  3.6078007073823942e-02  4.1540272519479796e-02  4.5006465972587045e-01  2.4950955440765730e-03  1.5862262400180932e-01  3.7491963297113085e-01  3.1241362091434632e-01  8.7411122356529203e-01  8.4762016039746746e-01  2.4039241026676411e-01  1.7262012569411572e-01  4.9259131518268157e-01  2.6322680513067104e-02  1.2372858325263578e-01  1.0703072197110648e-01  4.2401836769888740e-01  1.1927525949296294e-01  2.7787366187987633e-01  1.4633210928337806e-01  2.3932176427162302e-01  1.3608537873974921e-01  6.9298791973426463e-02  4.7862067432904047e-02  3.7362366965620529e-02  2.4710788181891655e-02  1.1739452981351277e-02  4.8839003776117319e-03  2.2291586939807151e-03  3.5019799329618320e-03  3.6636917045073710e-03  5.8002014360307571e-03  4.8885071286033322e-03  6.3939828556777980e-03  6.2073527097131834e-03  3.0579608452030310e-03  6.7971379250470618e-05  2.1749332342013136e-04  1.9548337043326815e-18  4.7326737495349437e-34  1.4825458180020680e-02  1.5818918557901302e-03  5.6608550162591323e-03  4.4229696102482162e-03  2.3157260803501338e-03  5.0966506901444102e-02  3.0297798804965900e-02  2.4901160285565035e-02  1.3744180826940744e-01  1.8130565299623808e-03  2.4486790870533376e-01  1.1598526389796883e-01  2.3318162544789078e-01  2.3151644907262597e-01  4.2926986197718869e-01  8.3975001081539012e-03  2.3507165045012178e-02  5.4177248961555446e-01  5.2664962604871440e-02  1.8682072764852123e-01  1.4031329245885063e-01  2.0888322226356629e-01  1.9644023190544477e-01  1.2397816530622682e-01  1.7081476102030779e-01  4.7442032955820022e-02  5.8031525168373441e-02  4.8604498015438577e-02  8.3549178813966521e-02  1.7153948353391894e-02  3.0006572379351104e-01  3.1557172170021758e-01  3.3737848192366643e-01  1.1773453898378679e-01  9.1365571612270630e-02  5.0078490154658879e-02  3.8373615335461603e-02  2.2516731702462368e-02  9.5356600780216860e-03  4.4495532577220965e-03  3.0398411918764559e-03  3.9324407061408608e-03  5.6601314781439399e-03  5.3371810099472018e-03  6.5342539820784093e-03  6.7234761398615537e-03  5.7282766809944423e-03  1.5941716416723799e-03  7.2134989877217250e-04  1.5775579165116477e-34  -9.8991797137077568e-19  8.8977474844142024e-03  9.3624115726148420e-03  9.8392868414087266e-03  7.6637895285927762e-03  1.4132826666139633e-03  1.8736529579286856e-02  6.9077886594025662e-03  1.3261665472498902e-02  6.3875265401776404e-02  9.68918