<?xml version="1.0"?>
<VTKFile type="UnstructuredGrid"  version="0.1"  >
<UnstructuredGrid>
<Piece  NumberOfPoints="40401" NumberOfCells="80000">
<Points>
<DataArray  type="Float64"  NumberOfComponents="3"  format="ascii">0 0 0  0.005 0 0  0.01 0 0  0.015 0 0  0.02 0 0  0.025 0 0  0.03 0 0  0.035 0 0  0.04 0 0  0.045 0 0  0.05 0 0  0.055 0 0  0.06 0 0  0.065 0 0  0.07000000000000001 0 0  0.075 0 0  0.08 0 0  0.08500000000000001 0 0  0.09 0 0  0.095 0 0  0.1 0 0  0.105 0 0  0.11 0 0  0.115 0 0  0.12 0 0  0.125 0 0  0.13 0 0  0.135 0 0  0.14 0 0  0.145 0 0  0.15 0 0  0.155 0 0  0.16 0 0  0.165 0 0  0.17 0 0  0.175 0 0  0.18 0 0  0.185 0 0  0.19 0 0  0.195 0 0  0.2 0 0  0.205 0 0  0.21 0 0  0.215 0 0  0.22 0 0  0.225 0 0  0.23 0 0  0.235 0 0  0.24 0 0  0.245 0 0  0.25 0 0  0.255 0 0  0.26 0 0  0.265 0 0  0.27 0 0  0.275 0 0  0.28 0 0  0.285 0 0  0.29 0 0  0.295 0 0  0.3 0 0  0.305 0 0  0.31 0 0  0.315 0 0  0.32 0 0  0.325 0 0  0.33 0 0  0.335 0 0  0.34 0 0  0.345 0 0  0.35 0 0  0.355 0 0  0.36 0 0  0.365 0 0  0.37 0 0  0.375 0 0  0.38 0 0  0.385 0 0  0.39 0 0  0.395 0 0  0.4 0 0  0.405 0 0  0.41 0 0  0.415 0 0  0.42 0 0  0.425 0 0  0.43 0 0  0.435 0 0  0.44 0 0  0.445 0 0  0.45 0 0  0.455 0 0  0.46 0 0  0.465 0 0  0.47 0 0  0.475 0 0  0.48 0 0  0.485 0 0  0.49 0 0  0.495 0 0  0.5 0 0  0.505 0 0  0.51 0 0  0.515 0 0  0.52 0 0  0.525 0 0  0.53 0 0  0.535 0 0  0.54 0 0  0.545 0 0  0.55 0 0  0.555 0 0  0.5600000000000001 0 0  0.5649999999999999 0 0  0.57 0 0  0.575 0 0  0.58 0 0  0.585 0 0  0.59 0 0  0.595 0 0  0.6 0 0  0.605 0 0  0.61 0 0  0.615 0 0  0.62 0 0  0.625 0 0  0.63 0 0  0.635 0 0  0.64 0 0  0.645 0 0  0.65 0 0  0.655 0 0  0.66 0 0  0.665 0 0  0.67 0 0  0.675 0 0  0.68 0 0  0.6850000000000001 0 0  0.6899999999999999 0 0  0.695 0 0  0.7 0 0  0.705 0 0  0.71 0 0  0.715 0 0  0.72 0 0  0.725 0 0  0.73 0 0  0.735 0 0  0.74 0 0  0.745 0 0  0.75 0 0  0.755 0 0  0.76 0 0  0.765 0 0  0.77 0 0  0.775 0 0  0.78 0 0  0.785 0 0  0.79 0 0  0.795 0 0  0.8 0 0  0.805 0 0  0.8100000000000001 0 0  0.8149999999999999 0 0  0.82 0 0  0.825 0 0  0.83 0 0  0.835 0 0  0.84 0 0  0.845 0 0  0.85 0 0  0.855 0 0  0.86 0 0  0.865 0 0  0.87 0 0  0.875 0 0  0.88 0 0  0.885 0 0  0.89 0 0  0.895 0 0  0.9 0 0  0.905 0 0  0.91 0 0  0.915 0 0  0.92 0 0  0.925 0 0  0.93 0 0  0.9350000000000001 0 0  0.9399999999999999 0 0  0.945 0 0  0.95 0 0  0.955 0 0  0.96 0 0  0.965 0 0  0.97 0 0  0.975 0 0  0.98 0 0  0.985 0 0  0.99 0 0  0.995 0 0  1 0 0  0 0.005 0  0.005 0.005 0  0.01 0.005 0  0.015 0.005 0  0.02 0.005 0  0.025 0.005 0  0.03 0.005 0  0.035 0.005 0  0.04 0.005 0  0.045 0.005 0  0.05 0.005 0  0.055 0.005 0  0.06 0.005 0  0.065 0.005 0  0.07000000000000001 0.005 0  0.075 0.005 0  0.08 0.005 0  0.08500000000000001 0.005 0  0.09 0.005 0  0.095 0.005 0  0.1 0.005 0  0.105 0.005 0  0.11 0.005 0  0.115 0.005 0  0.12 0.005 0  0.125 0.005 0  0.13 0.005 0  0.135 0.005 0  0.14 0.005 0  0.145 0.005 0  0.15 0.005 0  0.155 0.005 0  0.16 0.005 0  0.165 0.005 0  0.17 0.005 0  0.175 0.005 0  0.18 0.005 0  0.185 0.005 0  0.19 0.005 0  0.195 0.005 0  0.2 0.005 0  0.205 0.005 0  0.21 0.005 0  0.215 0.005 0  0.22 0.005 0  0.225 0.005 0  0.23 0.005 0  0.235 0.005 0  0.24 0.005 0  0.245 0.005 0  0.25 0.005 0  0.255 0.005 0  0.26 0.005 0  0.265 0.005 0  0.27 0.005 0  0.275 0.005 0  0.28 0.005 0  0.285 0.005 0  0.29 0.005 0  0.295 0.005 0  0.3 0.005 0  0.305 0.005 0  0.31 0.005 0  0.315 0.005 0  0.32 0.005 0  0.325 0.005 0  0.33 0.005 0  0.335 0.005 0  0.34 0.005 0  0.345 0.005 0  0.35 0.005 0  0.355 0.005 0  0.36 0.005 0  0.365 0.005 0  0.37 0.005 0  0.375 0.005 0  0.38 0.005 0  0.385 0.005 0  0.39 0.005 0  0.395 0.005 0  0.4 0.005 0  0.405 0.005 0  0.41 0.005 0  0.415 0.005 0  0.42 0.005 0  0.425 0.005 0  0.43 0.005 0  0.435 0.005 0  0.44 0.005 0  0.445 0.005 0  0.45 0.005 0  0.455 0.005 0  0.46 0.005 0  0.465 0.005 0  0.47 0.005 0  0.475 0.005 0  0.48 0.005 0  0.485 0.005 0  0.49 0.005 0  0.495 0.005 0  0.5 0.005 0  0.505 0.005 0  0.51 0.005 0  0.515 0.005 0  0.52 0.005 0  0.525 0.005 0  0.53 0.005 0  0.535 0.005 0  0.54 0.005 0  0.545 0.005 0  0.55 0.005 0  0.555 0.005 0  0.5600000000000001 0.005 0  0.5649999999999999 0.005 0  0.57 0.005 0  0.575 0.005 0  0.58 0.005 0  0.585 0.005 0  0.59 0.005 0  0.595 0.005 0  0.6 0.005 0  0.605 0.005 0  0.61 0.005 0  0.615 0.005 0  0.62 0.005 0  0.625 0.005 0  0.63 0.005 0  0.635 0.005 0  0.64 0.005 0  0.645 0.005 0  0.65 0.005 0  0.655 0.005 0  0.66 0.005 0  0.665 0.005 0  0.67 0.005 0  0.675 0.005 0  0.68 0.005 0  0.6850000000000001 0.005 0  0.6899999999999999 0.005 0  0.695 0.005 0  0.7 0.005 0  0.705 0.005 0  0.71 0.005 0  0.715 0.005 0  0.72 0.005 0  0.725 0.005 0  0.73 0.005 0  0.735 0.005 0  0.74 0.005 0  0.745 0.005 0  0.75 0.005 0  0.755 0.005 0  0.76 0.005 0  0.765 0.005 0  0.77 0.005 0  0.775 0.005 0  0.78 0.005 0  0.785 0.005 0  0.79 0.005 0  0.795 0.005 0  0.8 0.005 0  0.805 0.005 0  0.8100000000000001 0.005 0  0.8149999999999999 0.005 0  0.82 0.005 0  0.825 0.005 0  0.83 0.005 0  0.835 0.005 0  0.84 0.005 0  0.845 0.005 0  0.85 0.005 0  0.855 0.005 0  0.86 0.005 0  0.865 0.005 0  0.87 0.005 0  0.875 0.005 0  0.88 0.005 0  0.885 0.005 0  0.89 0.005 0  0.895 0.005 0  0.9 0.005 0  0.905 0.005 0  0.91 0.005 0  0.915 0.005 0  0.92 0.005 0  0.925 0.005 0  0.93 0.005 0  0.9350000000000001 0.005 0  0.9399999999999999 0.005 0  0.945 0.005 0  0.95 0.005 0  0.955 0.005 0  0.96 0.005 0  0.965 0.005 0  0.97 0.005 0  0.975 0.005 0  0.98 0.005 0  0.985 0.005 0  0.99 0.005 0  0.995 0.005 0  1 0.005 0  0 0.01 0  0.005 0.01 0  0.01 0.01 0  0.015 0.01 0  0.02 0.01 0  0.025 0.01 0  0.03 0.01 0  0.035 0.01 0  0.04 0.01 0  0.045 0.01 0  0.05 0.01 0  0.055 0.01 0  0.06 0.01 0  0.065 0.01 0  0.07000000000000001 0.01 0  0.075 0.01 0  0.08 0.01 0  0.08500000000000001 0.01 0  0.09 0.01 0  0.095 0.01 0  0.1 0.01 0  0.105 0.01 0  0.11 0.01 0  0.115 0.01 0  0.12 0.01 0  0.125 0.01 0  0.13 0.01 0  0.135 0.01 0  0.14 0.01 0  0.145 0.01 0  0.15 0.01 0  0.155 0.01 0  0.16 0.01 0  0.165 0.01 0  0.17 0.01 0  0.175 0.01 0  0.18 0.01 0  0.185 0.01 0  0.19 0.01 0  0.195 0.01 0  0.2 0.01 0  0.205 0.01 0  0.21 0.01 0  0.215 0.01 0  0.22 0.01 0  0.225 0.01 0  0.23 0.01 0  0.235 0.01 0  0.24 0.01 0  0.245 0.01 0  0.25 0.01 0  0.255 0.01 0  0.26 0.01 0  0.265 0.01 0  0.27 0.01 0  0.275 0.01 0  0.28 0.01 0  0.285 0.01 0  0.29 0.01 0  0.295 0.01 0  0.3 0.01 0  0.305 0.01 0  0.31 0.01 0  0.315 0.01 0  0.32 0.01 0  0.325 0.01 0  0.33 0.01 0  0.335 0.01 0  0.34 0.01 0  0.345 0.01 0  0.35 0.01 0  0.355 0.01 0  0.36 0.01 0  0.365 0.01 0  0.37 0.01 0  0.375 0.01 0  0.38 0.01 0  0.385 0.01 0  0.39 0.01 0  0.395 0.01 0  0.4 0.01 0  0.405 0.01 0  0.41 0.01 0  0.415 0.01 0  0.42 0.01 0  0.425 0.01 0  0.43 0.01 0  0.435 0.01 0  0.44 0.01 0  0.445 0.01 0  0.45 0.01 0  0.455 0.01 0  0.46 0.01 0  0.465 0.01 0  0.47 0.01 0  0.475 0.01 0  0.48 0.01 0  0.485 0.01 0  0.49 0.01 0  0.495 0.01 0  0.5 0.01 0  0.505 0.01 0  0.51 0.01 0  0.515 0.01 0  0.52 0.01 0  0.525 0.01 0  0.53 0.01 0  0.535 0.01 0  0.54 0.01 0  0.545 0.01 0  0.55 0.01 0  0.555 0.01 0  0.5600000000000001 0.01 0  0.5649999999999999 0.01 0  0.57 0.01 0  0.575 0.01 0  0.58 0.01 0  0.585 0.01 0  0.59 0.01 0  0.595 0.01 0  0.6 0.01 0  0.605 0.01 0  0.61 0.01 0  0.615 0.01 0  0.62 0.01 0  0.625 0.01 0  0.63 0.01 0  0.635 0.01 0  0.64 0.01 0  0.645 0.01 0  0.65 0.01 0  0.655 0.01 0  0.66 0.01 0  0.665 0.01 0  0.67 0.01 0  0.675 0.01 0  0.68 0.01 0  0.6850000000000001 0.01 0  0.6899999999999999 0.01 0  0.695 0.01 0  0.7 0.01 0  0.705 0.01 0  0.71 0.01 0  0.715 0.01 0  0.72 0.01 0  0.725 0.01 0  0.73 0.01 0  0.735 0.01 0  0.74 0.01 0  0.745 0.01 0  0.75 0.01 0  0.755 0.01 0  0.76 0.01 0  0.765 0.01 0  0.77 0.01 0  0.775 0.01 0  0.78 0.01 0  0.785 0.01 0  0.79 0.01 0  0.795 0.01 0  0.8 0.01 0  0.805 0.01 0  0.8100000000000001 0.01 0  0.8149999999999999 0.01 0  0.82 0.01 0  0.825 0.01 0  0.83 0.01 0  0.835 0.01 0  0.84 0.01 0  0.845 0.01 0  0.85 0.01 0  0.855 0.01 0  0.86 0.01 0  0.865 0.01 0  0.87 0.01 0  0.875 0.01 0  0.88 0.01 0  0.885 0.01 0  0.89 0.01 0  0.895 0.01 0  0.9 0.01 0  0.905 0.01 0  0.91 0.01 0  0.915 0.01 0  0.92 0.01 0  0.925 0.01 0  0.93 0.01 0  0.9350000000000001 0.01 0  0.9399999999999999 0.01 0  0.945 0.01 0  0.95 0.01 0  0.955 0.01 0  0.96 0.01 0  0.965 0.01 0  0.97 0.01 0  0.975 0.01 0  0.98 0.01 0  0.985 0.01 0  0.99 0.01 0  0.995 0.01 0  1 0.01 0  0 0.015 0  0.005 0.015 0  0.01 0.015 0  0.015 0.015 0  0.02 0.015 0  0.025 0.015 0  0.03 0.015 0  0.035 0.015 0  0.04 0.015 0  0.045 0.015 0  0.05 0.015 0  0.055 0.015 0  0.06 0.015 0  0.065 0.015 0  0.07000000000000001 0.015 0  0.075 0.015 0  0.08 0.015 0  0.08500000000000001 0.015 0  0.09 0.015 0  0.095 0.015 0  0.1 0.015 0  0.105 0.015 0  0.11 0.015 0  0.115 0.015 0  0.12 0.015 0  0.125 0.015 0  0.13 0.015 0  0.135 0.015 0  0.14 0.015 0  0.145 0.015 0  0.15 0.015 0  0.155 0.015 0  0.16 0.015 0  0.165 0.015 0  0.17 0.015 0  0.175 0.015 0  0.18 0.015 0  0.185 0.015 0  0.19 0.015 0  0.195 0.015 0  0.2 0.015 0  0.205 0.015 0  0.21 0.015 0  0.215 0.015 0  0.22 0.015 0  0.225 0.015 0  0.23 0.015 0  0.235 0.015 0  0.24 0.015 0  0.245 0.015 0  0.25 0.015 0  0.255 0.015 0  0.26 0.015 0  0.265 0.015 0  0.27 0.015 0  0.275 0.015 0  0.28 0.015 0  0.285 0.015 0  0.29 0.015 0  0.295 0.015 0  0.3 0.015 0  0.305 0.015 0  0.31 0.015 0  0.315 0.015 0  0.32 0.015 0  0.325 0.015 0  0.33 0.015 0  0.335 0.015 0  0.34 0.015 0  0.345 0.015 0  0.35 0.015 0  0.355 0.015 0  0.36 0.015 0  0.365 0.015 0  0.37 0.015 0  0.375 0.015 0  0.38 0.015 0  0.385 0.015 0  0.39 0.015 0  0.395 0.015 0  0.4 0.015 0  0.405 0.015 0  0.41 0.015 0  0.415 0.015 0  0.42 0.015 0  0.425 0.015 0  0.43 0.015 0  0.435 0.015 0  0.44 0.015 0  0.445 0.015 0  0.45 0.015 0  0.455 0.015 0  0.46 0.015 0  0.465 0.015 0  0.47 0.015 0  0.475 0.015 0  0.48 0.015 0  0.485 0.015 0  0.49 0.015 0  0.495 0.015 0  0.5 0.015 0  0.505 0.015 0  0.51 0.015 0  0.515 0.015 0  0.52 0.015 0  0.525 0.015 0  0.53 0.015 0  0.535 0.015 0  0.54 0.015 0  0.545 0.015 0  0.55 0.015 0  0.555 0.015 0  0.5600000000000001 0.015 0  0.
[...]
<PointData  Scalars="Indicator Function"> 
<DataArray  type="Float64"  Name="Indicator Function"  format="ascii">2.4074124304840448e-35  3.8305336495411035e-19  5.2074332091079510e-19  5.7176592512905937e-18  2.6881192097207751e-18  -4.2058355390225612e-20  -3.4354406785086317e-20  3.7540660129860976e-19  1.8685178136962759e-17  -2.0651341461837850e-20  3.7552821192817052e-19  2.8518904843523454e-17  -3.6801592919975196e-21  -1.8400796459999176e-21  3.0447865815620629e-17  -8.4771114212224457e-20  -6.4173950525479855e-20  3.1445235757485941e-18  -3.8427729571830338e-20  -1.0111132208032988e-33  -4.6909538782788379e-18  -4.2947937898522224e-20  -1.1299241649095669e-19  1.1143917336870231e-17  -4.8321924111380657e-20  -1.6183012734886795e-20  -1.7543109298665577e-19  -1.3270780997553105e-19  -3.0698177810921643e-18  -6.0185310762101120e-36  -1.7778869213456915e-19  -2.1519880138153112e-19  2.4074124304840448e-35  -1.0328347751400776e-19  1.3844545057284744e-16  -1.2284632076133084e-19  -1.8048602659374724e-19  -2.6911581063326593e-19  -5.5142455158801596e-21  -1.6370404527291505e-33  2.0810729257982821e-17  9.6296497219361793e-35  -5.0285328036044952e-20  -1.0648996861240830e-19  -6.8882035663231379e-20  -2.8371243301597939e-20  2.8250782058263011e-16  -1.2749354038191925e-19  -2.6153095886200807e-19  -1.3076547943100413e-19  -1.9284385417506483e-19  -1.9735488983172419e-19  -1.8061258998238432e-19  -3.4603456969127865e-19  -1.7301728484563940e-19  -1.9271237228721950e-19  8.0591232488445119e-16  -1.2105350563785205e-19  -1.7397663345644759e-19  -2.6976201951601374e-19  -1.8132921303343036e-19  -3.8006857885105826e-19  -1.3763213609804170e-19  -3.3119042614812379e-19  -2.2019960112989666e-19  -3.0802312638303248e-19  -4.0679897849297847e-19  -9.2387261940779726e-20  1.9754350084994271e-17  -4.8640572966490118e-19  -5.2019389187954880e-19  -2.5697462146826301e-19  -2.2547213582756149e-19  -5.5432539211744901e-19  -8.4492049336585209e-19  -1.0116976676549406e-18  -1.0855108216089658e-18  -1.1083709303056244e-18  -1.0316566314408839e-18  -8.5526067832365228e-19  -4.5819179866381233e-19  1.9503706292996996e-16  -2.7736576871051401e-19  -4.3713058412273834e-19  -2.9188887625832261e-19  -2.7873343473093530e-19  -1.9034806019028431e-19  -2.2922698028328142e-19  -1.1461349014164066e-19  -2.5766052727073892e-19  -1.2669876160920309e-19  -1.5697180264420070e-19  -1.0688111490798239e-19  3.0957723823044427e-16  -6.0706370496259094e-20  -2.3004233604311366e-20  3.0092655381050560e-36  -1.6216284290428581e-22  -2.5352568003856018e-20  -4.0882385597078177e-20  1.6397276289034410e-16  3.0494705759099534e-16  2.8800798619435655e-17  -1.6105892796675649e-17  1.0191511202026600e-16  3.9727115944638743e-17  1.0264700847825928e-16  1.1217384453066534e-16  1.4847232565042607e-17  3.8802145764184448e-17  1.2325951644078309e-31  2.0847234907418485e-18  4.9135663864371618e-36  -3.4907480242018650e-33  3.9616197616369711e-20  -1.0940461830670861e-21  1.5764134957477528e-19  5.3485184490453280e-21  1.2815093213677881e-19  5.5668502740222070e-21  1.1387509844339948e-19  5.0875328728237887e-21  1.0694084953297942e-19  9.7458769712087522e-21  4.3223486244461362e-20  6.3852551966720248e-20  1.2348418119764150e-21  -6.2208956109360285e-21  2.5773837944290303e-20  -1.7428900688745319e-21  3.2712415763072292e-20  3.4025934238862630e-21  3.6841697060335645e-20  3.8650185236013595e-20  4.8899496660364582e-21  -2.3446271570634990e-23  8.8510417948363563e-20  -4.2267229786568694e-23  6.0085395865683484e-20  4.1315426017870689e-20  1.9579945683618896e-19  1.9270828836939436e-20  1.7254241531162172e-20  2.1958579225447287e-19  1.9257519297088993e-20  3.0757304798525860e-19  4.7777230427594634e-19  3.6541621118751697e-19  1.0083954275770213e-18  2.0368225857249495e-19  3.0557132606065491e-20  1.8991843555885686e-18  4.5641016025827259e-19  1.3628854532699700e-19  -2.0272312049988111e-20  1.9747188121038179e-19  4.1151784256808837e-20  1.4985783559577140e-20  7.4350815129754784e-20  -2.4396642154268369e-20  1.7172246262807978e-19  -1.3620656176553656e-20  -8.0048075070275092e-23  1.6663103887335461e-19  7.9841870155521087e-20  5.1238785384412671e-19  4.6575484431685809e-20  -1.3802934498414576e-21  2.3823390794291194e-19  4.8427437034787827e-20  2.6242085364171162e-19  4.2454644759774362e-20  1.3091292861690260e-19  2.3165772875014262e-20  5.2882080613666930e-20  1.0215202373148650e-20  2.2407854497851294e-20  4.0717593372717759e-21  1.0908810948651738e-20  2.2169193875881164e-21  1.4651012830164700e-21  4.2723049284827785e-21  2.0836360253862175e-22  2.2932370528884801e-21  -5.8872928544113084e-23  1.0905286673061326e-21  -1.3725817053889832e-22  -2.9957307077123264e-24  2.4901426487079085e-22  -7.7493466404266033e-23  5.6041540326623090e-23  2.1582878087068431e-22  6.9903669616110515e-23  7.2281292533414257e-22  7.5679595085785403e-23  7.1129470671453554e-22  1.3211641413649412e-22  9.4158084032577214e-22  4.9463985217881674e-22  3.9292978029580324e-22  -5.6938007617954551e-39  2.1064858766735392e-35  2.9956788202176150e-04  2.8277115210947754e-04  5.6740010678942433e-04  9.0545956530955183e-04  6.3403717236511236e-04  7.5765597465294373e-04  6.1887397438339399e-04  8.3283901558283367e-04  7.4404298969786803e-04  1.8555755103503695e-04  2.6249936036863399e-04  1.4603891415636516e-04  6.6295856064416350e-05  2.5640217152730722e-03  2.3586329730382531e-03  1.5271006335118231e-03  1.1560551186937922e-03  1.3845048686431135e-03  6.8099986095614194e-04  1.5839352573884698e-03  1.5473625369289267e-03  1.5371648370312318e-03  2.0354904192174733e-03  1.7409807953747149e-03  5.8305448098054441e-04  2.2911278177294410e-03  4.3919055695359746e-03  1.9030434419415338e-03  1.6637760294247533e-03  6.4055127011834667e-03  8.6331367857829047e-05  3.8766769668497642e-03  3.7211794467650857e-03  1.9508061142272006e-03  4.4260051552365261e-03  6.5026944169054492e-03  1.9774987724256090e-03  4.8479594579499416e-03  9.9335816202189477e-05  7.4288883438525482e-04  4.6865875571051825e-04  1.8117198768426799e-03  3.8367054636923078e-03  2.4817368811635991e-03  3.1861362961144889e-04  3.5178406823877808e-04  9.2406036638042522e-04  2.2967194438246264e-03  4.7113229155071523e-03  6.9479320784280934e-03  7.1104592664471894e-03  4.4846759796383249e-03  1.0112891819531822e-03  6.2336046364758089e-03  6.9431949441795928e-03  2.7861114909610738e-03  4.3614121830601784e-03  6.2681688128450458e-03  4.4052175993690060e-04  6.5330734099899365e-03  3.7759730911853442e-03  4.9587202947627661e-03  3.8203627046884520e-03  4.0560149668132381e-03  1.9387558829763170e-03  7.9992740084415294e-03  3.3286019076019411e-03  2.5068631739657414e-03  4.3400035829347459e-03  6.5923048600115171e-03  6.0748276405108142e-03  1.5918294176971656e-03  4.0617449075817432e-03  7.9549660637377173e-03  1.1243251444451726e-02  1.2603499234023692e-02  1.3253074909807271e-02  1.3340098179947163e-02  1.1914624593752280e-02  9.4496943919360112e-03  3.5292024589382433e-03  1.0318255004821970e-03  4.4806647401989096e-03  5.6343121729701901e-03  2.4410464509172021e-03  5.0212151711597547e-03  9.1839822619476784e-04  4.1293861719482001e-03  1.5359090769251859e-04  4.5648039645720812e-03  5.6555052151687768e-03  3.8507979941800673e-03  2.9679258969899148e-03  1.2317699162837754e-03  1.0935887501838707e-03  4.1440743155328209e-04  5.8425321510168998e-06  9.1342252652040919e-04  7.1072750416251076e-04  3.8110783408285465e-04  1.0576495314972225e-03  1.3067138762715431e-03  7.2625274390576548e-04  1.9134757042579760e-04  1.3041859975407655e-04  2.2785863547061003e-05  7.3521918749382633e-05  6.9389720507439558e-04  2.0682215777557693e-05  5.1250406391265419e-05  5.5029702982890498e-05  5.2607784578214811e-06  2.6494507647968788e-06  2.1249331707956769e-06  2.0638470905006756e-06  2.1156431419432629e-06  1.9488438728156552e-06  1.7068275439702377e-06  1.5073221471771617e-06  1.2549313443462273e-06  1.1066950192180707e-06  8.7610445466334276e-07  6.6891584940460431e-07  2.2773217569719228e-07  2.5820197956623459e-07  2.0999142362536545e-07  1.3589053536994962e-07  4.1774335063645098e-07  6.0426445154998250e-07  6.8317285936617138e-07  6.6284196552291453e-07  5.0878463524359679e-07  1.7530131669321076e-07  2.0115185793737929e-07  4.2112417305318165e-07  4.2251071372075048e-07  1.7471511860757688e-07  6.7406116196330269e-07  1.5239277504835734e-06  3.3827042129828626e-06  5.3887960721191785e-06  6.2499410527206602e-06  5.4674662353325436e-06  4.9854882281907061e-06  4.1151311910428158e-06  5.4257341276858638e-07  1.2499593529054840e-06  4.8119126871624342e-06  1.6100927136083935e-05  2.5253834415254855e-05  2.3874423903685322e-05  1.0825899957653117e-05  2.4113333599191126e-06  8.5462096127151289e-06  9.7785954169540362e-06  8.8676258964881446e-06  6.9964946644593146e-06  5.0904217277258854e-06  3.5992221357597006e-06  2.4959960229396315e-06  1.8284967124066149e-06  1.2127912707035805e-06  1.0670348567192031e-06  2.8245798005993478e-06  6.4168072426584283e-06  1.0064020712437273e-05  1.2149014029858264e-05  1.2206908856833678e-05  1.0729415337663644e-05  8.5332321177249834e-06  6.2863529816301079e-06  4.3627168040592010e-06  2.8881407800563582e-06  1.8391055396820284e-06  1.1302106206772543e-06  6.6796082637807219e-07  3.7378792440564794e-07  1.8973606263633055e-07  7.6432518202774161e-08  8.2858667774735933e-09  3.1086147359327094e-08  5.2116360429855778e-08  6.1435077406825221e-08  6.3303823427769256e-08  6.0573292657951248e-08  5.5290913623045253e-08  4.9040241524092148e-08  4.3058458359624098e-08  3.8168681884066508e-08  3.4630975567493138e-08  3.2059918159569524e-08  2.9563852230098232e-08  2.6376509996299787e-08  2.2652599820269901e-08  1.9214179725420321e-08  1.6378678155979659e-08  1.0397669268855138e-08  4.0693677800082478e-09  4.7726629029244553e-10  -4.4999393117415694e-39  3.0092655381050560e-35  9.5776166097796475e-04  1.1962694662860471e-03  4.4991628429402627e-04  1.0847883013704236e-03  1.2118155166972115e-03  1.2357882955692446e-04  2.8892154481942977e-03  4.1853952410378239e-05  2.2833245657282683e-03  1.5838347388390807e-03  2.2584261511998569e-03  4.3106886216376251e-03  1.9504423305356660e-03  9.2046645097489544e-04  2.3357194783302578e-03  3.4945648417190130e-03  6.6986889657097756e-03  2.3271335319929509e-03  7.1316340586363681e-04  3.3187800527251237e-03  8.2041727383393853e-03  2.8202483005264336e-03  4.5631965017863697e-03  2.6178005000109263e-03  4.1240709122324862e-03  3.4127466738203497e-04  2.6450344275353974e-03  3.8276386044714506e-04  1.0094004528487027e-02  9.6759011662981371e-04  4.6115699608871357e-03  9.0201636017553273e-03  3.9552813179803909e-03  9.9266699913963009e-03  5.2662365669636927e-03  6.7654791996965243e-04  3.0868465249449999e-04  8.4727420887893163e-03  3.8667040150833394e-03  7.0837885759263159e-03  1.1148148249846312e-02  1.0056716763179567e-02  1.0954297545336196e-02  1.4518836210198671e-02  1.3323220424925593e-02  9.1084487348803162e-03  9.7249020389649291e-03  1.3390157314089862e-02  1.3385616125140757e-02  6.6620106906432851e-03  4.1528394933076042e-03  1.3413154512961038e-02  1.7858140570706702e-02  1.5375515997830937e-02  6.6017688937404350e-03  4.4457560328387338e-03  1.2070799249708344e-02  6.1383581335828540e-03  6.2856554287547871e-03  7.1282519880921293e-03  8.0851404285694258e-03  1.6293402493747972e-02  3.3146404576831893e-03  5.7108376760158508e-03  7.5916416118069815e-03  7.3463631532447796e-03  1.2386680387063587e-02  3.1902986549146072e-03  7.7088736603574551e-03  6.1292253126849234e-03  8.6197222022356430e-03  4.8418538398889268e-03  2.3568576398585567e-03  9.4116319290470183e-03  1.5033548423075091e-02  1.5729768355645001e-02  1.8612591958635596e-02  1.7463521363577039e-02  1.8828925967429515e-02  1.3796502906922361e-02  8.4946348790849290e-03  3.1129455635801336e-04  4.2949531560574688e-03  6.7579218860091697e-03  7.5843688234594076e-03  4.7218510393698581e-03  6.9437586610807296e-03  7.0518552228315485e-03  3.4724960698797559e-03  7.6618668678635968e-03  3.8834159477863519e-03  6.8519012372472173e-05  8.8167181567200931e-04  1.3400548201346000e-03  2.9054481690157377e-03  2.1494628130098985e-03  1.4795516909426459e-03  6.8469745217067119e-04  1.8558802817942466e-03  3.0159603467193497e-03  2.3229125952896092e-03  7.4626338400300349e-04  1.0545088020043432e-03  1.5831924743570055e-03  1.1207226431347473e-03  9.3508313401410913e-04  8.2786978658438352e-04  9.6666066489706931e-04  4.8679375140962513e-04  1.9795781055856028e-04  1.5748792314121990e-04  4.6936131636546403e-05  2.8039585529195984e-06  3.9577481979726103e-06  2.9024208819900475e-06  2.8472763275053903e-06  2.7622307743865435e-06  2.4281014866581592e-06  2.1810123732788168e-06  1.8410522299298544e-06  1.5663055010059164e-06  1.3177633048483793e-06  9.8232164464511602e-07  6.0202174037496401e-07  2.1377168392469314e-07  5.3779564197788358e-07  9.6272848846631807e-08  3.7867748300199045e-07  6.7017930406872259e-07  8.4018169781032837e-07  8.6461029567547206e-07  7.3802648313795001e-07  3.9008521966201024e-07  1.8455702489531238e-07  5.6511437773049059e-07  7.5841405729832477e-07  2.6346906281843865e-07  7.3722624392784203e-07  1.4086907896712616e-06  3.4573259964213800e-06  6.4763888663515860e-06  8.6449060489760385e-06  8.2590003942872877e-06  6.7980911276785410e-06  6.6633242937716311e-06  3.5504181320543215e-06  1.7674388967158153e-06  1.5408733992388975e-06  1.5974157315807909e-05  3.1554205642584934e-05  3.7040529935258251e-05  2.3741579960179028e-05  2.1079005678689849e-06  1.0242026159202089e-05  1.3137069047647960e-05  1.2733060180766459e-05  1.0835186474962379e-05  8.2102188454564976e-06  5.9399141492463528e-06  4.1779741095873552e-06  2.9968904770875368e-06  2.2375472710079111e-06  1.5027459805871717e-06  2.5921298646136144e-06  6.8784775476188603e-06  1.2415971071077562e-05  1.6351991698776429e-05  1.7416277779006710e-05  1.5992989113702963e-05  1.3191915906402236e-05  1.0039771411151196e-05  7.1736795561759757e-06  4.8711532237012487e-06  3.1702265076136913e-06  1.9861423210104706e-06  1.1964777904381119e-06  6.8614665163325243e-07  3.6376072663498906e-07  1.6393055196572810e-07  4.2863020108586161e-08  2.7927341217811881e-08  6.6760453598789083e-08  8.5315533310072512e-08  9.1040139923369662e-08  8.8812461914206769e-08  8.2035829938142203e-08  7.3266009500022007e-08  6.4469150908402663e-08  5.7036909096443447e-08  5.1641330113735652e-08  4.8015384363266544e-08  4.5019467214661357e-08  4.1277560607640465e-08  3.6163285537407894e-08  3.0802938191425814e-08  2.6702773785136847e-08  2.0905002592441877e-08  1.0418300188310491e-08  2.4908356920322803e-09  -5.6019652656374639e-38  -2.5908276682543827e-21  3.0755494869006881e-04  5.1824123202542417e-04  4.1609746245043660e-04  1.0618772505191800e-03  3.2595577098404986e-03  1.2399825124147852e-05  2.7911005418755426e-03  3.2057403202046452e-03  1.8589219975702770e-03  3.4083273274531137e-03  1.2717077407479415e-03  2.1875550588436148e-03  2.5725626022206193e-03  5.2406510194582992e-04  3.6516072146666485e-03  6.5212478291495233e-03  7.5380504527717846e-03  5.6801624130512502e-03  3.4409526312631153e-03  2.7934051561441416e-03  4.5566018217897919e-04  1.0077911476976541e-03  4.1299712582362298e-03  7.0990568781328827e-03  2.5440538993750869e-04  1.2240553552129321e-03  4.8155047282611154e-03  1.1159718478205218e-02  1.2736767270775376e-03  5.5605028906375378e-03  1.0219344597895733e-02  4.8810270888733779e-03  1.1625945358461960e-02  1.7397218272787302e-03  2.2806888762777959e-03  7.8604988089692931e-03  1.5357887319834946e-02  1.0077281366895051e-02  1.3783751514946032e-02  5.9517814578518916e-03  2.6964247449174803e-03  5.3112696119575276e-03  2.4841494881497291e-03  2.6087233644337287e-03  7.8355377036065600e-04  3.6034782155035089e-03  5.3667762497103845e-03  7.6553180148970102e-03  1.1940709745568667e-02  1.6533080853904640e-02  1.8655504733611206e-02  1.5322945976759272e-02  6.3743651525047639e-03  7.5170008815354872e-03  1.9896926729164283e-02  2.0571997067466402e-02  7.2008009239428045e-03  1.2417811972523665e-02  1.7608975603646368e-02  2.4754385782794854e-03  1.4334156978724153e-02  7.9958702133394680e-03  1.3052866110087815e-02  1.2928655461492905e-02  5.4784391063653235e-03  2.6870578685997929e-03  1.7911693611658300e-02  3.7184816432389604e-03  8.9595554410960652e-03  7.8584246895362243e-03  9.1468455217746762e-03  7.9867274436681915e-03  4.6446496999375805e-04  8.7571181350302660e-03  1.2982267934108735e-02  1.8311592404284423e-02  1.8751248069254753e-02  2.0449756092800832e-02  1.9674445960338936e-02  1.8096686628614848e-02  1.3242229586466229e-02  2.9879355312741906e-03  3.1896086343194056e-03  7.0495736742926642e-03  7.4515945206037690e-03  2.9733262956551901e-03  1.2050282409466255e-02  4.9476729989278713e-05  1.1824637251902807e-02  2.0745622007344571e-03  1.2480566109596929e-02  1.6480803540383605e-02  1.1617166419587772e-02  8.6177323317786266e-03  5.1498249978598337e-03  4.1928033882019907e-03  2.4353904115257331e-03  9.1549484137617705e-04  1.3410183319031847e-03  1.0434529429355335e-03  1.5981427702190187e-03  3.4191874007926206e-03  3.4971402301042709e-03  1.7397372835449313e-03  5.4548075886635734e-05  2.5528817195889553e-04  3.4584353147477329e-04  5.2263657186081656e-04  1.6948919959102937e-03  3.3255733703852045e-04  6.7316656964783441e-05  1.9222351992638744e-04  2.3090261420850879e-05  7.2664772713585821e-06  6.3050283347473713e-06  4.6329853142874544e-06  4.0502465188956994e-06  3.4771625469689542e-06  2.9157762444414794e-06  2.5341315080888008e-06  2.0069731877354726e-06  1.7324807760196165e-06  1.2876568802296156e-06  9.2914496996142749e-07  1.8153549222747962e-07  6.9748256029762243e-07  4.9469829924631324e-07  1.7459155919029945e-07  5.6668889387688234e-07  7.8912054723800248e-07  8.6898963392171176e-07  8.0610430470142337e-07  5.3409948679210163e-07  2.9719854406025062e-08  6.4998455637861124e-07  9.0071886409548151e-07  8.6200510132092728e-07  3.1766464308041721e-07  1.1610434475725887e-06  2.4261795563196073e-06  5.7018538323121331e-06  8.9941692894277780e-06  1.0015927352140213e-05  8.0268050641765247e-06  7.2398865851867825e-06  6.4802646260332831e-06  2.4878916652045054e-07  2.6292901800355596e-06  9.5221175717182570e-06  2.9317487155030156e-05  4.2583750910049692e-05  3.6669824624487683e-05  1.1503755413022540e-05  9.3634843470933078e-06  1.4754602544699620e-05  1.4010862209648674e-05  1.2544205751379920e-05  1.0171862292671082e-05  7.5779628507546376e-06  5.5375736199855079e-06  3.9296735346055199e-06  3.0119870439568375e-06  2.1128217103959728e-06  1.9000336066325205e-06  5.1980892385787119e-06  1.1545625480609938e-05  1.7230844386886027e-05  1.9707577851305901e-05  1.8917091100090720e-05  1.6122280831228398e-05  1.2645750310862410e-05  9.3255961941287876e-06  6.5460193700809961e-06  4.4085463664371343e-06  2.8621564345353524e-06  1.7929407968289028e-06  1.0789934448773725e-06  6.1482891285023047e-07  3.1925628242112718e-07  1.3490989664251197e-07  2.3111202043477105e-08  4.1772319006961603e-08  7.6507929170209438e-08  9.1945694814343176e-08  9.5166664199617177e-08  9.0989654847694690e-08  8.2933182733507190e-08  7.3727027514897182e-08  6.5434052721432657e-08  5.9285518831209542e-08  5.5453380610072525e-08  5.2963000757105473e-08  5.0031896020808477e-08  4.5336432058706155e-08  3.9352262983097393e-08  3.3921511271733143e-08  3.0091801699048392e-08  1.9748760894518786e-08  7.7328307073628516e-09  -1.0721184067914218e-24  -1.2037062152420224e-34  4.6672202085326964e-05  5.5933790033549878e-04  2.2673223525147327e-03  3.8957961712430276e-04  8.1035145075677883e-05  7.0291460309885592e-04  1.1781683939258943e-03  2.5697185894684254e-03  6.6928186845075194e-04  1.9962272123878696e-03  1.9948795414633730e-03  2.6123136310735560e-03  5.6333426476820837e-03  3.7542176673264222e-03  8.3647201303723839e-04  6.1083845309026722e-03  3.6453506565287678e-04  7.7073780640619250e-03  4.0682143146568229e-03  2.726008233