<?xml version="1.0"?>
<VTKFile type="UnstructuredGrid"  version="0.1"  >
<UnstructuredGrid>
<Piece  NumberOfPoints="676" NumberOfCells="1250">
<Points>
<DataArray  type="Float64"  NumberOfComponents="3"  format="ascii">0 0 0  0.04 0 0  0.08 0 0  0.12 0 0  0.16 0 0  0.2 0 0  0.24 0 0  0.28 0 0  0.32 0 0  0.36 0 0  0.4 0 0  0.44 0 0  0.48 0 0  0.52 0 0  0.5600000000000001 0 0  0.6 0 0  0.64 0 0  0.68 0 0  0.72 0 0  0.76 0 0  0.8 0 0  0.84 0 0  0.88 0 0  0.92 0 0  0.96 0 0  1 0 0  0 0.04 0  0.04 0.04 0  0.08 0.04 0  0.12 0.04 0  0.16 0.04 0  0.2 0.04 0  0.24 0.04 0  0.28 0.04 0  0.32 0.04 0  0.36 0.04 0  0.4 0.04 0  0.44 0.04 0  0.48 0.04 0  0.52 0.04 0  0.5600000000000001 0.04 0  0.6 0.04 0  0.64 0.04 0  0.68 0.04 0  0.72 0.04 0  0.76 0.04 0  0.8 0.04 0  0.84 0.04 0  0.88 0.04 0  0.92 0.04 0  0.96 0.04 0  1 0.04 0  0 0.08 0  0.04 0.08 0  0.08 0.08 0  0.12 0.08 0  0.16 0.08 0  0.2 0.08 0  0.24 0.08 0  0.28 0.08 0  0.32 0.08 0  0.36 0.08 0  0.4 0.08 0  0.44 0.08 0  0.48 0.08 0  0.52 0.08 0  0.5600000000000001 0.08 0  0.6 0.08 0  0.64 0.08 0  0.68 0.08 0  0.72 0.08 0  0.76 0.08 0  0.8 0.08 0  0.84 0.08 0  0.88 0.08 0  0.92 0.08 0  0.96 0.08 0  1 0.08 0  0 0.12 0  0.04 0.12 0  0.08 0.12 0  0.12 0.12 0  0.16 0.12 0  0.2 0.12 0  0.24 0.12 0  0.28 0.12 0  0.32 0.12 0  0.36 0.12 0  0.4 0.12 0  0.44 0.12 0  0.48 0.12 0  0.52 0.12 0  0.5600000000000001 0.12 0  0.6 0.12 0  0.64 0.12 0  0.68 0.12 0  0.72 0.12 0  0.76 0.12 0  0.8 0.12 0  0.84 0.12 0  0.88 0.12 0  0.92 0.12 0  0.96 0.12 0  1 0.12 0  0 0.16 0  0.04 0.16 0  0.08 0.16 0  0.12 0.16 0  0.16 0.16 0  0.2 0.16 0  0.24 0.16 0  0.28 0.16 0  0.32 0.16 0  0.36 0.16 0  0.4 0.16 0  0.44 0.16 0  0.48 0.16 0  0.52 0.16 0  0.5600000000000001 0.16 0  0.6 0.16 0  0.64 0.16 0  0.68 0.16 0  0.72 0.16 0  0.76 0.16 0  0.8 0.16 0  0.84 0.16 0  0.88 0.16 0  0.92 0.16 0  0.96 0.16 0  1 0.16 0  0 0.2 0  0.04 0.2 0  0.08 0.2 0  0.12 0.2 0  0.16 0.2 0  0.2 0.2 0  0.24 0.2 0  0.28 0.2 0  0.32 0.2 0  0.36 0.2 0  0.4 0.2 0  0.44 0.2 0  0.48 0.2 0  0.52 0.2 0  0.5600000000000001 0.2 0  0.6 0.2 0  0.64 0.2 0  0.68 0.2 0  0.72 0.2 0  0.76 0.2 0  0.8 0.2 0  0.84 0.2 0  0.88 0.2 0  0.92 0.2 0  0.96 0.2 0  1 0.2 0  0 0.24 0  0.04 0.24 0  0.08 0.24 0  0.12 0.24 0  0.16 0.24 0  0.2 0.24 0  0.24 0.24 0  0.28 0.24 0  0.32 0.24 0  0.36 0.24 0  0.4 0.24 0  0.44 0.24 0  0.48 0.24 0  0.52 0.24 0  0.5600000000000001 0.24 0  0.6 0.24 0  0.64 0.24 0  0.68 0.24 0  0.72 0.24 0  0.76 0.24 0  0.8 0.24 0  0.84 0.24 0  0.88 0.24 0  0.92 0.24 0  0.96 0.24 0  1 0.24 0  0 0.28 0  0.04 0.28 0  0.08 0.28 0  0.12 0.28 0  0.16 0.28 0  0.2 0.28 0  0.24 0.28 0  0.28 0.28 0  0.32 0.28 0  0.36 0.28 0  0.4 0.28 0  0.44 0.28 0  0.48 0.28 0  0.52 0.28 0  0.5600000000000001 0.28 0  0.6 0.28 0  0.64 0.28 0  0.68 0.28 0  0.72 0.28 0  0.76 0.28 0  0.8 0.28 0  0.84 0.28 0  0.88 0.28 0  0.92 0.28 0  0.96 0.28 0  1 0.28 0  0 0.32 0  0.04 0.32 0  0.08 0.32 0  0.12 0.32 0  0.16 0.32 0  0.2 0.32 0  0.24 0.32 0  0.28 0.32 0  0.32 0.32 0  0.36 0.32 0  0.4 0.32 0  0.44 0.32 0  0.48 0.32 0  0.52 0.32 0  0.5600000000000001 0.32 0  0.6 0.32 0  0.64 0.32 0  0.68 0.32 0  0.72 0.32 0  0.76 0.32 0  0.8 0.32 0  0.84 0.32 0  0.88 0.32 0  0.92 0.32 0  0.96 0.32 0  1 0.32 0  0 0.36 0  0.04 0.36 0  0.08 0.36 0  0.12 0.36 0  0.16 0.36 0  0.2 0.36 0  0.24 0.36 0  0.28 0.36 0  0.32 0.36 0  0.36 0.36 0  0.4 0.36 0  0.44 0.36 0  0.48 0.36 0  0.52 0.36 0  0.5600000000000001 0.36 0  0.6 0.36 0  0.64 0.36 0  0.68 0.36 0  0.72 0.36 0  0.76 0.36 0  0.8 0.36 0  0.84 0.36 0  0.88 0.36 0  0.92 0.36 0  0.96 0.36 0  1 0.36 0  0 0.4 0  0.04 0.4 0  0.08 0.4 0  0.12 0.4 0  0.16 0.4 0  0.2 0.4 0  0.24 0.4 0  0.28 0.4 0  0.32 0.4 0  0.36 0.4 0  0.4 0.4 0  0.44 0.4 0  0.48 0.4 0  0.52 0.4 0  0.5600000000000001 0.4 0  0.6 0.4 0  0.64 0.4 0  0.68 0.4 0  0.72 0.4 0  0.76 0.4 0  0.8 0.4 0  0.84 0.4 0  0.88 0.4 0  0.92 0.4 0  0.96 0.4 0  1 0.4 0  0 0.44 0  0.04 0.44 0  0.08 0.44 0  0.12 0.44 0  0.16 0.44 0  0.2 0.44 0  0.24 0.44 0  0.28 0.44 0  0.32 0.44 0  0.36 0.44 0  0.4 0.44 0  0.44 0.44 0  0.48 0.44 0  0.52 0.44 0  0.5600000000000001 0.44 0  0.6 0.44 0  0.64 0.44 0  0.68 0.44 0  0.72 0.44 0  0.76 0.44 0  0.8 0.44 0  0.84 0.44 0  0.88 0.44 0  0.92 0.44 0  0.96 0.44 0  1 0.44 0  0 0.48 0  0.04 0.48 0  0.08 0.48 0  0.12 0.48 0  0.16 0.48 0  0.2 0.48 0  0.24 0.48 0  0.28 0.48 0  0.32 0.48 0  0.36 0.48 0  0.4 0.48 0  0.44 0.48 0  0.48 0.48 0  0.52 0.48 0  0.5600000000000001 0.48 0  0.6 0.48 0  0.64 0.48 0  0.68 0.48 0  0.72 0.48 0  0.76 0.48 0  0.8 0.48 0  0.84 0.48 0  0.88 0.48 0  0.92 0.48 0  0.96 0.48 0  1 0.48 0  0 0.52 0  0.04 0.52 0  0.08 0.52 0  0.12 0.52 0  0.16 0.52 0  0.2 0.52 0  0.24 0.52 0  0.28 0.52 0  0.32 0.52 0  0.36 0.52 0  0.4 0.52 0  0.44 0.52 0  0.48 0.52 0  0.52 0.52 0  0.5600000000000001 0.52 0  0.6 0.52 0  0.64 0.52 0  0.68 0.52 0  0.72 0.52 0  0.76 0.52 0  0.8 0.52 0  0.84 0.52 0  0.88 0.52 0  0.92 0.52 0  0.96 0.52 0  1 0.52 0  0 0.5600000000000001 0  0.04 0.5600000000000001 0  0.08 0.5600000000000001 0  0.12 0.5600000000000001 0  0.16 0.5600000000000001 0  0.2 0.5600000000000001 0  0.24 0.5600000000000001 0  0.28 0.5600000000000001 0  0.32 0.5600000000000001 0  0.36 0.5600000000000001 0  0.4 0.5600000000000001 0  0.44 0.5600000000000001 0  0.48 0.5600000000000001 0  0.52 0.5600000000000001 0  0.5600000000000001 0.5600000000000001 0  0.6 0.5600000000000001 0  0.64 0.5600000000000001 0  0.68 0.5600000000000001 0  0.72 0.5600000000000001 0  0.76 0.5600000000000001 0  0.8 0.5600000000000001 0  0.84 0.5600000000000001 0  0.88 0.5600000000000001 0  0.92 0.5600000000000001 0  0.96 0.5600000000000001 0  1 0.5600000000000001 0  0 0.6 0  0.04 0.6 0  0.08 0.6 0  0.12 0.6 0  0.16 0.6 0  0.2 0.6 0  0.24 0.6 0  0.28 0.6 0  0.32 0.6 0  0.36 0.6 0  0.4 0.6 0  0.44 0.6 0  0.48 0.6 0  0.52 0.6 0  0.5600000000000001 0.6 0  0.6 0.6 0  0.64 0.6 0  0.68 0.6 0  0.72 0.6 0  0.76 0.6 0  0.8 0.6 0  0.84 0.6 0  0.88 0.6 0  0.92 0.6 0  0.96 0.6 0  1 0.6 0  0 0.64 0  0.04 0.64 0  0.08 0.64 0  0.12 0.64 0  0.16 0.64 0  0.2 0.64 0  0.24 0.64 0  0.28 0.64 0  0.32 0.64 0  0.36 0.64 0  0.4 0.64 0  0.44 0.64 0  0.48 0.64 0  0.52 0.64 0  0.5600000000000001 0.64 0  0.6 0.64 0  0.64 0.64 0  0.68 0.64 0  0.72 0.64 0  0.76 0.64 0  0.8 0.64 0  0.84 0.64 0  0.88 0.64 0  0.92 0.64 0  0.96 0.64 0  1 0.64 0  0 0.68 0  0.04 0.68 0  0.08 0.68 0  0.12 0.68 0  0.16 0.68 0  0.2 0.68 0  0.24 0.68 0  0.28 0.68 0  0.32 0.68 0  0.36 0.68 0  0.4 0.68 0  0.44 0.68 0  0.48 0.68 0  0.52 0.68 0  0.5600000000000001 0.68 0  0.6 0.68 0  0.64 0.68 0  0.68 0.68 0  0.72 0.68 0  0.76 0.68 0  0.8 0.68 0  0.84 0.68 0  0.88 0.68 0  0.92 0.68 0  0.96 0.68 0  1 0.68 0  0 0.72 0  0.04 0.72 0  0.08 0.72 0  0.12 0.72 0  0.16 0.72 0  0.2 0.72 0  0.24 0.72 0  0.28 0.72 0  0.32 0.72 0  0.36 0.72 0  0.4 0.72 0  0.44 0.72 0  0.48 0.72 0  0.52 0.72 0  0.5600000000000001 0.72 0  0.6 0.72 0  0.64 0.72 0  0.68 0.72 0  0.72 0.72 0  0.76 0.72 0  0.8 0.72 0  0.84 0.72 0  0.88 0.72 0  0.92 0.72 0  0.96 0.72 0  1 0.72 0  0 0.76 0  0.04 0.76 0  0.08 0.76 0  0.12 0.76 0  0.16 0.76 0  0.2 0.76 0  0.24 0.76 0  0.28 0.76 0  0.32 0.76 0  0.36 0.76 0  0.4 0.76 0  0.44 0.76 0  0.48 0.76 0  0.52 0.76 0  0.5600000000000001 0.76 0  0.6 0.76 0  0.64 0.76 0  0.68 0.76 0  0.72 0.76 0  0.76 0.76 0  0.8 0.76 0  0.84 0.76 0  0.88 0.76 0  0.92 0.76 0  0.96 0.76 0  1 0.76 0  0 0.8 0  0.04 0.8 0  0.08 0.8 0  0.12 0.8 0  0.16 0.8 0  0.2 0.8 0  0.24 0.8 0  0.28 0.8 0  0.32 0.8 0  0.36 0.8 0  0.4 0.8 0  0.44 0.8 0  0.48 0.8 0  0.52 0.8 0  0.5600000000000001 0.8 0  0.6 0.8 0  0.64 0.8 0  0.68 0.8 0  0.72 0.8 0  0.76 0.8 0  0.8 0.8 0  0.84 0.8 0  0.88 0.8 0  0.92 0.8 0  0.96 0.8 0  1 0.8 0  0 0.84 0  0.04 0.84 0  0.08 0.84 0  0.12 0.84 0  0.16 0.84 0  0.2 0.84 0  0.24 0.84 0  0.28 0.84 0  0.32 0.84 0  0.36 0.84 0  0.4 0.84 0  0.44 0.84 0  0.48 0.84 0  0.52 0.84 0  0.5600000000000001 0.84 0  0.6 0.84 0  0.64 0.84 0  0.68 0.84 0  0.72 0.84 0  0.76 0.84 0  0.8 0.84 0  0.84 0.84 0  0.88 0.84 0  0.92 0.84 0  0.96 0.84 0  1 0.84 0  0 0.88 0  0.04 0.88 0  0.08 0.88 0  0.12 0.88 0  0.16 0.88 0  0.2 0.88 0  0.24 0.88 0  0.28 0.88 0  0.32 0.88 0  0.36 0.88 0  0.4 0.88 0  0.44 0.88 0  0.48 0.88 0  0.52 0.88 0  0.5600000000000001 0.88 0  0.6 0.88 0  0.64 0.88 0  0.68 0.88 0  0.72 0.88 0  0.76 0.88 0  0.8 0.88 0  0.84 0.88 0  0.88 0.88 0  0.92 0.88 0  0.96 0.88 0  1 0.88 0  0 0.92 0  0.04 0.92 0  0.08 0.92 0  0.12 0.92 0  0.16 0.92 0  0.2 0.92 0  0.24 0.92 0  0.28 0.92 0  0.32 0.92 0  0.36 0.92 0  0.4 0.92 0  0.44 0.92 0  0.48 0.92 0  0.52 0.92 0  0.5600000000000001 0.92 0  0.6 0.92 0  0.64 0.92 0  0.68 0.92 0  0.72 0.92 0  0.76 0.92 0  0.8 0.92 0  0.84 0.92 0  0.88 0.92 0  0.92 0.92 0  0.96 0.92 0  1 0.92 0  0 0.96 0  0.04 0.96 0  0.08 0.96 0  0.12 0.96 0  0.16 0.96 0  0.2 0.96 0  0.24 0.96 0  0.28 0.96 0  0.32 0.96 0  0.36 0.96 0  0.4 0.96 0  0.44 0.96 0  0.48 0.96 0  0.52 0.96 0  0.5600000000000001 0.96 0  0.6 0.96 0  0.64 0.96 0  0.68 0.96 0  0.72 0.96 0  0.76 0.96 0  0.8 0.96 0  0.84 0.96 0  0.88 0.96 0  0.92 0.96 0  0.96 0.96 0  1 0.96 0  0 1 0  0.04 1 0  0.08 1 0  0.12 1 0  0.16 1 0  0.2 1 0  0.24 1 0  0.28 1 0  0.32 1 0  0.36 1 0  0.4 1 0  0.44 1 0  0.48 1 0  0.52 1 0  0.5600000000000001 1 0  0.6 1 0  0.64 1 0  0.68 1 0  0.72 1 0  0.76 1 0  0.8 1 0  0.84 1 0  0.88 1 0  0.92 1 0  0.96 1 0  1 1 0  </DataArray>
</Points>
<Cells>
[...]
<PointData  Scalars="Indicator Function"> 
<DataArray  type="Float64"  Name="Indicator Function"  format="ascii">-1.3102481666785929e-20  -7.3773684098108474e-19  1.3088033925426007e-17  1.3446865854573921e-17  -5.9147499667342303e-19  -9.7420800856193200e-20  -6.9023439993136436e-20  -2.2198973006456931e-18  -8.0175188646232910e-18  -4.1441254387853179e-19  2.9665770064311091e-17  7.4793433376351288e-18  2.4074124304840448e-35  -2.6481536735324493e-34  2.2396753653985123e-17  7.5231638452626401e-37  -2.8787027579478369e-21  3.8593924149719013e-19  1.5046327690525280e-36  -1.5070858037894939e-20  6.0680538831440822e-19  -1.0449804824245337e-20  -3.9695709086642858e-21  4.0305689693437864e-20  -1.8807909613156600e-37  1.5046327690525280e-36  -9.3752616343591171e-21  2.3603332620866392e-04  2.4611090619963030e-03  1.1294978804764691e-02  5.4313775398676663e-05  3.5099542594726973e-03  2.4868315090632327e-03  9.8738039748418917e-03  5.2445805780193221e-03  1.1683434548908040e-02  1.6236754383020194e-03  1.0997055517581960e-02  4.7921648115904526e-03  1.4066802958706192e-03  6.7992434036827744e-04  7.9586784137337377e-04  4.1320961487569603e-04  2.6787577027168725e-04  3.6022118730694298e-05  4.1246612865155507e-04  6.5259378248690405e-05  1.6318498916373242e-04  1.0665445386839657e-04  1.8182205326125940e-05  1.9028486130119844e-05  -1.1284745767893960e-36  -2.3397435760135429e-19  1.6888969921200034e-04  4.2426481776395441e-04  4.0094552503989458e-03  1.7441022601960621e-02  4.2842953252882586e-03  1.8704110188390948e-02  1.8064490670559871e-02  3.3306110999344836e-02  1.0907142835958118e-03  1.6248171676841609e-02  8.0305142822365057e-03  2.1218219794087299e-02  5.6014678957571674e-04  2.1526716813497636e-03  2.4935152908674534e-03  1.4586439477761244e-03  9.7974045253251146e-04  3.8299098093553543e-04  2.2894206141166771e-04  7.4719154793757728e-04  4.5390428546734771e-05  4.8974438443474269e-04  9.0460150332391661e-05  5.0846895965967468e-05  1.2701563792230814e-20  -6.7637932353358881e-20  4.2149073188308432e-03  5.3281229545104848e-03  5.7360112323198353e-03  2.9265415545511059e-02  3.7222526839130409e-03  6.0934147902126246e-03  1.6826945062758272e-03  1.9475103892653178e-02  1.5806634489871536e-02  2.9695621197877747e-02  6.0004201530061384e-03  3.1088823863950902e-02  1.5684791621922385e-02  5.8429812645962812e-03  5.1780404786348809e-03  4.6800095342952978e-03  2.2473695638294978e-03  1.4178007161401182e-03  4.0048075614592543e-04  7.0483693871767957e-04  4.0863606071480898e-04  2.1040999307730341e-04  5.6452056944666094e-04  5.6646185690589403e-05  -7.8612374513605139e-21  -3.5829766231861488e-19  2.8419141994666325e-03  2.3103017856895619e-03  2.7250479219373459e-03  1.0408779218720981e-03  4.0501020211563432e-02  4.4647559870770459e-03  4.4151504253402973e-02  3.3914637131187246e-02  8.0498174555853494e-02  9.7964794243455642e-03  4.5336345268319762e-02  2.8816790722823775e-02  6.1175863472813681e-02  1.3266517069794355e-02  1.2380868820987623e-02  1.0904174878665400e-02  6.8235413211195032e-03  3.5794202725720234e-03  1.6639861445450256e-03  4.7768643440666012e-04  8.8756324384931776e-04  6.4728002840543225e-05  4.5490856865803235e-04  3.2162813466093081e-04  7.8098907634956190e-20  -1.2037062152420224e-34  8.2585872584596959e-03  6.5075006964045359e-03  3.6491793355820494e-03  4.0255488641429528e-03  5.5335500886875576e-02  1.8237464200244823e-02  1.2693880391604084e-02  9.2237583517567924e-03  5.7783154753092481e-02  6.4616591168779505e-02  1.1556075665844517e-01  6.6373847435237485e-02  1.0415061965972540e-01  6.6716869115336710e-02  3.7217260222920011e-02  2.4870921532102030e-02  1.6307762005476355e-02  7.6239897750280993e-03  3.7643712604371162e-03  1.3431183790180436e-03  7.2737317271495260e-04  2.9011282155734963e-04  1.3913601215867724e-04  3.4303063254241881e-04  -1.9042025320016228e-20  -7.8240903990731457e-35  1.1466053347821394e-02  6.5508823435592419e-03  6.5824049342512320e-03  4.2148979704597668e-03  2.3057433627833520e-02  1.1740554015006938e-01  1.6890832303865389e-02  1.2231857525162240e-01  1.1817586791996494e-02  2.4211353622835502e-01  9.3619980653463761e-02  1.5238478141206813e-01  1.5985848090681085e-01  1.9102435385986685e-01  8.0482517349191804e-02  4.0324776209103755e-02  2.6932388710747955e-02  1.5985350355527752e-02  7.7443511064975929e-03  3.3261201996026887e-03  9.7295359478503549e-04  6.8985770538076442e-04  2.4596252921049174e-04  7.8091964799135980e-06  -4.3349748679106698e-22  4.5740836179196852e-34  8.2012172867698060e-03  2.8602619271488649e-03  1.5003507304464854e-02  2.6017838208759737e-02  1.9683576304813315e-02  9.3942737085503353e-02  2.9745397288702870e-03  1.0542926347175841e-01  7.2001683567318134e-02  5.9421964397236203e-02  1.7682697429863000e-02  2.6909544417632475e-01  2.5942270441096701e-02  2.5665991971283830e-01  3.0000596165490057e-01  9.0447422132905429e-03  3.6590593909402974e-02  3.3707132470490765e-02  1.6913873253564721e-02  7.3703172098568415e-03  2.5837778069991422e-03  1.1335317652005920e-03  1.7012089817859295e-04  2.3687416509654685e-04  1.7066445323753089e-20  -9.6296497219361793e-35  1.4342333458757397e-02  1.2167095958249779e-02  2.4812124048561742e-03  1.3015619284919644e-02  3.5193981509964563e-02  5.5069952236573197e-02  8.8466644120044138e-02  1.3791079286833863e-01  1.8640871350038235e-01  6.6135261783082808e-02  1.3673434752339650e-01  1.7703444084267377e-02  8.9133028381754062e-02  1.8174294002307762e-02  6.2732965377259184e-02  5.3748632001658157e-02  3.1262086980149831e-02  5.5983405425366124e-02  3.2102117854546142e-02  1.4570563189869115e-02  5.7539168507589455e-03  1.8902253574260952e-03  1.0155761654428177e-03  7.6498201698409844e-05  2.1232516216997567e-21  -9.6846493934619655e-20  1.8652370544108849e-03  1.0019458331721543e-02  2.7924879314758500e-02  5.5550383985178357e-02  4.5560855660570193e-02  2.3982149585616376e-02  1.3164141021267367e-01  2.8511983083633252e-01  5.9992894637405807e-02  5.0171274549208375e-02  2.1721660865159222e-02  7.9096017556447004e-02  6.9138739336909547e-02  3.0375779347551771e-02  3.9657945985970715e-02  8.1690157412508166e-02  5.1819086909690781e-02  3.6403720028419358e-02  4.6285695953924857e-02  2.4273223926153113e-02  9.9129174633658269e-03  3.2636700720808124e-03  1.6497343882000942e-03  4.3171287521355392e-04  2.4074124304840448e-35  1.2037062152420224e-34  2.4611523937061938e-03  4.0234258275757126e-03  7.1451666759830227e-04  1.7887520867459653e-02  7.4606807282841719e-02  2.5093589534010230e-01  8.9111478127616051e-02  1.1826484751576841e-01  3.4357911274065532e-02  3.9410769119096523e-02  2.5148361020575490e-02  5.2025232685496518e-02  4.8918376347850838e-02  6.5883159060681068e-02  1.9623968954003031e-02  9.5679970208349605e-02  7.9130927601755677e-02  5.0963838984018982e-02  4.9074196251196217e-02  2.9873466987034282e-02  1.4147536728639470e-02  5.1878734268287052e-03  1.5680323963179537e-03  8.4627100009859182e-04  2.3284192101087871e-34  -6.0185310762101120e-35  2.1955838744462776e-03  3.7703098853996591e-04  1.7164260849688130e-02  3.0856263739042423e-02  6.5347783841380236e-02  6.4383063520842027e-02  3.1796573112051740e-01  4.1855612345768782e-02  6.2849135299992117e-03  1.6095995451796050e-02  9.6558685805965289e-04  2.0227054591685479e-03  7.0966739123657072e-02  6.2300230678803893e-02  1.6064430771984765e-02  4.6492908698697759e-02  1.7155213133902178e-01  1.8660845911096641e-01  1.3373088931310805e-02  2.0188721597852753e-02  1.4930932957383191e-02  6.5745618972717123e-03  1.6051551127856292e-03  1.0847626580035726e-03  8.4259435066941569e-35  -1.6335583261126800e-19  7.9850752497942611e-03  6.5798211606111854e-03  4.2472539834367499e-03  1.9730972712071880e-02  8.4089410262303182e-02  1.3009292412059115e-01  2.3755078344275812e-02  1.1111787984947520e-01  4.7026453854941468e-02  9.4924311955667581e-03  2.8025130346647786e-02  1.5734472036373178e-02  4.8063536250817489e-02  4.9994413835270875e-02  7.7613272300046873e-02  2.8031493809899437e-02  1.0897447520098870e-01  1.3658453414349458e-01  3.1253749675343617e-01  1.2303101114047437e-02  8.4060850769537426e-03  6.7993768722178459e-03  2.4684226410806626e-03  5.6912396648586621e-04  0.0000000000000000e+00  -7.2222372914521344e-35  2.9427570675076161e-03  1.0090199370838894e-02  1.9879284561677021e-02  4.0507355388499033e-02  6.2750039034859664e-02  1.0999382627625741e-01  1.8007484476364904e-01  5.3221674092419430e-02  6.6298910119673857e-02  3.2816136320133804e-02  7.1433131100184294e-03  8.8262767331953023e-03  1.2323373155611989e-02  7.3760226389254432e-02  6.6838054487495177e-02  1.0268269868180460e-02  1.3936208674597814e-01  3.2593091383689893e-01  7.7953297768704709e-04  5.2617794007279707e-02  1.6513775279896861e-02  4.0704375948445830e-03  2.8668442272030818e-03  1.5281764351782260e-04  -8.4830833201223070e-21  -1.6069313871352284e-20  2.2664497211120904e-03  1.8762242924346016e-03  5.1748672504688302e-03  2.4307242036128322e-02  8.4275477571678817e-02  1.5388452834676219e-01  8.6054840773764504e-02  8.2377422616951135e-02  9.1333372281234046e-02  4.4261097779381316e-02  4.8934759540513892e-02  7.8069938290037354e-03  2.3971832990133720e-02  7.2298975757135897e-02  1.0534039540644014e-02  6.2933969575428836e-02  4.4590807393882513e-02  1.7570710628736930e-01  4.9458865662417706e-01  4.5582165538318363e-02  1.4440527774693459e-04  9.7911725406850565e-03  1.4823010209345548e-03  4.2939055983483385e-04  4.3420741202449521e-19  -1.9165189327058080e-20  6.5568142336909097e-03  4.3353946716074053e-03  1.0359822670687812e-02  1.5346804589650796e-02  3.4179435112547181e-02  6.1908124032232704e-02  1.7990128804252309e-01  9.1519084432230266e-02  6.6447246864398221e-02  8.1430778988509520e-02  5.2866188026060627e-02  6.0254647155250689e-02  1.8316083243722633e-02  2.5376159632693059e-03  1.9508278255716785e-01  1.3929329322925579e-01  9.6125871501585525e-02  9.6173548405075540e-02  3.2404136594471264e-03  8.2866657901323040e-02  1.7792626695300795e-02  1.9476976677573001e-02  3.9538167386003386e-03  8.4946757555443442e-04  2.4074124304840448e-35  6.0185310762101120e-36  3.4524935804729510e-04  4.7368323599905416e-03  8.7206975029052915e-03  2.0210422342669634e-02  4.2574652026348400e-02  7.0312531512876128e-02  4.1956343864120796e-02  1.3104877642434348e-01  4.3740158693454143e-02  1.2657836713978943e-01  3.5309677674592525e-02  9.0099570588947783e-02  6.7110509939865516e-03  5.5249947947857904e-02  1.4102991366133735e-01  5.9158879707425539e-02  3.6044261751285817e-01  2.4263840708503567e-01  1.2760179770118685e-01  4.1733614631463002e-02  2.2939984195114085e-02  8.4064305424913098e-04  1.5203690939773681e-02  9.7436515857288045e-04  2.4074124304840448e-35  -1.8055593228630336e-35  9.3332641521987341e-04  1.4384963919547636e-03  9.7392580931603828e-04  8.2757340334638826e-03  2.3609229117875479e-02  5.7904778049005977e-02  9.9362762568930174e-02  2.9277891587525192e-02  1.5568059817231203e-01  1.6066645644958408e-01  1.7767680861139862e-01  1.0609019255583910e-01  9.2802783786574403e-02  3.2781197344603712e-02  1.1018169052390415e-01  3.3549122986048885e-01  9.2989818873190452e-02  5.6214276654502481e-02  3.4699398398804884e-02  4.4652676725272032e-02  4.0412955690824683e-02  8.7123072768905286e-03  9.4206280283094558e-03  7.2736357385456279e-03  -3.4907480242018650e-34  0.0000000000000000e+00  8.1359378278542799e-04  8.8859209525279036e-04  3.5163318555477500e-03  2.6117207994360899e-03  1.0036752913357814e-02  2.2989183459619648e-02  4.1589090344764879e-02  5.7705915523158263e-02  1.8501268934097070e-01  8.2106744745888041e-02  2.4208652681879553e-01  1.1997392039008888e-01  3.6042560609422264e-01  1.5455715912272328e-01  7.8808399089969713e-02  4.5740765745551420e-01  1.6480949320679056e-01  8.9230408371061040e-02  5.8011532277025678e-02  1.5513991838210265e-02  3.0047575550498543e-02  2.8916024751633660e-02  1.0215294402701352e-03  1.0044891889823016e-02  3.8518598887744717e-34  -6.4792998052970098e-22  5.7698994918132314e-04  6.1470791714791288e-04  2.0366243273342130e-04  3.3149713630805911e-03  6.0037951636940524e-03  1.4577349171687686e-02  2.6642212674035076e-02  2.7061622945468645e-02  2.8577275806381929e-02  7.4085403528798971e-03  4.2832528122086641e-02  3.2954527384001664e-01  1.0740868105793800e-02  3.8937370422494971e-01  2.9571284319701280e-01  7.2179690247123687e-02  7.9557125838261300e-02  5.7929757130232733e-02  5.2855694991516065e-02  3.6073517712769357e-02  2.8428307696594851e-02  2.6932880220281633e-02  1.6980889905320706e-02  7.6611913525838164e-04  -4.2528155178488620e-20  -3.4961920611583593e-21  6.0373205502510790e-04  1.1804283804141306e-03  3.5672378397605132e-04  2.0651911691588532e-03  2.7946977921188961e-03  7.0967082375610752e-03  1.5300829404626560e-02  2.4556324384040994e-02  2.3399580057298714e-02  1.9138810775303626e-03  1.9366477110056332e-02  9.6453274806338682e-02  1.9307078903481593e-02  8.9534375387389634e-02  3.9784516046639214e-03  7.1848566144761331e-02  5.8429102323910229e-03  2.9754226236986283e-02  4.5687760790539496e-02  1.2211561525086253e-02  1.8186163934914203e-02  2.5402301524229887e-02  2.1143122882456931e-02  1.0982858225079320e-03  2.4926298008212284e-19  -7.7605849244195603e-22  6.2981797055393935e-05  5.2710303983491522e-04  1.0576678453719690e-03  3.9991074480217080e-04  2.7549112132296575e-03  3.4577953240786767e-03  7.4702893277483785e-03  1.3406837648303391e-02  1.4887987742297340e-02  5.6354183076365869e-03  1.1851023052598787e-02  2.6526377631619195e-02  5.6017125862164167e-02  3.8010366703172586e-02  5.6750700637956501e-02  7.3511731031942178e-03  1.4703827442137923e-03  2.3538079753855828e-02  3.9203063234222991e-02  3.0515126553112053e-02  1.7180482544391713e-02  1.5573816907169098e-02  2.0678277940095833e-02  1.4520474055691212e-02  1.9259299443872359e-34  -3.7615819226313200e-37  1.0715499489213246e-04  2.7754757496744166e-04  6.1329381659714439e-04  3.0221964454013020e-04  5.5754269332914123e-04  2.1884435030075956e-03  3.6614969790873665e-03  7.1707062716982514e-03  1.1706020779115894e-02  1.1248622249922185e-02  1.1344044135873059e-02  2.1059326614972534e-02  1.2578663613287045e-02  9.7830783940667972e-03  1.0246617250738567e-03  1.5798181652851757e-02  1.0438645280784130e-02  1.7835677764219200e-02  2.1098718779310592e-03  2.1739338544541388e-02  1.2376872057222713e-02  2.0120290696688053e-02  1.3566664734133827e-02  6.6605004041705336e-03  3.8518598887744717e-34  -4.7019774032891500e-37  3.3679779585693066e-05  5.7003731171199544e-05  2.3292047708858786e-04  5.4341103630070066e-04  1.0589622572289908e-05  9.9674867690264200e-04  1.5675377781471246e-03  3.0065436454869538e-03  5.5896281507606419e-03  8.0113617549052996e-03  4.5103624550178233e-03  6.6535793973874994e-03  1.6879258336653352e-02  1.7377349214888253e-02  2.3110621584993295e-02  7.3229545600021952e-03  2.0368169693001318e-03  4.4405262449830635e-03  3.1008430296975958e-03  1.0261709242322744e-02  6.2013689722957540e-03  6.4398311919680751e-03  1.0743314313817032e-02  8.3795094621603207e-03  -4.2370458776519189e-33  0.0000000000000000e+00  1.9947164049836924e-05  4.9008167799313983e-05  7.8436029394162118e-05  1.6487919689356313e-04  2.5008623446569296e-04  1.9906951519569669e-04  7.0231483473666878e-04  1.0878591208081986e-03  2.0378970776708119e-03  3.6436274763487504e-03  4.7840736839122834e-03  6.1153218789159207e-04  3.2979859269394438e-03  6.9494820159915170e-03  3.7058476352388567e-03  1.9433814170784887e-02  3.4612963542466611e-03  3.0243269949373364e-03  4.2431759977538524e-04  1.5086533261383452e-02  2.3672201461982108e-03  1.6552523068712726e-03  1.1202840630960664e-02  3.8251172479586469e-03  -2.1233666202872476e-19  2.8211864419734900e-37  1.6927118651840940e-36  6.7708474607363760e-36  1.3541694921472752e-35  2.1064858766735392e-35  1.3541694921472752e-35  -1.1050577963561508e-20  1.9785920913040743e-34  -2.6481536735324493e-34  1.2037062152420224e-34  4.9652881378733424e-34  -5.7777898331617076e-34  -3.3946855764831981e-20  1.5407439555097887e-33  1.0020255030525689e-17  -2.0571586851974277e-19  -1.0787933974346013e-18  9.6070272688348468e-20  -1.6788387318874037e-19  0.0000000000000000e+00  1.2562062441420935e-18  -1.3140711553328830e-19  -9.1884961132616617e-20  3.1094129024246672e-19  -2.1233666202872495e-19  -2.1233666202872505e-19  </DataArray> 
</PointData> 
</Piece>
</UnstructuredGrid>
</VTKFile>