<?xml version="1.0"?>
<VTKFile type="UnstructuredGrid"  version="0.1"  >
<UnstructuredGrid>
<Piece  NumberOfPoints="10201" NumberOfCells="20000">
<Points>
<DataArray  type="Float64"  NumberOfComponents="3"  format="ascii">0 0 0  0.01 0 0  0.02 0 0  0.03 0 0  0.04 0 0  0.05 0 0  0.06 0 0  0.07000000000000001 0 0  0.08 0 0  0.09 0 0  0.1 0 0  0.11 0 0  0.12 0 0  0.13 0 0  0.14 0 0  0.15 0 0  0.16 0 0  0.17 0 0  0.18 0 0  0.19 0 0  0.2 0 0  0.21 0 0  0.22 0 0  0.23 0 0  0.24 0 0  0.25 0 0  0.26 0 0  0.27 0 0  0.28 0 0  0.29 0 0  0.3 0 0  0.31 0 0  0.32 0 0  0.33 0 0  0.34 0 0  0.35 0 0  0.36 0 0  0.37 0 0  0.38 0 0  0.39 0 0  0.4 0 0  0.41 0 0  0.42 0 0  0.43 0 0  0.44 0 0  0.45 0 0  0.46 0 0  0.47 0 0  0.48 0 0  0.49 0 0  0.5 0 0  0.51 0 0  0.52 0 0  0.53 0 0  0.54 0 0  0.55 0 0  0.5600000000000001 0 0  0.57 0 0  0.58 0 0  0.59 0 0  0.6 0 0  0.61 0 0  0.62 0 0  0.63 0 0  0.64 0 0  0.65 0 0  0.66 0 0  0.67 0 0  0.68 0 0  0.6899999999999999 0 0  0.7 0 0  0.71 0 0  0.72 0 0  0.73 0 0  0.74 0 0  0.75 0 0  0.76 0 0  0.77 0 0  0.78 0 0  0.79 0 0  0.8 0 0  0.8100000000000001 0 0  0.82 0 0  0.83 0 0  0.84 0 0  0.85 0 0  0.86 0 0  0.87 0 0  0.88 0 0  0.89 0 0  0.9 0 0  0.91 0 0  0.92 0 0  0.93 0 0  0.9399999999999999 0 0  0.95 0 0  0.96 0 0  0.97 0 0  0.98 0 0  0.99 0 0  1 0 0  0 0.01 0  0.01 0.01 0  0.02 0.01 0  0.03 0.01 0  0.04 0.01 0  0.05 0.01 0  0.06 0.01 0  0.07000000000000001 0.01 0  0.08 0.01 0  0.09 0.01 0  0.1 0.01 0  0.11 0.01 0  0.12 0.01 0  0.13 0.01 0  0.14 0.01 0  0.15 0.01 0  0.16 0.01 0  0.17 0.01 0  0.18 0.01 0  0.19 0.01 0  0.2 0.01 0  0.21 0.01 0  0.22 0.01 0  0.23 0.01 0  0.24 0.01 0  0.25 0.01 0  0.26 0.01 0  0.27 0.01 0  0.28 0.01 0  0.29 0.01 0  0.3 0.01 0  0.31 0.01 0  0.32 0.01 0  0.33 0.01 0  0.34 0.01 0  0.35 0.01 0  0.36 0.01 0  0.37 0.01 0  0.38 0.01 0  0.39 0.01 0  0.4 0.01 0  0.41 0.01 0  0.42 0.01 0  0.43 0.01 0  0.44 0.01 0  0.45 0.01 0  0.46 0.01 0  0.47 0.01 0  0.48 0.01 0  0.49 0.01 0  0.5 0.01 0  0.51 0.01 0  0.52 0.01 0  0.53 0.01 0  0.54 0.01 0  0.55 0.01 0  0.5600000000000001 0.01 0  0.57 0.01 0  0.58 0.01 0  0.59 0.01 0  0.6 0.01 0  0.61 0.01 0  0.62 0.01 0  0.63 0.01 0  0.64 0.01 0  0.65 0.01 0  0.66 0.01 0  0.67 0.01 0  0.68 0.01 0  0.6899999999999999 0.01 0  0.7 0.01 0  0.71 0.01 0  0.72 0.01 0  0.73 0.01 0  0.74 0.01 0  0.75 0.01 0  0.76 0.01 0  0.77 0.01 0  0.78 0.01 0  0.79 0.01 0  0.8 0.01 0  0.8100000000000001 0.01 0  0.82 0.01 0  0.83 0.01 0  0.84 0.01 0  0.85 0.01 0  0.86 0.01 0  0.87 0.01 0  0.88 0.01 0  0.89 0.01 0  0.9 0.01 0  0.91 0.01 0  0.92 0.01 0  0.93 0.01 0  0.9399999999999999 0.01 0  0.95 0.01 0  0.96 0.01 0  0.97 0.01 0  0.98 0.01 0  0.99 0.01 0  1 0.01 0  0 0.02 0  0.01 0.02 0  0.02 0.02 0  0.03 0.02 0  0.04 0.02 0  0.05 0.02 0  0.06 0.02 0  0.07000000000000001 0.02 0  0.08 0.02 0  0.09 0.02 0  0.1 0.02 0  0.11 0.02 0  0.12 0.02 0  0.13 0.02 0  0.14 0.02 0  0.15 0.02 0  0.16 0.02 0  0.17 0.02 0  0.18 0.02 0  0.19 0.02 0  0.2 0.02 0  0.21 0.02 0  0.22 0.02 0  0.23 0.02 0  0.24 0.02 0  0.25 0.02 0  0.26 0.02 0  0.27 0.02 0  0.28 0.02 0  0.29 0.02 0  0.3 0.02 0  0.31 0.02 0  0.32 0.02 0  0.33 0.02 0  0.34 0.02 0  0.35 0.02 0  0.36 0.02 0  0.37 0.02 0  0.38 0.02 0  0.39 0.02 0  0.4 0.02 0  0.41 0.02 0  0.42 0.02 0  0.43 0.02 0  0.44 0.02 0  0.45 0.02 0  0.46 0.02 0  0.47 0.02 0  0.48 0.02 0  0.49 0.02 0  0.5 0.02 0  0.51 0.02 0  0.52 0.02 0  0.53 0.02 0  0.54 0.02 0  0.55 0.02 0  0.5600000000000001 0.02 0  0.57 0.02 0  0.58 0.02 0  0.59 0.02 0  0.6 0.02 0  0.61 0.02 0  0.62 0.02 0  0.63 0.02 0  0.64 0.02 0  0.65 0.02 0  0.66 0.02 0  0.67 0.02 0  0.68 0.02 0  0.6899999999999999 0.02 0  0.7 0.02 0  0.71 0.02 0  0.72 0.02 0  0.73 0.02 0  0.74 0.02 0  0.75 0.02 0  0.76 0.02 0  0.77 0.02 0  0.78 0.02 0  0.79 0.02 0  0.8 0.02 0  0.8100000000000001 0.02 0  0.82 0.02 0  0.83 0.02 0  0.84 0.02 0  0.85 0.02 0  0.86 0.02 0  0.87 0.02 0  0.88 0.02 0  0.89 0.02 0  0.9 0.02 0  0.91 0.02 0  0.92 0.02 0  0.93 0.02 0  0.9399999999999999 0.02 0  0.95 0.02 0  0.96 0.02 0  0.97 0.02 0  0.98 0.02 0  0.99 0.02 0  1 0.02 0  0 0.03 0  0.01 0.03 0  0.02 0.03 0  0.03 0.03 0  0.04 0.03 0  0.05 0.03 0  0.06 0.03 0  0.07000000000000001 0.03 0  0.08 0.03 0  0.09 0.03 0  0.1 0.03 0  0.11 0.03 0  0.12 0.03 0  0.13 0.03 0  0.14 0.03 0  0.15 0.03 0  0.16 0.03 0  0.17 0.03 0  0.18 0.03 0  0.19 0.03 0  0.2 0.03 0  0.21 0.03 0  0.22 0.03 0  0.23 0.03 0  0.24 0.03 0  0.25 0.03 0  0.26 0.03 0  0.27 0.03 0  0.28 0.03 0  0.29 0.03 0  0.3 0.03 0  0.31 0.03 0  0.32 0.03 0  0.33 0.03 0  0.34 0.03 0  0.35 0.03 0  0.36 0.03 0  0.37 0.03 0  0.38 0.03 0  0.39 0.03 0  0.4 0.03 0  0.41 0.03 0  0.42 0.03 0  0.43 0.03 0  0.44 0.03 0  0.45 0.03 0  0.46 0.03 0  0.47 0.03 0  0.48 0.03 0  0.49 0.03 0  0.5 0.03 0  0.51 0.03 0  0.52 0.03 0  0.53 0.03 0  0.54 0.03 0  0.55 0.03 0  0.5600000000000001 0.03 0  0.57 0.03 0  0.58 0.03 0  0.59 0.03 0  0.6 0.03 0  0.61 0.03 0  0.62 0.03 0  0.63 0.03 0  0.64 0.03 0  0.65 0.03 0  0.66 0.03 0  0.67 0.03 0  0.68 0.03 0  0.6899999999999999 0.03 0  0.7 0.03 0  0.71 0.03 0  0.72 0.03 0  0.73 0.03 0  0.74 0.03 0  0.75 0.03 0  0.76 0.03 0  0.77 0.03 0  0.78 0.03 0  0.79 0.03 0  0.8 0.03 0  0.8100000000000001 0.03 0  0.82 0.03 0  0.83 0.03 0  0.84 0.03 0  0.85 0.03 0  0.86 0.03 0  0.87 0.03 0  0.88 0.03 0  0.89 0.03 0  0.9 0.03 0  0.91 0.03 0  0.92 0.03 0  0.93 0.03 0  0.9399999999999999 0.03 0  0.95 0.03 0  0.96 0.03 0  0.97 0.03 0  0.98 0.03 0  0.99 0.03 0  1 0.03 0  0 0.04 0  0.01 0.04 0  0.02 0.04 0  0.03 0.04 0  0.04 0.04 0  0.05 0.04 0  0.06 0.04 0  0.07000000000000001 0.04 0  0.08 0.04 0  0.09 0.04 0  0.1 0.04 0  0.11 0.04 0  0.12 0.04 0  0.13 0.04 0  0.14 0.04 0  0.15 0.04 0  0.16 0.04 0  0.17 0.04 0  0.18 0.04 0  0.19 0.04 0  0.2 0.04 0  0.21 0.04 0  0.22 0.04 0  0.23 0.04 0  0.24 0.04 0  0.25 0.04 0  0.26 0.04 0  0.27 0.04 0  0.28 0.04 0  0.29 0.04 0  0.3 0.04 0  0.31 0.04 0  0.32 0.04 0  0.33 0.04 0  0.34 0.04 0  0.35 0.04 0  0.36 0.04 0  0.37 0.04 0  0.38 0.04 0  0.39 0.04 0  0.4 0.04 0  0.41 0.04 0  0.42 0.04 0  0.43 0.04 0  0.44 0.04 0  0.45 0.04 0  0.46 0.04 0  0.47 0.04 0  0.48 0.04 0  0.49 0.04 0  0.5 0.04 0  0.51 0.04 0  0.52 0.04 0  0.53 0.04 0  0.54 0.04 0  0.55 0.04 0  0.5600000000000001 0.04 0  0.57 0.04 0  0.58 0.04 0  0.59 0.04 0  0.6 0.04 0  0.61 0.04 0  0.62 0.04 0  0.63 0.04 0  0.64 0.04 0  0.65 0.04 0  0.66 0.04 0  0.67 0.04 0  0.68 0.04 0  0.6899999999999999 0.04 0  0.7 0.04 0  0.71 0.04 0  0.72 0.04 0  0.73 0.04 0  0.74 0.04 0  0.75 0.04 0  0.76 0.04 0  0.77 0.04 0  0.78 0.04 0  0.79 0.04 0  0.8 0.04 0  0.8100000000000001 0.04 0  0.82 0.04 0  0.83 0.04 0  0.84 0.04 0  0.85 0.04 0  0.86 0.04 0  0.87 0.04 0  0.88 0.04 0  0.89 0.04 0  0.9 0.04 0  0.91 0.04 0  0.92 0.04 0  0.93 0.04 0  0.9399999999999999 0.04 0  0.95 0.04 0  0.96 0.04 0  0.97 0.04 0  0.98 0.04 0  0.99 0.04 0  1 0.04 0  0 0.05 0  0.01 0.05 0  0.02 0.05 0  0.03 0.05 0  0.04 0.05 0  0.05 0.05 0  0.06 0.05 0  0.07000000000000001 0.05 0  0.08 0.05 0  0.09 0.05 0  0.1 0.05 0  0.11 0.05 0  0.12 0.05 0  0.13 0.05 0  0.14 0.05 0  0.15 0.05 0  0.16 0.05 0  0.17 0.05 0  0.18 0.05 0  0.19 0.05 0  0.2 0.05 0  0.21 0.05 0  0.22 0.05 0  0.23 0.05 0  0.24 0.05 0  0.25 0.05 0  0.26 0.05 0  0.27 0.05 0  0.28 0.05 0  0.29 0.05 0  0.3 0.05 0  0.31 0.05 0  0.32 0.05 0  0.33 0.05 0  0.34 0.05 0  0.35 0.05 0  0.36 0.05 0  0.37 0.05 0  0.38 0.05 0  0.39 0.05 0  0.4 0.05 0  0.41 0.05 0  0.42 0.05 0  0.43 0.05 0  0.44 0.05 0  0.45 0.05 0  0.46 0.05 0  0.47 0.05 0  0.48 0.05 0  0.49 0.05 0  0.5 0.05 0  0.51 0.05 0  0.52 0.05 0  0.53 0.05 0  0.54 0.05 0  0.55 0.05 0  0.5600000000000001 0.05 0  0.57 0.05 0  0.58 0.05 0  0.59 0.05 0  0.6 0.05 0  0.61 0.05 0  0.62 0.05 0  0.63 0.05 0  0.64 0.05 0  0.65 0.05 0  0.66 0.05 0  0.67 0.05 0  0.68 0.05 0  0.6899999999999999 0.05 0  0.7 0.05 0  0.71 0.05 0  0.72 0.05 0  0.73 0.05 0  0.74 0.05 0  0.75 0.05 0  0.76 0.05 0  0.77 0.05 0  0.78 0.05 0  0.79 0.05 0  0.8 0.05 0  0.8100000000000001 0.05 0  0.82 0.05 0  0.83 0.05 0  0.84 0.05 0  0.85 0.05 0  0.86 0.05 0  0.87 0.05 0  0.88 0.05 0  0.89 0.05 0  0.9 0.05 0  0.91 0.05 0  0.92 0.05 0  0.93 0.05 0  0.9399999999999999 0.05 0  0.95 0.05 0  0.96 0.05 0  0.97 0.05 0  0.98 0.05 0  0.99 0.05 0  1 0.05 0  0 0.06 0  0.01 0.06 0  0.02 0.06 0  0.03 0.06 0  0.04 0.06 0  0.05 0.06 0  0.06 0.06 0  0.07000000000000001 0.06 0  0.08 0.06 0  0.09 0.06 0  0.1 0.06 0  0.11 0.06 0  0.12 0.06 0  0.13 0.06 0  0.14 0.06 0  0.15 0.06 0  0.16 0.06 0  0.17 0.06 0  0.18 0.06 0  0.19 0.06 0  0.2 0.06 0  0.21 0.06 0  0.22 0.06 0  0.23 0.06 0  0.24 0.06 0  0.25 0.06 0  0.26 0.06 0  0.27 0.06 0  0.28 0.06 0  0.29 0.06 0  0.3 0.06 0  0.31 0.06 0  0.32 0.06 0  0.33 0.06 0  0.34 0.06 0  0.35 0.06 0  0.36 0.06 0  0.37 0.06 0  0.38 0.06 0  0.39 0.06 0  0.4 0.06 0  0.41 0.06 0  0.42 0.06 0  0.43 0.06 0  0.44 0.06 0  0.45 0.06 0  0.46 0.06 0  0.47 0.06 0  0.48 0.06 0  0.49 0.06 0  0.5 0.06 0  0.51 0.06 0  0.52 0.06 0  0.53 0.06 0  0.54 0.06 0  0.55 0.06 0  0.5600000000000001 0.06 0  0.57 0.06 0  0.58 0.06 0  0.59 0.06 0  0.6 0.06 0  0.61 0.06 0  0.62 0.06 0  0.63 0.06 0  0.64 0.06 0  0.65 0.06 0  0.66 0.06 0  0.67 0.06 0  0.68 0.06 0  0.6899999999999999 0.06 0  0.7 0.06 0  0.71 0.06 0  0.72 0.06 0  0.73 0.06 0  0.74 0.06 0  0.75 0.06 0  0.76 0.06 0  0.77 0.06 0  0.78 0.06 0  0.79 0.06 0  0.8 0.06 0  0.8100000000000001 0.06 0  0.82 0.06 0  0.83 0.06 0  0.84 0.06 0  0.85 0.06 0  0.86 0.06 0  0.87 0.06 0  0.88 0.06 0  0.89 0.06 0  0.9 0.06 0  0.91 0.06 0  0.92 0.06 0  0.93 0.06 0  0.9399999999999999 0.06 0  0.95 0.06 0  0.96 0.06 0  0.97 0.06 0  0.98 0.06 0  0.99 0.06 0  1 0.06 0  0 0.07000000000000001 0  0.01 0.07000000000000001 0  0.02 0.07000000000000001 0  0.03 0.07000000000000001 0  0.04 0.07000000000000001 0  0.05 0.07000000000000001 0  0.06 0.07000000000000001 0  0.07000000000000001 0.07000000000000001 0  0.08 0.07000000000000001 0  0.09 0.07000000000000001 0  0.1 0.07000000000000001 0  0.11 0.07000000000000001 0  0.12 0.07000000000000001 0  0.13 0.07000000000000001 0  0.14 0.07000000000000001 0  0.15 0.07000000000000001 0  0.16 0.07000000000000001 0  0.17 0.0700
[...]
<PointData  Scalars="Indicator Function"> 
<DataArray  type="Float64"  Name="Indicator Function"  format="ascii">-4.3861309271744736e-19  1.4694839069569083e-18  3.1626196283538387e-17  1.0511410818028873e-18  8.0672691338177870e-17  -1.8201532860671834e-19  -6.4207363843043993e-20  3.4111601696543463e-17  1.4409618467620781e-16  -2.3124344470704984e-19  5.4221010649638973e-17  4.4631636579979233e-17  -2.0368723617668827e-20  -5.8957666193586578e-19  3.0716516488636809e-16  2.1666711874356403e-34  -4.3646040129437066e-19  3.4359081315918009e-16  -7.4990158060156812e-19  -9.6346833129644579e-19  8.0273078824964247e-16  -1.8222886276808239e-18  -9.5916902979841140e-19  4.6999282460122692e-17  -3.1259630695797061e-19  -8.0438982834136929e-19  -7.6513517585552127e-19  -8.8956578929272319e-19  1.1880290318072270e-15  -1.2231390684913901e-18  -2.7891945560857113e-18  -1.3945972780428562e-18  -1.3478767943089205e-18  -1.6686800829233063e-18  7.6139305222794749e-17  -7.2375891491268001e-19  -3.4842937416472653e-18  -5.9638939565307074e-18  -6.6798476945845181e-18  -5.4778873505051938e-18  7.1660637931888357e-16  -4.3854916403309231e-20  -1.3211813634053763e-18  -1.1844984257690956e-18  -1.5728323827595192e-18  -7.8641619137972617e-19  1.8588262964832994e-16  -7.7769887736870228e-19  -2.8569224798328887e-19  -5.1191427919391625e-19  -2.5595713959695827e-19  -3.7624145756632501e-19  -8.6915654370572750e-20  -5.3479411473230107e-19  -2.7046893326549921e-19  -3.0527311694137038e-21  6.0138804037553453e-19  -7.3742505899862213e-20  -3.2627783467422068e-20  -4.1334025384885635e-20  -3.7186704142097854e-21  -8.0396560339132051e-20  -3.3796248128008821e-20  -3.0837891215710233e-20  -3.4120539592227465e-20  -3.8352470078021943e-20  -2.4291285446716259e-20  6.7708474607363760e-36  2.2837215201875546e-17  -4.8134123468912232e-20  -1.4045574785682835e-20  -4.9464823989322369e-21  -2.2498810960785607e-21  -9.5663034887126804e-20  -1.5069332838128112e-19  -8.2010386598550057e-20  -2.6621230992539820e-20  -6.3112343038533906e-20  -6.8824805405814955e-20  -5.6757063862594425e-20  -2.3327050497360459e-20  4.0397314858481691e-17  -5.9428387684958904e-22  -8.7016823061205041e-20  -7.9506385185353392e-20  -5.3348434531697854e-20  -1.0147042352985204e-21  -2.0935101122930835e-20  -2.5560835170469113e-20  -7.4648785258479335e-21  -3.0812862921365190e-22  -3.0246616436328446e-21  -9.7062247464800274e-21  4.4898019157479755e-18  -7.7049003918270540e-21  -3.6188444558430546e-21  -2.1593777176817474e-22  -2.7836521759107580e-22  -1.0012164619571816e-21  -1.8807909613156600e-37  5.1721751436180650e-37  -1.9259299443872359e-34  1.6207478891264868e-02  2.9318436056837673e-02  6.2191792503026883e-03  8.5934321588123346e-03  1.9311651706640110e-03  2.3133140790237332e-03  1.2802533332156411e-03  2.5444309206274052e-02  2.3539066344567625e-02  4.1657115656581253e-03  3.1789841997310865e-02  7.3386060875637780e-04  2.1241737880005131e-02  1.6728922396179513e-02  3.8993268195783824e-02  1.5725143205050848e-02  8.7333163238108790e-04  2.7018051831694142e-02  3.4712604942479061e-02  2.4962122048707288e-02  4.1995589514707908e-02  3.2827433538339404e-02  1.7278853140741943e-02  1.1262468892266468e-02  2.8981197849430457e-02  2.7566899942967880e-02  1.6314779557065354e-02  7.8676028501881556e-03  1.5639729178025381e-02  1.4214250023307786e-02  5.0245662253805695e-02  3.4202521575447127e-02  7.1799289266404028e-03  2.6470303535295649e-02  1.3040675638940593e-02  1.8370172482597636e-02  5.3582369744829085e-02  8.0644777528820835e-02  8.0011049588479585e-02  5.8675320927811234e-02  3.2414823967517166e-02  7.9001994068923428e-04  2.3405277613340561e-02  9.6353878689882586e-03  2.8333629331648080e-02  3.4305314638438729e-02  1.4252123041244744e-02  1.4009777497296563e-02  5.1465740062407164e-03  9.2218278280934290e-03  7.2925941666006711e-03  3.1314664690877971e-03  3.9590036646055685e-03  7.6544924710105150e-03  1.0450889127739311e-03  5.4993115828186079e-05  2.6568537767358881e-03  1.1755397877264587e-03  1.4892152105687492e-03  1.3397922153399091e-04  4.6131502586833683e-04  1.2176381638065701e-03  2.5557750552849856e-04  4.2773730878760858e-04  4.0079234317913899e-04  4.9050050821890126e-04  1.9234264223527608e-04  1.4512144072548097e-04  7.2212423821109808e-04  5.0604516296804509e-04  1.7821581030900735e-04  8.1060509327418728e-05  5.2689964969245234e-04  1.5705790646378247e-03  1.9293601378617168e-03  5.1268771717210193e-04  4.7956546391258494e-04  8.9714816640698819e-04  7.9126338871440621e-04  6.2681267229169142e-04  1.0681644756442003e-04  2.1411333170656569e-05  9.5503205697129105e-04  1.0900396991679838e-03  8.8723985719333872e-04  5.1742003091434551e-04  3.8440218961183822e-04  4.4501885086817723e-04  2.3795364556192480e-04  1.5498473808536655e-05  5.5507519188351513e-06  5.1712084245329241e-05  1.4899575848302177e-04  1.0112808726030473e-04  8.8235102504084049e-05  4.4356798196328152e-05  1.5733716201451589e-05  5.0145819608643031e-06  1.5529021359518124e-05  4.3101692658082199e-22  -1.0536890371568640e-18  2.9680226320709748e-03  7.0555099151454644e-03  2.4903642492056883e-03  9.6852316125824386e-03  2.9571361611724425e-02  6.0263256153585965e-03  2.2440395982832990e-02  4.5955051557038159e-03  1.6115042881070355e-02  4.1500703657926477e-02  2.9744698244870471e-02  1.2448361475064248e-02  5.1783433812414112e-02  5.6605724460948609e-02  3.2849748031195787e-02  1.4752769634475714e-02  6.2593782116398738e-02  2.2042861532962126e-02  1.3559822199585052e-02  1.0063572280196234e-02  3.2614180781390716e-02  4.0626390681394335e-02  4.3702331656635451e-02  2.2423100082443911e-02  6.3668699420626139e-04  2.4974030651725307e-02  3.5244747499651174e-02  5.6524604988863317e-02  2.7239776272518727e-02  4.9460214693292343e-02  6.2150138694591857e-02  1.6204762361049310e-02  4.3404084711501402e-02  3.0324683092506872e-02  2.8445167424492868e-02  1.7722042593754050e-02  5.8787108338365889e-02  9.4034410259928883e-02  1.0096810242448481e-01  1.1771568457333265e-01  5.9873139821988879e-02  1.0688398573079667e-02  2.1821995862010171e-03  3.0521687741567431e-02  2.5606097950283617e-02  8.7735810006961158e-03  7.0245859148316660e-03  1.7151047093870702e-02  1.3403764126229340e-02  1.7440168229870000e-02  6.3058403039405941e-03  4.9425354503221759e-03  3.0906027594994829e-03  1.5635157504097576e-02  2.9707566168509646e-03  1.3702210480912461e-03  2.4697836249210252e-03  1.8852162027213665e-03  1.2427918101517389e-03  2.5623251199346254e-03  1.3539133031471018e-03  2.2111679568628637e-03  4.0766243099313575e-04  9.6917422333485219e-04  4.9047543725333725e-04  6.0641293037199892e-04  6.0498245076926924e-04  2.2496440053507054e-05  6.8208200765082732e-04  1.1952346910091805e-03  9.4715852641115498e-05  2.0023746881926068e-04  2.4544757174007139e-05  1.6665313397892588e-03  2.7161057174967126e-03  1.6940686998755665e-03  6.1054350429070442e-04  1.0845266502912444e-03  1.1014156054383287e-03  7.9868376897509411e-04  6.3237326672389632e-04  2.7056026411287896e-04  7.6026022488314760e-04  1.8259390181807184e-03  1.2086576004116309e-03  9.1078131448254454e-04  4.3752322234719344e-04  6.6663912711113337e-04  4.8505807954578951e-04  1.2298658843663395e-04  9.5324900842696470e-05  2.3874918129343523e-05  1.8817903382027464e-04  1.8636377377843886e-04  1.3585308413477276e-04  9.9578647862678165e-05  5.2421426876918604e-05  1.8087284415585242e-05  1.0615164500613536e-05  1.3338648408925632e-21  6.7407548053553255e-34  2.1864024697874910e-02  8.3433286312899983e-03  4.2604779346168666e-02  2.2721334235533297e-02  3.0897206238662041e-04  1.4510131265704681e-04  1.0113282528854232e-03  3.4584974788205427e-03  4.7146363419034519e-02  7.7594197182301539e-02  4.8870905311496765e-02  4.8604091850004201e-02  3.6127286673288912e-02  1.8370969706950888e-02  3.6238154536220361e-02  1.0134800702702573e-01  1.0789061775069320e-02  7.2929872050361754e-03  4.3255355638047624e-02  7.7540232163048617e-02  7.3288330986535269e-02  1.0890984726299982e-01  1.1190474933688209e-01  7.4829242697285719e-02  3.4459883678597175e-02  5.7015954421485181e-02  6.3837655982809799e-02  3.0880351883270894e-02  3.2446456717974255e-02  4.1577438604042831e-02  4.0095280638935728e-02  1.2280729928716769e-01  9.1880946737775859e-02  1.2542755075859260e-03  4.4072684410255435e-02  1.5353368281955047e-02  4.9296950865930597e-02  9.9529032253588542e-02  1.3051583186951929e-01  1.0740227386523968e-01  8.5093002087076486e-02  4.6139426929201539e-02  2.3034722568226772e-02  3.3859492030109038e-02  5.4994508220948318e-03  7.2683686148522178e-02  9.1771051925004121e-02  5.0246381176089643e-02  4.1664062622759485e-02  2.5540223037228579e-02  2.8105703660462968e-02  2.1991722564404997e-02  1.4301228661323477e-03  8.7997653356930092e-03  1.6441889436370181e-02  4.3272267755946362e-03  2.2042855330679950e-03  6.9263130073099139e-03  2.9988532948964420e-03  2.8346591980086340e-03  1.0936188310472919e-04  1.2744848458375943e-04  2.6772552865476844e-03  1.3505120695124463e-03  9.9431339559165745e-04  4.4288827087693775e-04  7.8552505736914592e-04  3.2246376535329104e-04  1.2267458017386731e-04  1.4539956050590619e-03  8.6339997789471317e-04  8.1109443516953034e-04  2.5990381833384640e-04  8.0877347217732430e-04  2.8349956674940577e-03  3.0149912513070848e-03  1.2718960190157333e-04  1.4375492499455874e-03  1.2741483596760686e-03  8.4534190872479213e-04  7.2277450194636504e-04  9.3729240047658871e-05  1.2837396648481385e-04  2.0241469367774457e-03  1.8691791701804926e-03  1.0296049762012996e-03  5.5262313310106145e-04  5.0007475054446499e-04  8.4125095568155449e-04  3.0205566571587914e-04  9.6419058836502971e-05  4.1773230644001519e-05  3.5316394165168548e-05  2.8343276414896705e-04  1.4613781614705460e-04  1.4436427495003715e-04  8.1132695700278346e-05  4.9567121731406017e-05  2.1872273608499545e-05  -3.0353877201321806e-21  -4.2845540802824923e-19  9.5232714468641219e-03  1.0814885104427211e-02  1.9150873404975677e-02  1.0528797702164402e-04  3.7891141617431407e-03  2.9639145229210819e-02  3.2800805486656114e-02  3.3908256811279985e-02  1.6877073850929850e-02  5.0349358590655808e-03  2.5329736318031548e-02  4.2793615847956420e-02  5.5926635233330670e-02  5.2972728703290776e-02  1.1342069977759670e-01  3.8065290708770642e-04  4.1604220834611568e-03  8.1620576408408918e-02  5.2022555311743997e-02  4.3892085983324544e-02  4.8004139907143438e-02  5.6286436512404921e-03  2.0227398942144984e-02  2.4557066627504946e-02  1.8624462128963827e-02  7.6333735763640144e-03  6.3117282945818781e-02  8.1536485214286802e-02  9.1815048924139317e-02  4.2289995176481646e-02  7.1333647996177793e-02  8.7287804867592966e-02  5.0754748207611743e-02  1.0730695038938008e-01  2.2641241240841829e-02  2.9232361341710519e-02  3.0585275202497639e-02  8.0876205457922776e-02  1.2063162617301028e-01  1.2873293190878479e-01  1.3763494539114593e-01  4.7403678556207612e-02  2.7108835714472101e-02  1.4173021544749787e-03  4.4067057947582929e-02  4.5025629996751367e-02  1.5544569028586771e-02  4.7106877714570901e-02  1.6917962369411112e-03  1.0079383969398770e-02  1.5500070182176130e-02  1.6384923745187973e-03  1.3788056094639425e-02  2.6296796816875621e-03  2.5540355716385611e-02  3.7946467829844143e-03  7.0581421051360109e-03  1.9649673236420864e-03  5.1444488363716788e-03  3.7304306741279022e-03  4.8449260424083419e-03  2.7826272476547094e-03  3.1487023039379340e-03  7.8151071798972162e-04  2.1571455602557850e-03  6.6067089684069939e-04  5.8189061887888016e-04  7.8548227599984884e-04  1.0599330216647144e-04  7.9830283247600965e-04  1.8495320805207770e-03  2.7045655713868921e-04  6.3633473119686609e-04  3.6509265391093627e-04  2.0969153868765603e-03  3.6280443540476826e-03  1.9360072622433900e-03  1.8441950967309970e-03  1.7329315680787755e-03  1.1052555883668644e-03  5.8809611791756805e-04  6.0581448597788162e-04  5.9400893949083813e-04  9.2688070602206128e-04  2.7842657352354161e-03  1.3780774481258013e-03  7.9525514708409461e-04  2.3410983240835015e-04  8.0720685682286915e-04  7.0090720440350678e-04  6.0364187495592626e-05  2.2121736078998248e-04  7.3259571312504776e-05  2.0052037040134426e-04  2.4762950458660603e-04  1.3251901056013501e-04  1.1459222112885788e-04  6.1269500762324387e-05  3.1746011167774947e-05  -1.8382534178899977e-21  -1.3801472325108210e-18  4.1969392381574246e-02  3.7175129105736879e-02  4.8298028701920202e-03  4.8114372400891239e-02  4.7147155210759122e-02  5.3801356377801640e-03  1.6910018155757062e-02  9.5357323571789096e-03  2.5172112219858465e-02  4.5423340898059855e-02  9.1325887359650582e-02  8.8923622440414782e-02  2.3136757045541037e-02  3.9828795331531171e-02  1.7721405799047109e-02  6.8551239959208244e-03  1.2277587004794854e-01  4.1505816021467377e-02  3.1337170933614336e-02  2.4094482176466692e-02  7.7291004019315809e-02  7.9856822724750823e-02  1.3111436102622345e-01  1.5302595236183270e-01  1.1639219337244432e-01  5.5014130702010465e-02  5.7295507648050172e-02  6.1714721461652751e-02  2.0357433303445034e-02  6.9644621748162924e-02  7.3906584741697812e-02  6.7412609045894079e-02  1.7770363501426600e-01  9.9386813707690355e-02  2.4764345411453007e-02  5.5331874127052656e-02  1.7863137172459024e-02  7.2440850050232333e-02  1.2403603434837200e-01  1.4627575923354441e-01  1.1287706459825915e-01  1.0371760599427098e-01  3.9050443673966491e-02  5.6061960774536491e-02  3.4133898066110120e-02  4.7573482898261464e-03  1.0197683316447499e-01  1.0970625012208490e-01  5.4841764370490778e-02  5.2336083699043405e-02  4.0878819826457552e-02  4.0264236387018336e-02  3.0196472952448105e-02  2.9746878266914702e-03  9.5227485596134694e-03  2.5696616084137276e-02  8.3974719407588598e-03  6.0950355652965842e-03  8.5997896031674986e-03  2.5153768687946197e-03  1.8937079414420937e-03  1.1215817065539750e-03  1.1309891526289893e-03  4.0094104527536164e-03  1.8630653916323762e-03  1.7489553820196388e-03  4.3503345487526732e-04  8.2331173309255603e-04  4.1439039453969030e-04  7.3708559885383599e-05  1.7714067827280229e-03  1.2934172525462609e-03  1.2705143573070836e-03  2.4512125105323235e-04  5.1709527630757618e-04  3.4003096319322485e-03  3.6571601108745873e-03  4.9223226941191996e-04  2.5201737363930283e-03  1.5947372781152823e-03  7.0470086330131851e-04  5.6193577055595753e-04  1.6473405873324309e-05  4.6426216365851568e-04  2.4462865737814197e-03  2.5116408838654803e-03  9.2021945217419263e-04  3.9391339136808802e-04  3.2484362965226149e-04  1.0411748215503596e-03  3.6395757076269523e-04  2.0225609484802225e-04  1.1165203206694125e-04  2.6436019482858847e-05  3.2087586336722117e-04  1.5626857500306910e-04  1.3536167472464209e-04  7.5591855546439861e-05  4.0517005659789652e-05  -1.4762819121760561e-21  -1.4821988392883120e-19  2.6461794965680449e-02  5.2088293952197492e-03  8.2082942426092917e-03  3.8854380295589290e-02  2.2851551229106787e-02  3.0660327624349509e-03  2.1025114146065296e-02  4.0161269810857721e-02  3.0984173398825778e-02  1.4007371993436943e-02  1.8232431693616831e-02  9.9815865279862942e-03  8.1063754711084360e-03  7.8633478651443905e-02  2.4825291384181034e-02  1.1910405797541777e-01  2.0825177436742767e-02  2.5350768841892836e-02  6.3626539829320788e-02  4.9676861009455120e-02  4.8605938155546952e-02  7.4010739680918466e-02  2.1119013632880122e-02  1.3389426152244071e-02  2.4869422250523618e-02  1.3472464890538150e-02  1.6063230497724176e-02  8.3429472273484642e-02  1.1214584697158357e-01  1.0219470950628493e-01  2.7322032497010623e-02  9.0971626903957062e-02  8.4419230918691676e-02  8.9276688138155355e-02  1.5048171567714497e-01  1.5865166308683499e-02  3.3034863158247135e-02  2.9604596890335649e-02  9.7840330112429555e-02  1.4410156245466790e-01  1.4951535178251121e-01  1.3809016185555348e-01  4.2674433222940483e-02  3.1333766570557871e-02  1.8637863483573908e-02  5.3111442490717219e-02  5.6104414213777438e-02  4.3417436602606288e-02  8.4285137367387880e-02  2.5011634939846983e-02  4.8992281304567793e-03  2.0587656368158797e-03  1.0454286989803819e-02  2.5276915004928319e-02  1.0275075662989927e-03  3.0028843041343643e-02  8.2695956965711890e-03  1.2881039693636654e-02  5.4534566250928217e-05  8.0115292974710338e-03  5.2569759157742322e-03  5.5632341890733891e-03  3.0458851126857370e-03  2.9032448611138006e-03  1.6456944294838394e-03  3.1300771984337865e-03  1.0166697121201957e-03  5.3160910472424257e-04  8.5613317819342694e-04  9.8470270789054697e-05  7.1983644026123346e-04  2.3152015886399101e-03  1.3973349012821613e-04  1.0985153450517962e-03  6.6314782213418961e-04  2.1021414463839139e-03  4.2948991727512929e-03  2.2396488106596522e-03  2.6995449453362150e-03  2.5043403221941874e-03  1.1311573514502008e-03  3.7784185911947691e-04  4.7874248262955974e-04  7.6075731883962184e-04  8.4273152574685186e-04  3.3917670460661127e-03  1.6831964282390665e-03  5.7220705324977398e-04  4.5634506073986215e-05  7.6746785122287287e-04  9.0744354600953323e-04  1.8852497908256354e-05  3.2981554262729500e-04  6.0890815016897932e-05  1.6986541339252101e-04  2.9283999163439063e-04  1.2642639474037075e-04  1.0923776077545843e-04  4.6497697498275289e-05  -2.5811407177320326e-21  -5.5126701936611290e-19  2.6700920561231450e-03  1.6872069183898577e-02  9.2677949595351399e-03  3.0288030210510151e-02  3.1444218203838699e-02  5.2703219316487908e-02  2.8288167237056662e-03  3.3613772080478582e-02  2.2437142359272133e-02  3.6427644509401703e-02  3.4806908119418563e-02  7.7421975703529364e-02  7.5873802251371830e-02  1.2325516092658162e-02  1.0338001918981475e-02  2.4806781425824251e-02  2.8921158249606164e-02  1.0689211930793296e-01  3.4230743617809214e-02  3.1877795318916574e-02  6.2127850437434596e-03  5.8794849491864642e-02  5.2712702112306421e-02  1.1053040727477144e-01  1.3644338383128188e-01  1.0255638352993209e-01  4.8978741475035732e-02  4.6500186178430089e-02  3.9638676906059697e-02  1.0509167446640124e-03  9.3129482867911922e-02  9.4897492271131284e-02  8.1284508999247204e-02  2.0460960433460912e-01  7.5892692722484972e-02  7.3192791881762753e-02  5.6669987002954933e-02  1.7524677697682522e-02  8.8112011407724775e-02  1.4326139393563780e-01  1.5897859362041999e-01  1.2739029359384543e-01  1.1434824829235241e-01  2.4447416887210648e-02  7.5957435872307646e-02  3.8709492606269318e-02  4.5001219018525407e-03  1.1674045375551646e-01  9.6949629551948427e-02  2.4699575033065583e-02  3.5607508501701017e-02  3.5153053085280279e-02  3.6809559514960496e-02  2.5959283583138343e-02  1.0528207516777275e-02  1.1473533144175671e-02  3.2815377162270072e-02  8.5286336792778188e-03  1.1277679223460960e-02  8.0522846117460530e-03  2.5029910246406590e-05  5.2185382353690304e-05  2.5204078461560577e-03  2.1823694382622954e-03  4.6225624578195845e-03  1.7139882709451329e-03  2.6991570112929915e-03  6.1164823075950938e-04  8.0814615702162328e-04  5.0767757137935312e-04  1.2213670491063703e-04  1.8739407647191746e-03  1.7590214282999881e-03  1.3805839458644771e-03  1.9277593079747790e-05  1.3275448776469252e-04  3.6913823303898101e-03  4.2563495156494350e-03  5.2796156782512294e-04  3.5851517068712781e-03  2.0957228094957581e-03  5.8092588774897029e-04  3.6222388291672574e-04  1.2058052549286815e-04  6.7016157817826759e-04  2.6093536951939259e-03  3.1508074787282795e-03  9.8086470869189067e-04  1.8998033628485992e-04  1.2770730362609200e-04  1.1205312614977869e-03  5.1009623196804691e-04  2.8724204322761387e-04  1.9049088705399211e-04  4.3309848176090955e-05  3.1716867546675262e-04  1.9199247849226449e-04  1.2839164088593240e-04  6.9317611496871423e-05  -9.6197510369810235e-21  -2.4932877140783181e-19  1.0513426790034057e-02  1.0043057335353048e-02  1.0664679872048204e-02  1.4356023283029498e-02  1.8780810370183275e-02  4.3141630862731789e-02  7.2967906558353635e-03  9.3812412217990533e-03  3.1909128117449601e-02  2.8705989741506656e-02  6.1745763725327306e-03  7.2516093234962420e-03  1.4795604714136762e-02  2.0332650962349499e-02  6.5040016002529344e-02  1.5819885352310083e-0