<?xml version="1.0"?>
<VTKFile type="UnstructuredGrid"  version="0.1"  >
<UnstructuredGrid>
<Piece  NumberOfPoints="40401" NumberOfCells="80000">
<Points>
<DataArray  type="Float64"  NumberOfComponents="3"  format="ascii">0 0 0  0.005 0 0  0.01 0 0  0.015 0 0  0.02 0 0  0.025 0 0  0.03 0 0  0.035 0 0  0.04 0 0  0.045 0 0  0.05 0 0  0.055 0 0  0.06 0 0  0.065 0 0  0.07000000000000001 0 0  0.075 0 0  0.08 0 0  0.08500000000000001 0 0  0.09 0 0  0.095 0 0  0.1 0 0  0.105 0 0  0.11 0 0  0.115 0 0  0.12 0 0  0.125 0 0  0.13 0 0  0.135 0 0  0.14 0 0  0.145 0 0  0.15 0 0  0.155 0 0  0.16 0 0  0.165 0 0  0.17 0 0  0.175 0 0  0.18 0 0  0.185 0 0  0.19 0 0  0.195 0 0  0.2 0 0  0.205 0 0  0.21 0 0  0.215 0 0  0.22 0 0  0.225 0 0  0.23 0 0  0.235 0 0  0.24 0 0  0.245 0 0  0.25 0 0  0.255 0 0  0.26 0 0  0.265 0 0  0.27 0 0  0.275 0 0  0.28 0 0  0.285 0 0  0.29 0 0  0.295 0 0  0.3 0 0  0.305 0 0  0.31 0 0  0.315 0 0  0.32 0 0  0.325 0 0  0.33 0 0  0.335 0 0  0.34 0 0  0.345 0 0  0.35 0 0  0.355 0 0  0.36 0 0  0.365 0 0  0.37 0 0  0.375 0 0  0.38 0 0  0.385 0 0  0.39 0 0  0.395 0 0  0.4 0 0  0.405 0 0  0.41 0 0  0.415 0 0  0.42 0 0  0.425 0 0  0.43 0 0  0.435 0 0  0.44 0 0  0.445 0 0  0.45 0 0  0.455 0 0  0.46 0 0  0.465 0 0  0.47 0 0  0.475 0 0  0.48 0 0  0.485 0 0  0.49 0 0  0.495 0 0  0.5 0 0  0.505 0 0  0.51 0 0  0.515 0 0  0.52 0 0  0.525 0 0  0.53 0 0  0.535 0 0  0.54 0 0  0.545 0 0  0.55 0 0  0.555 0 0  0.5600000000000001 0 0  0.5649999999999999 0 0  0.57 0 0  0.575 0 0  0.58 0 0  0.585 0 0  0.59 0 0  0.595 0 0  0.6 0 0  0.605 0 0  0.61 0 0  0.615 0 0  0.62 0 0  0.625 0 0  0.63 0 0  0.635 0 0  0.64 0 0  0.645 0 0  0.65 0 0  0.655 0 0  0.66 0 0  0.665 0 0  0.67 0 0  0.675 0 0  0.68 0 0  0.6850000000000001 0 0  0.6899999999999999 0 0  0.695 0 0  0.7 0 0  0.705 0 0  0.71 0 0  0.715 0 0  0.72 0 0  0.725 0 0  0.73 0 0  0.735 0 0  0.74 0 0  0.745 0 0  0.75 0 0  0.755 0 0  0.76 0 0  0.765 0 0  0.77 0 0  0.775 0 0  0.78 0 0  0.785 0 0  0.79 0 0  0.795 0 0  0.8 0 0  0.805 0 0  0.8100000000000001 0 0  0.8149999999999999 0 0  0.82 0 0  0.825 0 0  0.83 0 0  0.835 0 0  0.84 0 0  0.845 0 0  0.85 0 0  0.855 0 0  0.86 0 0  0.865 0 0  0.87 0 0  0.875 0 0  0.88 0 0  0.885 0 0  0.89 0 0  0.895 0 0  0.9 0 0  0.905 0 0  0.91 0 0  0.915 0 0  0.92 0 0  0.925 0 0  0.93 0 0  0.9350000000000001 0 0  0.9399999999999999 0 0  0.945 0 0  0.95 0 0  0.955 0 0  0.96 0 0  0.965 0 0  0.97 0 0  0.975 0 0  0.98 0 0  0.985 0 0  0.99 0 0  0.995 0 0  1 0 0  0 0.005 0  0.005 0.005 0  0.01 0.005 0  0.015 0.005 0  0.02 0.005 0  0.025 0.005 0  0.03 0.005 0  0.035 0.005 0  0.04 0.005 0  0.045 0.005 0  0.05 0.005 0  0.055 0.005 0  0.06 0.005 0  0.065 0.005 0  0.07000000000000001 0.005 0  0.075 0.005 0  0.08 0.005 0  0.08500000000000001 0.005 0  0.09 0.005 0  0.095 0.005 0  0.1 0.005 0  0.105 0.005 0  0.11 0.005 0  0.115 0.005 0  0.12 0.005 0  0.125 0.005 0  0.13 0.005 0  0.135 0.005 0  0.14 0.005 0  0.145 0.005 0  0.15 0.005 0  0.155 0.005 0  0.16 0.005 0  0.165 0.005 0  0.17 0.005 0  0.175 0.005 0  0.18 0.005 0  0.185 0.005 0  0.19 0.005 0  0.195 0.005 0  0.2 0.005 0  0.205 0.005 0  0.21 0.005 0  0.215 0.005 0  0.22 0.005 0  0.225 0.005 0  0.23 0.005 0  0.235 0.005 0  0.24 0.005 0  0.245 0.005 0  0.25 0.005 0  0.255 0.005 0  0.26 0.005 0  0.265 0.005 0  0.27 0.005 0  0.275 0.005 0  0.28 0.005 0  0.285 0.005 0  0.29 0.005 0  0.295 0.005 0  0.3 0.005 0  0.305 0.005 0  0.31 0.005 0  0.315 0.005 0  0.32 0.005 0  0.325 0.005 0  0.33 0.005 0  0.335 0.005 0  0.34 0.005 0  0.345 0.005 0  0.35 0.005 0  0.355 0.005 0  0.36 0.005 0  0.365 0.005 0  0.37 0.005 0  0.375 0.005 0  0.38 0.005 0  0.385 0.005 0  0.39 0.005 0  0.395 0.005 0  0.4 0.005 0  0.405 0.005 0  0.41 0.005 0  0.415 0.005 0  0.42 0.005 0  0.425 0.005 0  0.43 0.005 0  0.435 0.005 0  0.44 0.005 0  0.445 0.005 0  0.45 0.005 0  0.455 0.005 0  0.46 0.005 0  0.465 0.005 0  0.47 0.005 0  0.475 0.005 0  0.48 0.005 0  0.485 0.005 0  0.49 0.005 0  0.495 0.005 0  0.5 0.005 0  0.505 0.005 0  0.51 0.005 0  0.515 0.005 0  0.52 0.005 0  0.525 0.005 0  0.53 0.005 0  0.535 0.005 0  0.54 0.005 0  0.545 0.005 0  0.55 0.005 0  0.555 0.005 0  0.5600000000000001 0.005 0  0.5649999999999999 0.005 0  0.57 0.005 0  0.575 0.005 0  0.58 0.005 0  0.585 0.005 0  0.59 0.005 0  0.595 0.005 0  0.6 0.005 0  0.605 0.005 0  0.61 0.005 0  0.615 0.005 0  0.62 0.005 0  0.625 0.005 0  0.63 0.005 0  0.635 0.005 0  0.64 0.005 0  0.645 0.005 0  0.65 0.005 0  0.655 0.005 0  0.66 0.005 0  0.665 0.005 0  0.67 0.005 0  0.675 0.005 0  0.68 0.005 0  0.6850000000000001 0.005 0  0.6899999999999999 0.005 0  0.695 0.005 0  0.7 0.005 0  0.705 0.005 0  0.71 0.005 0  0.715 0.005 0  0.72 0.005 0  0.725 0.005 0  0.73 0.005 0  0.735 0.005 0  0.74 0.005 0  0.745 0.005 0  0.75 0.005 0  0.755 0.005 0  0.76 0.005 0  0.765 0.005 0  0.77 0.005 0  0.775 0.005 0  0.78 0.005 0  0.785 0.005 0  0.79 0.005 0  0.795 0.005 0  0.8 0.005 0  0.805 0.005 0  0.8100000000000001 0.005 0  0.8149999999999999 0.005 0  0.82 0.005 0  0.825 0.005 0  0.83 0.005 0  0.835 0.005 0  0.84 0.005 0  0.845 0.005 0  0.85 0.005 0  0.855 0.005 0  0.86 0.005 0  0.865 0.005 0  0.87 0.005 0  0.875 0.005 0  0.88 0.005 0  0.885 0.005 0  0.89 0.005 0  0.895 0.005 0  0.9 0.005 0  0.905 0.005 0  0.91 0.005 0  0.915 0.005 0  0.92 0.005 0  0.925 0.005 0  0.93 0.005 0  0.9350000000000001 0.005 0  0.9399999999999999 0.005 0  0.945 0.005 0  0.95 0.005 0  0.955 0.005 0  0.96 0.005 0  0.965 0.005 0  0.97 0.005 0  0.975 0.005 0  0.98 0.005 0  0.985 0.005 0  0.99 0.005 0  0.995 0.005 0  1 0.005 0  0 0.01 0  0.005 0.01 0  0.01 0.01 0  0.015 0.01 0  0.02 0.01 0  0.025 0.01 0  0.03 0.01 0  0.035 0.01 0  0.04 0.01 0  0.045 0.01 0  0.05 0.01 0  0.055 0.01 0  0.06 0.01 0  0.065 0.01 0  0.07000000000000001 0.01 0  0.075 0.01 0  0.08 0.01 0  0.08500000000000001 0.01 0  0.09 0.01 0  0.095 0.01 0  0.1 0.01 0  0.105 0.01 0  0.11 0.01 0  0.115 0.01 0  0.12 0.01 0  0.125 0.01 0  0.13 0.01 0  0.135 0.01 0  0.14 0.01 0  0.145 0.01 0  0.15 0.01 0  0.155 0.01 0  0.16 0.01 0  0.165 0.01 0  0.17 0.01 0  0.175 0.01 0  0.18 0.01 0  0.185 0.01 0  0.19 0.01 0  0.195 0.01 0  0.2 0.01 0  0.205 0.01 0  0.21 0.01 0  0.215 0.01 0  0.22 0.01 0  0.225 0.01 0  0.23 0.01 0  0.235 0.01 0  0.24 0.01 0  0.245 0.01 0  0.25 0.01 0  0.255 0.01 0  0.26 0.01 0  0.265 0.01 0  0.27 0.01 0  0.275 0.01 0  0.28 0.01 0  0.285 0.01 0  0.29 0.01 0  0.295 0.01 0  0.3 0.01 0  0.305 0.01 0  0.31 0.01 0  0.315 0.01 0  0.32 0.01 0  0.325 0.01 0  0.33 0.01 0  0.335 0.01 0  0.34 0.01 0  0.345 0.01 0  0.35 0.01 0  0.355 0.01 0  0.36 0.01 0  0.365 0.01 0  0.37 0.01 0  0.375 0.01 0  0.38 0.01 0  0.385 0.01 0  0.39 0.01 0  0.395 0.01 0  0.4 0.01 0  0.405 0.01 0  0.41 0.01 0  0.415 0.01 0  0.42 0.01 0  0.425 0.01 0  0.43 0.01 0  0.435 0.01 0  0.44 0.01 0  0.445 0.01 0  0.45 0.01 0  0.455 0.01 0  0.46 0.01 0  0.465 0.01 0  0.47 0.01 0  0.475 0.01 0  0.48 0.01 0  0.485 0.01 0  0.49 0.01 0  0.495 0.01 0  0.5 0.01 0  0.505 0.01 0  0.51 0.01 0  0.515 0.01 0  0.52 0.01 0  0.525 0.01 0  0.53 0.01 0  0.535 0.01 0  0.54 0.01 0  0.545 0.01 0  0.55 0.01 0  0.555 0.01 0  0.5600000000000001 0.01 0  0.5649999999999999 0.01 0  0.57 0.01 0  0.575 0.01 0  0.58 0.01 0  0.585 0.01 0  0.59 0.01 0  0.595 0.01 0  0.6 0.01 0  0.605 0.01 0  0.61 0.01 0  0.615 0.01 0  0.62 0.01 0  0.625 0.01 0  0.63 0.01 0  0.635 0.01 0  0.64 0.01 0  0.645 0.01 0  0.65 0.01 0  0.655 0.01 0  0.66 0.01 0  0.665 0.01 0  0.67 0.01 0  0.675 0.01 0  0.68 0.01 0  0.6850000000000001 0.01 0  0.6899999999999999 0.01 0  0.695 0.01 0  0.7 0.01 0  0.705 0.01 0  0.71 0.01 0  0.715 0.01 0  0.72 0.01 0  0.725 0.01 0  0.73 0.01 0  0.735 0.01 0  0.74 0.01 0  0.745 0.01 0  0.75 0.01 0  0.755 0.01 0  0.76 0.01 0  0.765 0.01 0  0.77 0.01 0  0.775 0.01 0  0.78 0.01 0  0.785 0.01 0  0.79 0.01 0  0.795 0.01 0  0.8 0.01 0  0.805 0.01 0  0.8100000000000001 0.01 0  0.8149999999999999 0.01 0  0.82 0.01 0  0.825 0.01 0  0.83 0.01 0  0.835 0.01 0  0.84 0.01 0  0.845 0.01 0  0.85 0.01 0  0.855 0.01 0  0.86 0.01 0  0.865 0.01 0  0.87 0.01 0  0.875 0.01 0  0.88 0.01 0  0.885 0.01 0  0.89 0.01 0  0.895 0.01 0  0.9 0.01 0  0.905 0.01 0  0.91 0.01 0  0.915 0.01 0  0.92 0.01 0  0.925 0.01 0  0.93 0.01 0  0.9350000000000001 0.01 0  0.9399999999999999 0.01 0  0.945 0.01 0  0.95 0.01 0  0.955 0.01 0  0.96 0.01 0  0.965 0.01 0  0.97 0.01 0  0.975 0.01 0  0.98 0.01 0  0.985 0.01 0  0.99 0.01 0  0.995 0.01 0  1 0.01 0  0 0.015 0  0.005 0.015 0  0.01 0.015 0  0.015 0.015 0  0.02 0.015 0  0.025 0.015 0  0.03 0.015 0  0.035 0.015 0  0.04 0.015 0  0.045 0.015 0  0.05 0.015 0  0.055 0.015 0  0.06 0.015 0  0.065 0.015 0  0.07000000000000001 0.015 0  0.075 0.015 0  0.08 0.015 0  0.08500000000000001 0.015 0  0.09 0.015 0  0.095 0.015 0  0.1 0.015 0  0.105 0.015 0  0.11 0.015 0  0.115 0.015 0  0.12 0.015 0  0.125 0.015 0  0.13 0.015 0  0.135 0.015 0  0.14 0.015 0  0.145 0.015 0  0.15 0.015 0  0.155 0.015 0  0.16 0.015 0  0.165 0.015 0  0.17 0.015 0  0.175 0.015 0  0.18 0.015 0  0.185 0.015 0  0.19 0.015 0  0.195 0.015 0  0.2 0.015 0  0.205 0.015 0  0.21 0.015 0  0.215 0.015 0  0.22 0.015 0  0.225 0.015 0  0.23 0.015 0  0.235 0.015 0  0.24 0.015 0  0.245 0.015 0  0.25 0.015 0  0.255 0.015 0  0.26 0.015 0  0.265 0.015 0  0.27 0.015 0  0.275 0.015 0  0.28 0.015 0  0.285 0.015 0  0.29 0.015 0  0.295 0.015 0  0.3 0.015 0  0.305 0.015 0  0.31 0.015 0  0.315 0.015 0  0.32 0.015 0  0.325 0.015 0  0.33 0.015 0  0.335 0.015 0  0.34 0.015 0  0.345 0.015 0  0.35 0.015 0  0.355 0.015 0  0.36 0.015 0  0.365 0.015 0  0.37 0.015 0  0.375 0.015 0  0.38 0.015 0  0.385 0.015 0  0.39 0.015 0  0.395 0.015 0  0.4 0.015 0  0.405 0.015 0  0.41 0.015 0  0.415 0.015 0  0.42 0.015 0  0.425 0.015 0  0.43 0.015 0  0.435 0.015 0  0.44 0.015 0  0.445 0.015 0  0.45 0.015 0  0.455 0.015 0  0.46 0.015 0  0.465 0.015 0  0.47 0.015 0  0.475 0.015 0  0.48 0.015 0  0.485 0.015 0  0.49 0.015 0  0.495 0.015 0  0.5 0.015 0  0.505 0.015 0  0.51 0.015 0  0.515 0.015 0  0.52 0.015 0  0.525 0.015 0  0.53 0.015 0  0.535 0.015 0  0.54 0.015 0  0.545 0.015 0  0.55 0.015 0  0.555 0.015 0  0.5600000000000001 0.015 0  0.
[...]
<PointData  Scalars="Indicator Function"> 
<DataArray  type="Float64"  Name="Indicator Function"  format="ascii">-9.4039548065783001e-38  -9.5660885493715059e-22  1.0501296990692936e-20  1.9505028823191622e-20  7.8400797136033815e-21  -3.2182229198572238e-22  -8.3301122330950024e-22  3.2002179200264832e-20  2.3836456981509820e-19  -8.9006906731193708e-22  -1.4390371247969463e-20  6.0314582868273350e-19  -1.0828422493310837e-21  -1.5569332254589066e-21  1.0127828824647227e-18  -2.2713137752702972e-21  -2.2854325812944781e-21  7.8228753207277416e-19  -2.8106975317191645e-22  -1.6550960459577808e-35  -2.3070009285860230e-20  -7.6083479343346470e-22  -2.6666264118987507e-21  8.8902306783179227e-19  1.8807909613156600e-37  -2.9654903205060247e-21  -2.6672725322720655e-21  -8.7463440685303771e-22  -2.9617816247371150e-20  -6.3026410242086776e-22  -5.9943990431287486e-21  -6.7609245558760298e-22  -1.2008092112851293e-21  1.3993084752188510e-34  1.9115125136682650e-18  -3.0703568468078358e-21  -6.1665351510914233e-21  -1.1184762788401791e-20  -2.7260327733665391e-21  -6.1096072684702133e-21  6.1950543099864391e-18  3.0092655381050560e-36  -1.2776469925056751e-21  -3.0694278264759879e-21  3.0092655381050560e-36  -3.8075691005560852e-21  2.1642498206486335e-17  -2.1604054003190833e-20  -2.2636397179502194e-20  -1.1318198589751103e-20  -1.2338852199441992e-20  -8.3357674675010767e-21  -1.8902119381203513e-20  -2.9332251827535211e-20  -1.4666125913767608e-20  -1.4358868183081486e-20  5.9401183074951371e-17  -1.3757182653530659e-20  -2.5168906914842405e-20  -2.5913875280745717e-20  -1.7134753585293692e-20  -4.5210018087917316e-20  -2.0534178321695776e-20  -3.2696942791726251e-20  -2.8231881651358229e-20  -3.3526830854068380e-20  -5.9899819982192043e-20  -1.7981839203021135e-20  2.9596866064694989e-18  -4.7154975512307286e-20  -4.5314944393192709e-20  -1.7895767009862798e-20  -2.8783512936218040e-20  -7.0925081521717461e-20  -1.0101760439100447e-19  -1.1453950150778934e-19  -1.1841766625913703e-19  -1.1664211861640097e-19  -1.0734439652235043e-19  -8.5097137206223071e-20  -4.6153815323653795e-20  8.4053992072580593e-18  -3.2558094745270840e-20  -4.8127157047451086e-20  -3.1581942991861774e-20  -3.0382061031948324e-20  -2.9625728965130518e-20  -2.1941725142481369e-20  -1.6285730362216811e-20  -2.4712093550167322e-20  -1.2356046775083670e-20  -1.2112150336611960e-20  -7.8139029436146412e-21  9.2916372338168589e-18  -3.0768486885113796e-21  -1.3129682534316097e-21  -8.2917516471761810e-22  -1.7188399308702269e-22  -2.2460311746032587e-22  -1.7453020046555826e-21  1.0049165630392225e-17  1.5556941676043008e-17  1.4686342292196572e-18  4.9032969104121976e-19  8.4682091695444058e-19  7.6522851064619631e-20  1.9371595570086146e-18  3.9722364648996057e-18  3.2543625041113697e-19  2.4380109395636070e-18  4.2851941262615998e-33  1.5745665791093147e-19  -2.2558624279200487e-23  2.2266093229916267e-20  -8.8799133263549833e-22  1.1095400125596624e-20  -7.8529955619527402e-22  9.7679788966727400e-21  -7.0722999573816676e-22  1.0011364190964244e-20  -5.4569589095739188e-22  1.0440592022745810e-20  -3.9418688731165375e-22  1.0884719488458642e-20  -2.7581968050762033e-22  1.1324857385734666e-20  -1.8658652320493278e-22  1.1750878821770212e-20  -1.2290503794076699e-22  1.2149978924927925e-20  -7.7057070501294010e-23  1.2519389211167096e-20  -4.4414244578752970e-23  1.2847115530168170e-20  -2.1761348089514675e-23  1.3122652373544851e-20  -6.3372617090082298e-24  -9.0605747283235395e-24  1.3414696866574065e-20  5.9106358676547232e-24  1.3519280784366459e-20  1.0887210905004736e-23  1.3530665932450023e-20  9.6241860692864610e-24  1.3442600760878226e-20  4.3263337815006988e-24  1.3247025535758942e-20  1.0707188726823729e-23  1.3000950861547754e-20  7.7807931474880139e-24  1.2531600326730365e-20  -2.2065059418256373e-23  1.1855898497959901e-20  -5.0000406989860597e-23  1.1282140918472118e-20  -3.3019590023647448e-23  1.0598259853985839e-20  -4.2711705703589176e-23  9.7003997245453608e-21  -5.7074151679699307e-23  8.7221376240927214e-21  -7.1659189415715372e-23  -7.1022802094887690e-24  7.1123281458635595e-21  -9.6800255145979259e-23  5.9031076969974756e-21  -1.1767276551950952e-22  4.7761826238260498e-21  -1.0692035913583359e-22  3.6951586584423068e-21  -1.0580634470755254e-22  2.5396354868973109e-21  -1.1338847275820172e-22  1.4326533419678504e-21  -1.1746169385238155e-22  4.3662969856819892e-22  9.1594016843623883e-24  1.1415894933727327e-22  7.9867576371410654e-22  9.5611089835132526e-23  1.4597226004790732e-21  7.1996198364656173e-22  5.4346063799657343e-22  1.8963411985915544e-21  6.3523769617638774e-23  1.9675879221928602e-21  3.8926167672866090e-23  -1.9689030927494448e-24  1.6168210171823749e-21  -7.1997546102044355e-24  1.1278479473113237e-21  -4.1089853903630296e-23  5.1922766700341687e-22  -6.8796444348404714e-23  7.5554661643978313e-23  2.6028189914703966e-22  7.2607773817999903e-23  3.9332615350240296e-22  1.8193887503329146e-22  2.2389081715749024e-23  -4.5917748078995606e-40  -5.7877260060151265e-22  9.8568491264558739e-07  8.5186920278852954e-06  1.7038491319080499e-06  8.0705325889689499e-06  3.5065627900400731e-06  4.0441536220456329e-06  1.5006196139568425e-05  6.4082404300090203e-06  3.2068117759040128e-05  1.7941612691833554e-05  2.7258325605696879e-06  3.2953853959622533e-05  1.9506751802353992e-05  7.0434334741078969e-05  2.5858310925020247e-05  4.0916351487795140e-05  4.1170693285993027e-05  3.0230598077224877e-05  5.0633025426006408e-06  6.7089451017886727e-06  2.7411962337579686e-05  6.6367025240226435e-06  4.8037670859854316e-05  3.8410152454749554e-06  1.6042786156031038e-05  9.6098620659488241e-05  7.4770617421232756e-05  1.5756012755154815e-05  2.2707657414460904e-05  3.9773606413550038e-05  1.2678565647017111e-04  1.2179398924209328e-05  2.1631855665947043e-05  1.2121546098126450e-04  1.1062126360942572e-04  2.2217284326897911e-04  1.1856314716256731e-04  2.0148677410429476e-04  4.9107840729333227e-05  1.1006090007064913e-04  2.0925859661957766e-05  4.6032084154876849e-05  2.9748757112728513e-05  4.0419517505867268e-05  1.1436944010003360e-05  6.2872595124806047e-05  2.0686736860098536e-04  3.8918403823384924e-04  4.0778107961046657e-04  4.4455400134069258e-04  3.0032767408387956e-04  1.0834255500636013e-04  2.8633903370362288e-04  5.2840287360170050e-04  5.1733274719033143e-04  5.2975613354866876e-05  4.9565474137686809e-04  5.8361694576276055e-04  1.6159424633064733e-04  6.1734455889451154e-04  1.4921907950608802e-04  7.3982174270358721e-04  2.3732625138905177e-04  4.7035263179736518e-04  2.7340405084141673e-04  8.6239038626433387e-04  6.4786403467327245e-04  2.3420678164462499e-04  5.0751763602557528e-04  5.9570970257077991e-04  5.1846661544859940e-04  6.3148170824209473e-05  5.1851767253586155e-04  1.0184138465817842e-03  1.3105644586818589e-03  1.4080779958978000e-03  1.4291840326060331e-03  1.3866455914430976e-03  1.2404219409919235e-03  9.1276277115300648e-04  3.7505183639683390e-04  1.8574970615532838e-04  4.9363964037311590e-04  6.2016196599465009e-04  2.5884872376181459e-04  5.4731455496892045e-04  2.6003241022730389e-04  4.2162391106892932e-04  8.2565681228479259e-05  4.4517350121631356e-04  4.3638620594096830e-04  2.8152552308136238e-04  1.8616151938778680e-04  1.1085515685644196e-04  4.5555543357819608e-05  2.3652333347615546e-05  1.4937091851388536e-05  3.0963867488706689e-06  4.0460900644023047e-06  3.1440565831264808e-05  6.4073567303783886e-05  6.6506061849228121e-05  1.8721895946342309e-05  4.0780979715025699e-05  2.3342716784982487e-06  2.3426588169125125e-06  9.6827885204394116e-06  2.4438487679620901e-05  9.7062466412909546e-06  6.2534177455517482e-07  1.7947337320356769e-06  8.1723377536132276e-07  5.1822345712087174e-07  4.5800802252187217e-07  4.1744393814608327e-07  3.8222998549478593e-07  3.4638545012637724e-07  3.1147170384725085e-07  2.7923155676473568e-07  2.5055914623001737e-07  2.2566998918550767e-07  2.0438635443318483e-07  1.8637827230204291e-07  1.7124007140748056e-07  1.5860420721467647e-07  1.4815692531677390e-07  1.3956861919635840e-07  1.3254248701609126e-07  1.2684165807661288e-07  1.2226605147055948e-07  1.1864287696627373e-07  1.1582337067794583e-07  1.1367835171126195e-07  1.1209323164250584e-07  1.1097307111149488e-07  1.1023436119075173e-07  1.0981116334456128e-07  1.0962753849193056e-07  1.0960780552391146e-07  1.0973698714192948e-07  1.1001959328671849e-07  1.1037238518487124e-07  1.1069930942799335e-07  1.1099437009917446e-07  1.1120092039817763e-07  1.1125675999975476e-07  1.1134850857873856e-07  1.1169153185463042e-07  1.1213393119272538e-07  1.1234417954994329e-07  1.1214944121107617e-07  1.1101553247583422e-07  1.0877282011950236e-07  1.0638503595148481e-07  1.0451461096892677e-07  1.0289689757196141e-07  1.0113873792917197e-07  9.9088750287859503e-08  9.6710938200075586e-08  9.4019658244962399e-08  9.1024076441224524e-08  8.7683053358176616e-08  8.4101779340650777e-08  8.0256381636006686e-08  7.5796565228919823e-08  7.0650064397828699e-08  6.5262241587883594e-08  6.0079965140856720e-08  5.5189600288810532e-08  5.0424956235046391e-08  4.5596830893772172e-08  4.0606807420762189e-08  3.5449486074869187e-08  3.0173432871866941e-08  2.4845711674139388e-08  1.9532805435493209e-08  1.4294613902805720e-08  9.1848839174400546e-09  4.2534785939248196e-09  4.5153063053832279e-10  4.8824529938726860e-09  8.9911301435715760e-09  1.2728393413144723e-08  1.6043636820172193e-08  1.8884438525940326e-08  2.1196314002237124e-08  2.2922897352000734e-08  2.4007156263339821e-08  2.4394618488510974e-08  2.4039877093604982e-08  2.2917588335695378e-08  2.1038418842985881e-08  1.8468467807306805e-08  1.5347065811229393e-08  1.1892549783093292e-08  8.3809021740555985e-09  5.0779487335124775e-09  2.0643608594323256e-09  5.2247357643976427e-10  1.4501554858043761e-26  -3.3093919586654297e-22  1.0426240273604896e-05  9.3883480778916648e-07  7.0895543700342804e-06  8.1415391645465108e-06  1.4737112794401790e-06  1.3421164175735965e-05  2.3237638688000990e-05  1.7062337017168476e-05  2.7983370475152454e-05  2.1216476952990508e-05  6.0768289488203101e-05  8.4310880727180013e-05  2.1050507658852445e-05  2.6414538936765656e-05  4.6783993934969210e-05  3.6903875582634976e-05  6.6858576223759940e-05  5.2520282229354970e-05  4.5100240810180504e-05  8.2298466974243159e-05  8.6856945444158478e-05  5.8998571878196321e-05  6.9830640556077107e-05  5.1922943973722054e-05  5.3399894827147304e-05  2.0048262451349202e-05  8.0342940612067369e-06  3.7039451744862413e-05  1.3663747975428632e-04  1.3768156272550767e-04  2.9097527359260389e-05  3.5546706927249942e-05  2.4460522638611093e-04  1.8757621862319776e-04  2.5234320092635426e-04  5.8877571435964633e-05  6.0973196131265553e-05  2.1289208649886808e-04  1.5176415380354356e-04  3.8147282385320831e-04  3.5083638881642788e-04  4.4685445615097425e-04  6.1555673406834177e-04  6.6830368825988461e-04  5.1705537620228925e-04  5.7774582889374060e-04  6.6834684196632121e-04  6.5043245842532412e-04  3.3250837296407089e-04  5.0709903275535297e-06  5.0620985151510840e-04  8.1597002707876692e-04  9.7527826678602968e-04  5.8879656296460369e-04  1.0604475959685834e-04  8.6468878512243772e-04  9.7009111802011654e-04  1.7587888991608762e-04  8.4436034718289284e-04  4.2919249332126037e-04  8.9089111694839096e-04  1.2990978297415625e-03  2.3896606399308442e-04  5.9985185728642803e-04  8.1691877945559417e-04  5.0952584701515662e-04  1.4981943146824027e-03  1.3371074453704223e-04  7.4453264869822297e-04  7.6922830045179306e-04  8.4956106243969348e-04  4.6221643380224764e-04  3.7352673172807717e-04  1.1822979211290974e-03  1.7154099198215427e-03  1.9612834979409973e-03  2.0247225152970768e-03  1.9926421094331216e-03  1.8964284071292072e-03  1.5310458518178315e-03  9.0451475241298959e-04  9.5830347874484233e-05  6.2680131801890154e-04  7.3908945535942395e-04  8.4971716515146547e-04  3.6876612465544935e-04  8.7902578210398159e-04  2.9594396606329870e-04  6.4787830617109852e-04  6.1995794759799896e-04  8.8286446019597965e-05  2.1193000622466766e-04  1.8014552075516573e-04  9.8473116710272256e-05  2.9949280254647096e-05  4.9675575968684972e-05  8.2944532004403934e-05  8.5016054166282503e-05  9.5520575419154877e-05  1.1297357747176801e-04  8.9982463744800746e-05  1.2590059854594386e-05  7.7499913722610931e-05  9.1033723214279351e-05  1.5243243318477709e-05  3.7371758395844401e-06  2.1488826853711847e-05  1.5142830819557921e-05  3.4288170371383675e-05  2.3420731114343213e-07  1.4919789893726746e-06  2.1978370825354612e-06  8.8026775741169761e-07  6.9733771678189886e-07  6.1547695110074092e-07  5.5723381754289528e-07  5.0441464377135654e-07  4.5320173707433446e-07  4.0533305953438406e-07  3.6225175530533104e-07  3.2452895546574353e-07  2.9208615811366140e-07  2.6452271872624467e-07  2.4131002155295513e-07  2.2187687690327535e-07  2.0576832642657581e-07  1.9253409389406349e-07  1.8171434107921357e-07  1.7293810062099593e-07  1.6590497758927253e-07  1.6035239667794475e-07  1.5605371945752436e-07  1.5281408066569974e-07  1.5046028790338048e-07  1.4884433987116827e-07  1.4784075503740745e-07  1.4734314965516385e-07  1.4725959273920236e-07  1.4746801788158497e-07  1.4789768716671982e-07  1.4856715925393471e-07  1.4943103289608044e-07  1.5031565744816392e-07  1.5115542529806606e-07  1.5194962193958965e-07  1.5255297846886643e-07  1.5303790870244785e-07  1.5378919522400702e-07  1.5488572173365051e-07  1.5583759714728351e-07  1.5633111359889998e-07  1.5595750918663425e-07  1.5385220961018034e-07  1.5072728320806141e-07  1.4817580571552110e-07  1.4631549595040934e-07  1.4443289481687192e-07  1.4215139855127117e-07  1.3940576800247715e-07  1.3618254923510072e-07  1.3252557520677368e-07  1.2837560361745695e-07  1.2375116689129738e-07  1.1882787841880560e-07  1.1326581944249482e-07  1.0660457726914548e-07  9.9202322874495589e-08  9.1846899143979328e-08  8.4904224469808368e-08  7.8224597922917406e-08  7.1505627083752754e-08  6.4545459311374126e-08  5.7289700281482557e-08  4.9783580631766177e-08  4.2115312570171815e-08  3.4380743313876876e-08  2.6669219553573501e-08  1.9061665346933083e-08  1.1633173466654797e-08  4.4561484530451162e-09  2.3973263357539445e-09  8.8540007817301905e-09  1.4838538305204911e-08  2.0272858824137961e-08  2.5075606587471264e-08  2.9161816498550749e-08  3.2443090912198974e-08  3.4828890932605336e-08  3.6229945940336147e-08  3.6565319474847043e-08  3.5775154994222925e-08  3.3840904830987788e-08  3.0812658884057932e-08  2.6837570397558206e-08  2.2174247667530053e-08  1.7169824571035107e-08  1.2178721820654956e-08  7.3960638940466432e-09  2.4745675707401076e-09  -1.6785032660234797e-25  -2.2694240657407614e-22  5.9616705567474290e-06  1.5958697265952647e-05  9.7396759858715754e-06  7.8674999602755376e-06  1.8559746138619825e-05  8.0441246036791859e-06  1.2939419785666473e-05  3.6444785221088372e-05  1.5062085868206028e-05  6.8672391151115522e-05  3.6737035962344638e-05  1.6460536215502994e-05  8.5030438176713315e-05  5.8031058660032453e-05  1.3595512487980438e-04  7.4896005458877297e-05  1.0801325676751046e-04  1.1972141280598678e-04  9.0394695231669559e-05  4.5437818219906202e-05  2.3948743783095798e-05  2.3123728957702901e-05  2.4665845091179719e-05  1.2096474171003340e-04  5.3116896792065790e-05  1.8110168573119386e-05  1.9018581180181725e-04  1.9128670952470658e-04  9.5803014234031425e-05  2.4040988409678215e-05  5.3865792660875929e-05  2.7309959139270478e-04  1.3347725501348121e-04  1.3691621812409913e-04  1.3229023281408436e-04  1.9082644295491930e-04  4.4512380828151606e-04  3.3988832200091166e-04  5.0408681709334562e-04  2.7158213137204131e-04  3.6530658948912432e-04  2.3814801273089925e-04  1.1752110071983352e-04  1.6973143542064876e-04  2.9686351088534327e-04  2.0160752854344062e-04  3.3543937816056833e-04  6.7667332247832760e-04  1.0390786810168231e-03  1.0325474921566062e-03  9.3653003292100564e-04  5.2000130085003409e-04  1.4412124640411228e-05  8.2223075981089147e-04  1.2806991607619313e-03  1.0718749917331336e-03  2.2254592850455448e-05  1.2170747318340799e-03  1.2705305708039629e-03  3.1521376793646676e-04  1.2707761336385761e-03  1.6500544042757215e-04  1.6409731238959163e-03  6.8061767747490713e-04  8.5105772620781926e-04  5.5020536686978835e-04  1.6899475446746528e-03  1.1521228336248788e-03  6.8292119691717459e-04  9.6390003069643504e-04  9.4734081552496805e-04  8.3096327423763704e-04  2.9366120683943588e-05  9.5319946867763355e-04  1.7491002409227405e-03  2.1627084116143248e-03  2.2668478055390962e-03  2.2911018101704644e-03  2.2129191395664680e-03  1.9826748368899604e-03  1.4199361532877609e-03  5.1004331585345630e-04  3.9158449096037467e-04  8.6426470711391896e-04  9.6894673467840789e-04  4.3463189108654748e-04  1.1397250212750027e-03  4.8383930831498375e-04  9.4147922856224308e-04  1.9216307095827899e-04  1.0700075251018602e-03  1.0298731310412444e-03  6.4271501921485711e-04  4.0485865558860550e-04  2.5719041851159617e-04  1.2982838004561780e-04  8.5428516502152269e-05  6.8915376824270951e-05  4.6846641904027096e-05  4.7261180102576740e-05  1.0166092448444673e-04  1.5946762512180422e-04  1.4702885589208515e-04  3.1308922306112721e-05  9.3045005918701606e-05  1.2942805295013699e-05  3.2960370596402008e-06  2.3538324526462663e-05  5.0630134873002389e-05  1.6325283579163729e-05  5.1050684205582657e-06  3.1704110126264184e-06  1.7750742743441584e-06  9.3494616942881002e-07  7.9475492875601881e-07  6.9237699110559452e-07  6.1713543009644526e-07  5.5038048485699479e-07  4.8966459531377684e-07  4.3543045223797086e-07  3.8799205783570199e-07  3.4718204866351345e-07  3.1246635045103301e-07  2.8320386135846050e-07  2.5867759998368272e-07  2.3826293286427871e-07  2.2145535891997352e-07  2.0770001615442932e-07  1.9650305919659785e-07  1.8748832246041751e-07  1.8033452048272382e-07  1.7475957316595408e-07  1.7052101587311756e-07  1.6740916975404574e-07  1.6523614686698490e-07  1.6384866660620383e-07  1.6310999009826702e-07  1.6291470707946384e-07  1.6313878126472238e-07  1.6364944952552743e-07  1.6442978815444457e-07  1.6550341153371062e-07  1.6671641856670647e-07  1.6788586225600337e-07  1.6902991515116286e-07  1.7006345625281172e-07  1.7084960322002071e-07  1.7173153746522851e-07  1.7309503846575386e-07  1.7462751724401716e-07  1.7570998597772936e-07  1.7616258074815850e-07  1.7504920468909221e-07  1.7195746110415039e-07  1.6878218271850740e-07  1.6672754213641528e-07  1.6505840631382236e-07  1.6300057755282838e-07  1.6039158269089740e-07  1.5723689647020113e-07  1.5356390515569896e-07  1.4938909088272458e-07  1.4460142257107926e-07  1.3939540409102684e-07  1.3376348125631964e-07  1.2702113884620442e-07  1.1903993748864629e-07  1.1069855426798998e-07  1.0276717621723437e-07  9.5275133840375179e-08  8.7857244012108510e-08  8.0198362813525096e-08  7.2173147259767691e-08  6.3801606089031492e-08  5.5173077298520048e-08  4.6395130549609016e-08  3.7571013628881868e-08  2.8794595751921749e-08  2.0152492013965249e-08  1.1727656229657420e-08  3.6023586630207182e-09  4.1398317621096598e-09  1.1412820796380756e-08  1.8127160534361513e-08  2.4189383703028987e-08  2.9501463473624772e-08  3.3960626075546454e-08  3.7460111462037108e-08  3.9891945826497503e-08  4.1153273330474962e-08  4.1158132552660523e-08  3.9856490907931334e-08  3.7261274321110892e-08  3.3480748480952123e-08  2.8745920484675944e-08  2.3409719701332466e-08  1.7881810624427643e-08  1.2452534763294166e-08  6.8301005433647463e-09  -9.4786686046857318e-25  -8.4635593259204701e-37  4.0882309507262951e-06  1.0674705035109882e-05  6.2621460582555352e-06  9.3554685128024533e-06  3.0486482666470382e-06  2.4318357787739265e-06  1.9419856035618267e-05  2.7389372561259310e-05  2.4247691119719607e-05  3.4074882815295848e-05  3.7990347322830565e-05  9.2400692704939900e-05  1.1600333015077866e-04  2.7820399842210720e-05  1.7073495633915854e-05  9.3906126358074833e-05  9.9047065434681669e-06  7.0031897069386704e-05  5.355564437845983