<?xml version="1.0"?>
<VTKFile type="UnstructuredGrid"  version="0.1"  >
<UnstructuredGrid>
<Piece  NumberOfPoints="2601" NumberOfCells="5000">
<Points>
<DataArray  type="Float64"  NumberOfComponents="3"  format="ascii">0 0 0  0.02 0 0  0.04 0 0  0.06 0 0  0.08 0 0  0.1 0 0  0.12 0 0  0.14 0 0  0.16 0 0  0.18 0 0  0.2 0 0  0.22 0 0  0.24 0 0  0.26 0 0  0.28 0 0  0.3 0 0  0.32 0 0  0.34 0 0  0.36 0 0  0.38 0 0  0.4 0 0  0.42 0 0  0.44 0 0  0.46 0 0  0.48 0 0  0.5 0 0  0.52 0 0  0.54 0 0  0.5600000000000001 0 0  0.58 0 0  0.6 0 0  0.62 0 0  0.64 0 0  0.66 0 0  0.68 0 0  0.7 0 0  0.72 0 0  0.74 0 0  0.76 0 0  0.78 0 0  0.8 0 0  0.82 0 0  0.84 0 0  0.86 0 0  0.88 0 0  0.9 0 0  0.92 0 0  0.9399999999999999 0 0  0.96 0 0  0.98 0 0  1 0 0  0 0.02 0  0.02 0.02 0  0.04 0.02 0  0.06 0.02 0  0.08 0.02 0  0.1 0.02 0  0.12 0.02 0  0.14 0.02 0  0.16 0.02 0  0.18 0.02 0  0.2 0.02 0  0.22 0.02 0  0.24 0.02 0  0.26 0.02 0  0.28 0.02 0  0.3 0.02 0  0.32 0.02 0  0.34 0.02 0  0.36 0.02 0  0.38 0.02 0  0.4 0.02 0  0.42 0.02 0  0.44 0.02 0  0.46 0.02 0  0.48 0.02 0  0.5 0.02 0  0.52 0.02 0  0.54 0.02 0  0.5600000000000001 0.02 0  0.58 0.02 0  0.6 0.02 0  0.62 0.02 0  0.64 0.02 0  0.66 0.02 0  0.68 0.02 0  0.7 0.02 0  0.72 0.02 0  0.74 0.02 0  0.76 0.02 0  0.78 0.02 0  0.8 0.02 0  0.82 0.02 0  0.84 0.02 0  0.86 0.02 0  0.88 0.02 0  0.9 0.02 0  0.92 0.02 0  0.9399999999999999 0.02 0  0.96 0.02 0  0.98 0.02 0  1 0.02 0  0 0.04 0  0.02 0.04 0  0.04 0.04 0  0.06 0.04 0  0.08 0.04 0  0.1 0.04 0  0.12 0.04 0  0.14 0.04 0  0.16 0.04 0  0.18 0.04 0  0.2 0.04 0  0.22 0.04 0  0.24 0.04 0  0.26 0.04 0  0.28 0.04 0  0.3 0.04 0  0.32 0.04 0  0.34 0.04 0  0.36 0.04 0  0.38 0.04 0  0.4 0.04 0  0.42 0.04 0  0.44 0.04 0  0.46 0.04 0  0.48 0.04 0  0.5 0.04 0  0.52 0.04 0  0.54 0.04 0  0.5600000000000001 0.04 0  0.58 0.04 0  0.6 0.04 0  0.62 0.04 0  0.64 0.04 0  0.66 0.04 0  0.68 0.04 0  0.7 0.04 0  0.72 0.04 0  0.74 0.04 0  0.76 0.04 0  0.78 0.04 0  0.8 0.04 0  0.82 0.04 0  0.84 0.04 0  0.86 0.04 0  0.88 0.04 0  0.9 0.04 0  0.92 0.04 0  0.9399999999999999 0.04 0  0.96 0.04 0  0.98 0.04 0  1 0.04 0  0 0.06 0  0.02 0.06 0  0.04 0.06 0  0.06 0.06 0  0.08 0.06 0  0.1 0.06 0  0.12 0.06 0  0.14 0.06 0  0.16 0.06 0  0.18 0.06 0  0.2 0.06 0  0.22 0.06 0  0.24 0.06 0  0.26 0.06 0  0.28 0.06 0  0.3 0.06 0  0.32 0.06 0  0.34 0.06 0  0.36 0.06 0  0.38 0.06 0  0.4 0.06 0  0.42 0.06 0  0.44 0.06 0  0.46 0.06 0  0.48 0.06 0  0.5 0.06 0  0.52 0.06 0  0.54 0.06 0  0.5600000000000001 0.06 0  0.58 0.06 0  0.6 0.06 0  0.62 0.06 0  0.64 0.06 0  0.66 0.06 0  0.68 0.06 0  0.7 0.06 0  0.72 0.06 0  0.74 0.06 0  0.76 0.06 0  0.78 0.06 0  0.8 0.06 0  0.82 0.06 0  0.84 0.06 0  0.86 0.06 0  0.88 0.06 0  0.9 0.06 0  0.92 0.06 0  0.9399999999999999 0.06 0  0.96 0.06 0  0.98 0.06 0  1 0.06 0  0 0.08 0  0.02 0.08 0  0.04 0.08 0  0.06 0.08 0  0.08 0.08 0  0.1 0.08 0  0.12 0.08 0  0.14 0.08 0  0.16 0.08 0  0.18 0.08 0  0.2 0.08 0  0.22 0.08 0  0.24 0.08 0  0.26 0.08 0  0.28 0.08 0  0.3 0.08 0  0.32 0.08 0  0.34 0.08 0  0.36 0.08 0  0.38 0.08 0  0.4 0.08 0  0.42 0.08 0  0.44 0.08 0  0.46 0.08 0  0.48 0.08 0  0.5 0.08 0  0.52 0.08 0  0.54 0.08 0  0.5600000000000001 0.08 0  0.58 0.08 0  0.6 0.08 0  0.62 0.08 0  0.64 0.08 0  0.66 0.08 0  0.68 0.08 0  0.7 0.08 0  0.72 0.08 0  0.74 0.08 0  0.76 0.08 0  0.78 0.08 0  0.8 0.08 0  0.82 0.08 0  0.84 0.08 0  0.86 0.08 0  0.88 0.08 0  0.9 0.08 0  0.92 0.08 0  0.9399999999999999 0.08 0  0.96 0.08 0  0.98 0.08 0  1 0.08 0  0 0.1 0  0.02 0.1 0  0.04 0.1 0  0.06 0.1 0  0.08 0.1 0  0.1 0.1 0  0.12 0.1 0  0.14 0.1 0  0.16 0.1 0  0.18 0.1 0  0.2 0.1 0  0.22 0.1 0  0.24 0.1 0  0.26 0.1 0  0.28 0.1 0  0.3 0.1 0  0.32 0.1 0  0.34 0.1 0  0.36 0.1 0  0.38 0.1 0  0.4 0.1 0  0.42 0.1 0  0.44 0.1 0  0.46 0.1 0  0.48 0.1 0  0.5 0.1 0  0.52 0.1 0  0.54 0.1 0  0.5600000000000001 0.1 0  0.58 0.1 0  0.6 0.1 0  0.62 0.1 0  0.64 0.1 0  0.66 0.1 0  0.68 0.1 0  0.7 0.1 0  0.72 0.1 0  0.74 0.1 0  0.76 0.1 0  0.78 0.1 0  0.8 0.1 0  0.82 0.1 0  0.84 0.1 0  0.86 0.1 0  0.88 0.1 0  0.9 0.1 0  0.92 0.1 0  0.9399999999999999 0.1 0  0.96 0.1 0  0.98 0.1 0  1 0.1 0  0 0.12 0  0.02 0.12 0  0.04 0.12 0  0.06 0.12 0  0.08 0.12 0  0.1 0.12 0  0.12 0.12 0  0.14 0.12 0  0.16 0.12 0  0.18 0.12 0  0.2 0.12 0  0.22 0.12 0  0.24 0.12 0  0.26 0.12 0  0.28 0.12 0  0.3 0.12 0  0.32 0.12 0  0.34 0.12 0  0.36 0.12 0  0.38 0.12 0  0.4 0.12 0  0.42 0.12 0  0.44 0.12 0  0.46 0.12 0  0.48 0.12 0  0.5 0.12 0  0.52 0.12 0  0.54 0.12 0  0.5600000000000001 0.12 0  0.58 0.12 0  0.6 0.12 0  0.62 0.12 0  0.64 0.12 0  0.66 0.12 0  0.68 0.12 0  0.7 0.12 0  0.72 0.12 0  0.74 0.12 0  0.76 0.12 0  0.78 0.12 0  0.8 0.12 0  0.82 0.12 0  0.84 0.12 0  0.86 0.12 0  0.88 0.12 0  0.9 0.12 0  0.92 0.12 0  0.9399999999999999 0.12 0  0.96 0.12 0  0.98 0.12 0  1 0.12 0  0 0.14 0  0.02 0.14 0  0.04 0.14 0  0.06 0.14 0  0.08 0.14 0  0.1 0.14 0  0.12 0.14 0  0.14 0.14 0  0.16 0.14 0  0.18 0.14 0  0.2 0.14 0  0.22 0.14 0  0.24 0.14 0  0.26 0.14 0  0.28 0.14 0  0.3 0.14 0  0.32 0.14 0  0.34 0.14 0  0.36 0.14 0  0.38 0.14 0  0.4 0.14 0  0.42 0.14 0  0.44 0.14 0  0.46 0.14 0  0.48 0.14 0  0.5 0.14 0  0.52 0.14 0  0.54 0.14 0  0.5600000000000001 0.14 0  0.58 0.14 0  0.6 0.14 0  0.62 0.14 0  0.64 0.14 0  0.66 0.14 0  0.68 0.14 0  0.7 0.14 0  0.72 0.14 0  0.74 0.14 0  0.76 0.14 0  0.78 0.14 0  0.8 0.14 0  0.82 0.14 0  0.84 0.14 0  0.86 0.14 0  0.88 0.14 0  0.9 0.14 0  0.92 0.14 0  0.9399999999999999 0.14 0  0.96 0.14 0  0.98 0.14 0  1 0.14 0  0 0.16 0  0.02 0.16 0  0.04 0.16 0  0.06 0.16 0  0.08 0.16 0  0.1 0.16 0  0.12 0.16 0  0.14 0.16 0  0.16 0.16 0  0.18 0.16 0  0.2 0.16 0  0.22 0.16 0  0.24 0.16 0  0.26 0.16 0  0.28 0.16 0  0.3 0.16 0  0.32 0.16 0  0.34 0.16 0  0.36 0.16 0  0.38 0.16 0  0.4 0.16 0  0.42 0.16 0  0.44 0.16 0  0.46 0.16 0  0.48 0.16 0  0.5 0.16 0  0.52 0.16 0  0.54 0.16 0  0.5600000000000001 0.16 0  0.58 0.16 0  0.6 0.16 0  0.62 0.16 0  0.64 0.16 0  0.66 0.16 0  0.68 0.16 0  0.7 0.16 0  0.72 0.16 0  0.74 0.16 0  0.76 0.16 0  0.78 0.16 0  0.8 0.16 0  0.82 0.16 0  0.84 0.16 0  0.86 0.16 0  0.88 0.16 0  0.9 0.16 0  0.92 0.16 0  0.9399999999999999 0.16 0  0.96 0.16 0  0.98 0.16 0  1 0.16 0  0 0.18 0  0.02 0.18 0  0.04 0.18 0  0.06 0.18 0  0.08 0.18 0  0.1 0.18 0  0.12 0.18 0  0.14 0.18 0  0.16 0.18 0  0.18 0.18 0  0.2 0.18 0  0.22 0.18 0  0.24 0.18 0  0.26 0.18 0  0.28 0.18 0  0.3 0.18 0  0.32 0.18 0  0.34 0.18 0  0.36 0.18 0  0.38 0.18 0  0.4 0.18 0  0.42 0.18 0  0.44 0.18 0  0.46 0.18 0  0.48 0.18 0  0.5 0.18 0  0.52 0.18 0  0.54 0.18 0  0.5600000000000001 0.18 0  0.58 0.18 0  0.6 0.18 0  0.62 0.18 0  0.64 0.18 0  0.66 0.18 0  0.68 0.18 0  0.7 0.18 0  0.72 0.18 0  0.74 0.18 0  0.76 0.18 0  0.78 0.18 0  0.8 0.18 0  0.82 0.18 0  0.84 0.18 0  0.86 0.18 0  0.88 0.18 0  0.9 0.18 0  0.92 0.18 0  0.9399999999999999 0.18 0  0.96 0.18 0  0.98 0.18 0  1 0.18 0  0 0.2 0  0.02 0.2 0  0.04 0.2 0  0.06 0.2 0  0.08 0.2 0  0.1 0.2 0  0.12 0.2 0  0.14 0.2 0  0.16 0.2 0  0.18 0.2 0  0.2 0.2 0  0.22 0.2 0  0.24 0.2 0  0.26 0.2 0  0.28 0.2 0  0.3 0.2 0  0.32 0.2 0  0.34 0.2 0  0.36 0.2 0  0.38 0.2 0  0.4 0.2 0  0.42 0.2 0  0.44 0.2 0  0.46 0.2 0  0.48 0.2 0  0.5 0.2 0  0.52 0.2 0  0.54 0.2 0  0.5600000000000001 0.2 0  0.58 0.2 0  0.6 0.2 0  0.62 0.2 0  0.64 0.2 0  0.66 0.2 0  0.68 0.2 0  0.7 0.2 0  0.72 0.2 0  0.74 0.2 0  0.76 0.2 0  0.78 0.2 0  0.8 0.2 0  0.82 0.2 0  0.84 0.2 0  0.86 0.2 0  0.88 0.2 0  0.9 0.2 0  0.92 0.2 0  0.9399999999999999 0.2 0  0.96 0.2 0  0.98 0.2 0  1 0.2 0  0 0.22 0  0.02 0.22 0  0.04 0.22 0  0.06 0.22 0  0.08 0.22 0  0.1 0.22 0  0.12 0.22 0  0.14 0.22 0  0.16 0.22 0  0.18 0.22 0  0.2 0.22 0  0.22 0.22 0  0.24 0.22 0  0.26 0.22 0  0.28 0.22 0  0.3 0.22 0  0.32 0.22 0  0.34 0.22 0  0.36 0.22 0  0.38 0.22 0  0.4 0.22 0  0.42 0.22 0  0.44 0.22 0  0.46 0.22 0  0.48 0.22 0  0.5 0.22 0  0.52 0.22 0  0.54 0.22 0  0.5600000000000001 0.22 0  0.58 0.22 0  0.6 0.22 0  0.62 0.22 0  0.64 0.22 0  0.66 0.22 0  0.68 0.22 0  0.7 0.22 0  0.72 0.22 0  0.74 0.22 0  0.76 0.22 0  0.78 0.22 0  0.8 0.22 0  0.82 0.22 0  0.84 0.22 0  0.86 0.22 0  0.88 0.22 0  0.9 0.22 0  0.92 0.22 0  0.9399999999999999 0.22 0  0.96 0.22 0  0.98 0.22 0  1 0.22 0  0 0.24 0  0.02 0.24 0  0.04 0.24 0  0.06 0.24 0  0.08 0.24 0  0.1 0.24 0  0.12 0.24 0  0.14 0.24 0  0.16 0.24 0  0.18 0.24 0  0.2 0.24 0  0.22 0.24 0  0.24 0.24 0  0.26 0.24 0  0.28 0.24 0  0.3 0.24 0  0.32 0.24 0  0.34 0.24 0  0.36 0.24 0  0.38 0.24 0  0.4 0.24 0  0.42 0.24 0  0.44 0.24 0  0.46 0.24 0  0.48 0.24 0  0.5 0.24 0  0.52 0.24 0  0.54 0.24 0  0.5600000000000001 0.24 0  0.58 0.24 0  0.6 0.24 0  0.62 0.24 0  0.64 0.24 0  0.66 0.24 0  0.68 0.24 0  0.7 0.24 0  0.72 0.24 0  0.74 0.24 0  0.76 0.24 0  0.78 0.24 0  0.8 0.24 0  0.82 0.24 0  0.84 0.24 0  0.86 0.24 0  0.88 0.24 0  0.9 0.24 0  0.92 0.24 0  0.9399999999999999 0.24 0  0.96 0.24 0  0.98 0.24 0  1 0.24 0  0 0.26 0  0.02 0.26 0  0.04 0.26 0  0.06 0.26 0  0.08 0.26 0  0.1 0.26 0  0.12 0.26 0  0.14 0.26 0  0.16 0.26 0  0.18 0.26 0  0.2 0.26 0  0.22 0.26 0  0.24 0.26 0  0.26 0.26 0  0.28 0.26 0  0.3 0.26 0  0.32 0.26 0  0.34 0.26 0  0.36 0.26 0  0.38 0.26 0  0.4 0.26 0  0.42 0.26 0  0.44 0.26 0  0.46 0.26 0  0.48 0.26 0  0.5 0.26 0  0.52 0.26 0  0.54 0.26 0  0.5600000000000001 0.26 0  0.58 0.26 0  0.6 0.26 0  0.62 0.26 0  0.64 0.26 0  0.66 0.26 0  0.68 0.26 0  0.7 0.26 0  0.72 0.26 0  0.74 0.26 0  0.76 0.26 0  0.78 0.26 0  0.8 0.26 0  0.82 0.26 0  0.84 0.26 0  0.86 0.26 0  0.88 0.26 0  0.9 0.26 0  0.92 0.26 0  0.9399999999999999 0.26 0  0.96 0.26 0  0.98 0.26 0  1 0.26 0  0 0.28 0  0.02 0.28 0  0.04 0.28 0  0.06 0.28 0  0.08 0.28 0  0.1 0.28 0  0.12 0.28 0  0.14 0.28 0  0.16 0.28 0  0.18 0.28 0  0.2 0.28 0  0.22 0.28 0  0.24 0.28 0  0.26 0.28 0  0.28 0.28 0  0.3 0.28 0  0.32 0.28 0  0.34 0.28 0  0.36 0.28 0  0.38 0.28 0  0.4 0.28 0  0.42 0.28 0  0.44 0.28 0  0.46 0.28 0  0.48 0.28 0  0.5 0.28 0  0.52 0.28 0  0.54 0.28 0  0.5600000000000001 0.28 0  0.58 0.28 0  0.6 0.28 0  0.62 0.28 0  0.64 0.28 0  0.66 0.28 0  0.68 0.28 0  0.7 0.28 0  0.72 0.28 0  0.74 0.28 0  0.76 0.28 0  0.78 0.28 0  0.8 0.28 0  0.82 0.28 0  0.84 0.28 0  0.86 0.28
[...]
<PointData  Scalars="Indicator Function"> 
<DataArray  type="Float64"  Name="Indicator Function"  format="ascii">-3.1373270690792381e-21  1.5431848425323786e-17  -1.6296856908230760e-18  3.0260883708255692e-17  9.4232274682178146e-18  -4.4119219220317376e-19  -1.9635376482654775e-18  4.2545418148029875e-16  2.1643307778041901e-16  -9.9835335705614524e-19  1.8184936944331684e-16  4.7788332459447351e-16  -3.1248282985480143e-19  -1.0322700298341726e-32  -5.3264386972404114e-17  -2.0908615753373320e-18  -7.7276672016713119e-19  2.4331998281233102e-16  -9.1459771456421567e-19  -1.3855437087878950e-18  1.3652337496411120e-16  -1.0816813714400281e-18  -9.9006915259984499e-19  4.8097458787378396e-16  2.3110523055988936e-34  -6.5288633287258223e-19  -3.0211173225666204e-19  -1.5537664269884548e-19  1.5804815025772033e-16  -2.7045482518176967e-21  -4.0688523948240187e-20  -2.0033785804048374e-20  -8.2608299080778354e-20  -1.0711182839940909e-19  -1.4161166479068978e-20  -5.9575792078378258e-20  0.0000000000000000e+00  -2.1844240943017042e-20  -6.7385503803804108e-20  -7.5328345671407188e-20  3.8230963530632980e-17  -3.2159272329713986e-20  -6.2423774762900575e-20  -6.8928804654983018e-20  -5.8403963504546353e-20  -3.2748848790133094e-20  1.4849261527712729e-18  -1.0381727329255279e-20  -4.2661740922763820e-21  -2.8868391395528971e-21  9.6293846066620577e-36  -8.4719675794883486e-19  8.1266946536047470e-03  2.6996337945921905e-03  1.8618580725278501e-03  1.0914115992907472e-02  1.5895623939239888e-02  6.9420125165438784e-04  3.5371949684225329e-02  1.5761997986069757e-02  3.2522004386332314e-02  1.7984735227288530e-02  3.3109924299209127e-03  1.1258380448750096e-02  1.0453100884906088e-02  1.8796641164775606e-02  1.9647516684754590e-02  2.7841855303912689e-02  3.6670981811657150e-02  2.2591565261227842e-02  8.9811077595876223e-03  2.0469182642616948e-02  3.4920505741824703e-02  2.0255864144913213e-03  1.7835500266878777e-02  1.5588287489562430e-02  1.7532646064762729e-03  1.0884722278522864e-02  5.5980335212846514e-03  7.9183991388970287e-04  5.2697288349777480e-05  2.2372165821478160e-05  7.2179320225546073e-04  4.4688081179094591e-04  1.2646984139361428e-03  1.2972059548981315e-03  1.2877254245312550e-03  4.2935934775231824e-04  1.9987384286872885e-04  3.9351086148465148e-04  1.0171538885416153e-03  8.4841789371392726e-04  3.4201199873284060e-04  4.0832394815600438e-04  9.2036478096703270e-04  7.8152856535358445e-04  6.6134799042734762e-04  2.5927681761854884e-04  6.6630905815592243e-05  1.5370512041818849e-04  1.0400934138535191e-04  -4.9837517171227711e-21  1.3866313833593363e-33  2.0665308139990821e-02  2.3739732737923264e-02  8.8144239977620518e-03  1.1387970430036398e-02  1.3462705350692633e-02  2.9843170401920568e-02  3.4477773238277880e-02  1.0177633026960339e-02  3.4917840516757510e-02  2.3508721938925864e-02  5.2269215347302625e-02  8.5944672505805675e-02  6.3067574072291674e-02  7.1833246114351547e-03  4.6189346344372544e-02  5.8559796185322380e-02  3.0230960552901716e-03  6.1657015867996857e-02  6.1999959012371594e-03  3.7379842634603366e-02  1.8012584121489719e-02  6.6975645974275688e-02  6.2253904716639802e-02  4.6989867994850762e-02  2.0014551756053225e-02  2.6057131380630160e-02  2.2038673837913129e-03  6.0613197152823125e-03  4.5948829962310670e-03  3.5914315299605156e-04  2.3148279544437023e-04  5.2053024608234467e-04  1.9330341001943039e-03  2.1541223242803717e-03  1.5218733806713690e-03  1.8030490639791570e-03  1.9870893481344746e-04  4.6153914582327995e-04  1.0306296910425573e-03  1.4387127498175238e-03  1.9363291369967124e-04  9.6108667796969568e-04  6.6492474816233504e-04  1.5155331509547386e-03  8.5576044796581375e-04  4.9571762611272147e-04  2.3003883014599123e-05  4.2729666796851792e-04  3.3815377618411855e-04  8.4470874341299077e-20  -1.7017158683918391e-19  1.1221833286358793e-02  4.0145410928545417e-03  8.4687412948929175e-03  1.7114461563008696e-02  1.9355064253571027e-02  3.1313600659717285e-02  4.6783027603253292e-03  7.8260569184419773e-02  5.5453067497528881e-02  7.9469056988942868e-02  6.0221361239309892e-02  2.5908896957782396e-02  2.9436556111689803e-03  1.2658918779587880e-02  2.5562175739129517e-02  3.7044137848006552e-02  5.5325262245897254e-02  8.7173519459473464e-02  4.0225188394864012e-02  4.3983080436860019e-03  4.2745071417339568e-02  5.7493077502227638e-02  7.1283988814480614e-03  5.6207098404685713e-02  5.8236911670050254e-02  1.1846025000688419e-02  2.5942682455928182e-02  1.8566638055230053e-02  2.9906407921279619e-03  2.8901737297703893e-03  3.4913245071061395e-04  9.9769638528972066e-04  1.2549467753602201e-03  2.7189598260995841e-03  2.1664016136873419e-03  1.9244120769663596e-03  7.9211604398449155e-04  2.9866965621485307e-04  1.1846314289975288e-04  1.3654970099324210e-03  8.7450205700252042e-04  1.7250429669607690e-03  1.0099136098887292e-03  1.5625889742941286e-03  1.3257320256048217e-03  9.9713446463215350e-04  2.4179613670376575e-04  2.4592829825645612e-04  4.0316024021639485e-04  -5.5949722662706260e-20  -5.1407508382504455e-19  3.4305295969222188e-02  3.1258039162239217e-03  2.6542402538316936e-02  1.1457555218850634e-03  2.0218851728508937e-02  2.1837809726477562e-02  5.9428647994126338e-02  3.6645429083455285e-02  7.7769258515499214e-03  3.2759053974370081e-02  1.7956581395995330e-02  5.9593202515735251e-02  1.2734254792241112e-01  1.1698856895949825e-01  2.5573143645690705e-02  8.5691151847239050e-02  1.0762583822844393e-01  8.5762935209649765e-03  1.1311381970570035e-01  7.0977669890137556e-03  3.9966584644756088e-02  2.0976522309152444e-02  1.0101390334507786e-01  1.0374394545920043e-01  6.0706416959943006e-02  1.9021740767688925e-02  3.6282909413216803e-02  7.8326161191343783e-04  1.6299783335739414e-02  9.7615594456712911e-03  7.4557075000686903e-06  1.2543278382206287e-04  9.2836470528467397e-04  3.1304708648662513e-03  2.9319032288661570e-03  1.6175874520605836e-03  2.3268580760591826e-03  6.0848560364773583e-04  1.0963224340381638e-03  9.9710671281039837e-04  1.4881635886264835e-03  9.4554649539215743e-04  2.3260318788186542e-03  1.0296337281103277e-03  2.4151690804024347e-03  1.1811377229814046e-03  9.1127130363752328e-04  2.0306796567119573e-04  2.4864973712781146e-04  4.8497868261877615e-20  -3.0443088505593168e-19  2.2452310774784514e-02  2.0013547604752779e-02  2.3641876939488261e-02  1.0815524425058487e-02  2.2775188839576861e-02  3.4616528788977419e-02  2.6658431675273334e-02  4.1186664430117514e-03  1.0577900074774489e-01  8.0542485935724273e-02  1.0349974028111844e-01  8.2230418594316748e-02  4.6240198689489621e-02  3.1899734523177833e-02  4.8494879257370413e-03  2.7693944897200708e-02  3.5093058035815146e-02  7.9144460636119074e-02  1.1701367617771158e-01  5.7784553662386905e-02  1.8882005584006160e-02  5.8634531184696623e-02  7.3751146315213706e-02  1.4176829707973723e-02  9.3347072951978097e-02  8.8900206370772894e-02  2.3366645736250285e-02  3.9094866974674618e-02  2.6150879107696229e-02  5.9585984003226707e-04  7.7261644499668769e-03  6.7006173287804667e-04  9.4601326697343717e-04  1.1831660728264346e-03  3.7283786352449487e-03  2.5052573919817325e-03  1.7723730552907354e-03  1.0721414841809288e-03  2.0059033992833630e-04  4.5090000009700136e-04  1.4972984868614903e-03  7.9246167030699389e-04  2.8878887927485980e-03  1.9124834850626289e-03  1.9339721365098229e-03  2.1322814814614690e-03  1.4407244156321470e-03  7.2340087997649967e-04  1.9819175820177961e-04  3.8517538426648231e-35  -4.6383007383975711e-19  9.6962239841391004e-03  2.5920878706623723e-02  2.9271554558963186e-02  4.1180122942360835e-02  3.9175751798050289e-03  2.6455139254818794e-02  2.4528727551200200e-02  7.8748136859195156e-02  4.2022691685604623e-02  7.1338310158359057e-03  2.9523710679990808e-02  1.0340089660686620e-02  5.7295743019584962e-02  1.4747215713482503e-01  1.4452099223765288e-01  3.3492248415895626e-02  1.1893814763265062e-01  1.5118701159740158e-01  2.5638780815338248e-02  1.6231612094999048e-01  2.0695620249516152e-02  2.9943935893364908e-02  2.6778575641407822e-02  1.2755686988746534e-01  1.2937669113541536e-01  6.0921462282848553e-02  5.4569272773051644e-03  3.6034698513273643e-02  5.6670003889253808e-03  2.5879332162913521e-02  1.2295567850223418e-02  3.2328344756993349e-03  5.8205560894691869e-06  1.4566417773905808e-03  3.4257458560480805e-03  3.4307693803661255e-03  1.5778496440149059e-03  2.1930168863635389e-03  7.7522197158018684e-04  9.4042632585368167e-04  9.0192241060303778e-04  1.7339234262762390e-03  1.1838818118332190e-03  3.5051340382530375e-03  1.4936510051207341e-03  2.9451561942356631e-03  1.6623241997737949e-03  1.3619323281242751e-03  5.4921116490173894e-04  2.7082644206237035e-35  -4.8403855334128005e-19  1.3810443083641698e-02  1.4002169362781742e-02  1.4056935794050946e-02  3.4392247948693284e-02  3.3494427119838723e-02  4.3795339855498328e-02  4.3704839281365392e-02  1.9866205056707394e-02  2.0241259065257252e-02  1.3262287953402360e-01  8.8834448695688586e-02  1.0753943144373829e-01  8.3827877836592887e-02  4.3172321250764902e-02  3.6977711085773787e-02  6.9591604971106424e-03  2.2642197992051076e-02  3.4566380010174973e-02  8.6984649870527148e-02  1.3673518286458308e-01  6.8583888581113833e-02  1.8507257220871043e-02  7.0713454002431883e-02  9.9770582649781794e-02  9.4318632314791644e-03  1.1603253976055719e-01  9.8561175470310819e-02  1.0925154654875213e-02  4.3045386261624179e-02  2.6140729270403815e-02  4.8912574551738825e-03  1.2038507300787555e-02  5.1753620859658529e-04  1.3628031734248690e-03  3.6509596966714970e-04  4.0865363129135883e-03  2.4468593809528071e-03  1.3291428848302125e-03  9.2442279426066401e-04  8.5545122699680961e-04  5.7908502514782427e-04  1.7957797576012573e-03  1.0142711801048488e-03  3.2508580426826496e-03  2.7252292462092383e-03  2.0208006782004083e-03  2.6520920865104711e-03  1.6210494445442751e-03  9.6143984769348205e-04  -1.3342658196267599e-19  -3.6404259168524893e-19  8.9003967531491278e-03  4.7874232153869252e-03  2.4432816713020760e-02  4.4752755424278597e-02  3.7366345733771233e-02  1.6959135904102880e-02  2.5663992935339282e-02  4.6577815130130328e-03  9.9610577595664190e-02  6.1720518542913667e-02  1.7215793657636404e-02  5.0099514287567731e-02  1.6126756240234866e-02  6.9603414867296778e-02  1.7686851108454538e-01  1.7248003867836068e-01  4.0309915785402294e-02  1.5225078838898029e-01  2.0177000569409678e-01  3.7232773994855146e-02  2.1647238791512691e-01  4.5636565694642112e-02  2.0945394774852893e-02  2.8274234403835009e-02  1.5912779201247332e-01  1.4803510243757959e-01  6.9622132494513045e-02  5.8641239614440552e-03  4.4212800765731586e-02  1.2108475876156382e-02  2.9365758631743701e-02  1.1552350312906318e-02  8.6717156081607821e-03  6.2578833118765321e-04  2.0942539087465965e-03  2.6667778175216350e-03  3.4846647785246503e-03  1.1149947105512806e-03  1.3270300314704062e-03  1.0880092616550427e-03  7.6273266073749601e-05  9.4769393379402853e-04  2.2593510482760561e-03  1.0272315460774120e-03  4.0390231339105407e-03  1.8938087862590801e-03  2.8028220402107214e-03  1.8423337263017321e-03  1.0855205198838319e-03  3.0129246871951676e-20  -2.8501992603585065e-19  1.3761046210058456e-02  1.3513173563377816e-02  1.0961675420045572e-02  4.9522506285221736e-03  4.4222978920334881e-02  5.0924940650793178e-02  5.3562163792206512e-02  7.2318792563162496e-02  8.0313848091576653e-03  4.5203098444101676e-02  1.8753430165583593e-01  8.3069502685566843e-02  1.1286535540245332e-01  7.4192605619051138e-02  3.6384103748384237e-02  2.1111586446426928e-02  1.2037753088454676e-02  3.6565567767328864e-03  3.5409482457881405e-02  6.9943520047732258e-02  1.4974429778221124e-01  6.2677360265957383e-02  6.2961556277566031e-03  9.7429220796940608e-02  1.4002555449101289e-01  9.7562605787653821e-03  1.1996003260427009e-01  1.0435133713301205e-01  1.8872290400689436e-02  4.0579398042482132e-02  1.9405950623444430e-02  7.8841028920447389e-03  1.5223210324655165e-02  5.3974897994188836e-03  2.6697038899556468e-03  8.6195700753535786e-04  3.4638670801208460e-03  1.9609997064908898e-03  5.3316229959939651e-04  1.3249576283788292e-04  1.6368713511241814e-03  4.8547638064769434e-04  2.4233485885567607e-03  1.7322811676944731e-03  2.8726861230678243e-03  3.2265215885348341e-03  2.0316036892759682e-03  2.5335207093718460e-03  1.3472376915990337e-03  -7.4786715242804509e-20  0.0000000000000000e+00  1.6249378076556496e-02  1.7012046270993331e-02  1.2727996930699237e-02  5.4498965024379724e-03  7.0229813180152700e-02  3.2207691120230621e-02  4.1878836560276460e-02  2.9835905171258663e-02  1.1476738534387333e-02  8.9433602464785905e-02  5.5554813889890309e-02  3.9284715596747254e-02  1.1505386755792814e-01  9.3901045734023740e-03  1.2028060804888166e-01  2.0340085232175409e-01  2.3278545296222361e-01  5.5754124753243928e-02  1.8074197170264070e-01  2.6607786453588456e-01  1.5802145736165230e-02  3.0248246924659467e-01  8.3890146450015413e-02  1.7930291032771266e-02  3.4561866431027509e-02  2.2069679341171325e-01  1.5166293395960442e-01  1.0371603144194730e-01  2.0114631986119909e-02  7.8509746486959853e-02  1.8862648081205326e-02  2.1348047602228137e-02  9.9426385947125606e-03  1.4837199606570768e-02  4.0302107203521705e-03  3.9522504569803113e-03  7.2157067771337635e-04  2.6989901745757662e-03  1.2962226064827372e-04  2.3354432006708750e-05  1.9723055950929564e-03  1.5161851165557993e-03  1.7816276969946764e-03  3.3382110336945565e-03  1.0406493583610220e-04  3.3843883737079833e-03  1.9100026336728191e-03  2.1220361984139019e-03  1.4826461078537951e-03  -2.0575848078876963e-19  -2.2520752318685330e-19  9.8422659550068108e-03  6.1396425204336344e-03  2.3540970362666790e-02  1.9974645666247820e-02  1.5477429171328326e-02  1.3686292077641951e-02  1.1161997632895340e-01  8.3202541393793905e-02  1.0899009203907034e-01  3.4282442907357848e-03  6.3317652834941368e-02  2.1632345891156946e-01  1.4746398684882472e-01  7.0923401123113114e-02  8.0349079114035743e-02  5.4658634645755981e-02  4.5787822115069987e-02  5.1020096031513234e-03  5.9772386126075570e-02  6.0329003811091970e-02  3.9796608727054775e-02  1.7015857891846936e-01  7.9250634001343578e-02  1.1915624792723868e-01  1.9666984171946655e-01  2.1539344708028740e-01  2.1610023876727339e-02  7.8940210235366529e-02  1.4904640903794833e-01  6.9796811282644963e-02  5.4353308860069019e-02  4.9753837877703532e-03  1.9599535133141481e-03  2.0179411421465225e-02  1.4472564368822697e-02  5.9641152651552327e-03  3.2701063778551851e-03  1.1137067278405232e-03  5.7580072320152537e-04  9.3031868206348237e-04  1.9644170219741738e-03  2.5533214336919785e-03  2.3519835489536523e-03  3.2015540456179913e-03  2.7965288710914637e-03  1.8332781685028868e-03  2.6768227586192695e-03  1.4382736100025284e-03  1.1296875163217615e-03  -1.9741676755532865e-19  -1.3481138449326880e-34  1.1575184542382787e-02  8.1779352597109445e-03  8.8177628323520268e-04  4.7713481255403827e-03  5.9945584154169106e-03  7.3864137259120208e-02  2.8064933491730591e-02  3.0841651274988422e-02  4.6316098880924104e-02  1.0887025664814909e-01  1.1635627007043278e-01  6.7715254038631059e-02  5.2065733681561012e-02  1.7509332373082270e-01  1.0061473260245599e-01  4.6664428311994861e-02  3.5693207610740973e-01  2.4592167668365719e-01  9.4369638950268883e-02  1.7669127290907741e-01  3.9991340208183279e-01  1.3141289234677028e-03  3.9564528439595587e-01  1.1389110086372697e-01  4.7892183133224513e-02  1.3959112004550173e-01  4.3313312581183017e-01  3.5883803131256574e-02  2.3312979412115595e-01  1.1193255426580419e-02  1.7002068464895242e-01  5.7974398343232827e-02  1.0126867221632811e-02  1.7889496851841262e-02  2.4001894069421222e-02  1.2960310130682724e-02  7.6328714994857664e-03  2.2970091530963559e-03  4.1874153677014974e-04  1.8094006515805127e-03  2.0939296116673778e-03  4.0020216517307637e-03  3.2328521272469209e-03  3.6973698931731854e-03  4.5047667687086752e-03  9.5811965366416881e-04  2.3388725078547718e-03  1.7587600599961067e-03  1.1954904992708835e-03  -6.6363053900557676e-20  -1.8288976062106429e-19  1.8026009515776441e-02  1.5667559187748595e-02  4.3889954940356090e-03  2.5228817679077226e-02  4.7496596641012747e-03  9.3377444671448057e-03  2.4922790058580026e-02  1.2174336418649068e-01  5.1628143169522571e-02  1.6575718433828257e-01  7.3844892407332635e-02  2.2234239107532569e-01  3.7527226226814975e-01  1.2249983340005415e-01  1.1446316064907473e-01  4.5941655429040267e-02  1.9547240727943974e-03  9.5509563986781690e-02  3.0301404391837666e-01  2.1447472379154653e-01  1.6880582027173613e-01  5.6280385111125215e-02  8.1025869123311023e-01  6.1420588396470861e-02  5.2425017514400277e-02  5.0766304256562436e-02  6.5195451710373664e-01  1.0780509088611841e-01  1.9012337184120273e-01  3.7685645900126186e-01  2.1559505161344664e-01  1.1160760921361404e-01  1.7732242641510517e-02  2.7541183032000899e-02  2.7134693164416225e-02  2.4968883332540399e-02  1.2438555757933453e-02  6.5384279726759982e-03  1.9660857045981361e-03  1.3412218492593882e-03  2.8919807104999021e-03  4.4691975345001675e-03  4.3916586467747714e-03  5.0781130498637949e-03  5.1274162537487070e-03  4.5606654928462276e-03  1.8990890638561044e-04  1.4603653774748376e-03  1.1739835146689797e-03  -6.5169176425793204e-20  2.0029119981857079e-33  3.2946490311316209e-03  1.0392329143066236e-02  2.1926084638900788e-02  2.7510515773956978e-02  8.3571862396550275e-03  5.5586384553567465e-04  6.0960529311891914e-02  3.9585185974690745e-03  6.1860277468443831e-02  5.0930346453819025e-02  8.0459650337786001e-02  1.9883506569430037e-03  3.6734013309564079e-02  4.2054608620450233e-02  4.5075809184576787e-01  2.4150652940538929e-03  1.5851452520178463e-01  3.7518336705814942e-01  3.1311767641540550e-01  8.7524286477827629e-01  8.4936519407021627e-01  2.4108957323088806e-01  1.7264494811465417e-01  4.9370924051126408e-01  2.6683181494548725e-02  1.2423293780808504e-01  1.0688404946148905e-01  4.2527596205712909e-01  1.1988925668596444e-01  2.7889392073106012e-01  1.4676452083508298e-01  2.3950983152713703e-01  1.3604423277636804e-01  6.9422283573427099e-02  4.7687973915238213e-02  3.7895263584585122e-02  2.5159383398412186e-02  1.2012153478678216e-02  4.8076364550603918e-03  1.8621904719673273e-03  3.2070314053948565e-03  3.7734422842100007e-03  6.0211446087356044e-03  4.8050580563834492e-03  6.4893442385207441e-03  6.3820770630138995e-03  3.1184790230742087e-03  9.8502518160599863e-05  1.7796225673480021e-04  2.0016188883533375e-18  6.1628061482637169e-34  1.4843162248991329e-02  1.7175424830506443e-03  5.8214599326750780e-03  4.5431894074361113e-03  2.2550557664107844e-03  5.1192960313493609e-02  3.0455846482769451e-02  2.4903776776247145e-02  1.3776786523329565e-01  1.9886090093742875e-03  2.4534198342086824e-01  1.1653446924547942e-01  2.3429592883132269e-01  2.3249409849019659e-01  4.2962926957899061e-01  8.7004889175795637e-03  2.3536507226548296e-02  5.4200885128573650e-01  5.2635936748565780e-02  1.8690703228018790e-01  1.4071550868256946e-01  2.0967489864069780e-01  1.9715370169198951e-01  1.2471042952903659e-01  1.7133157658598705e-01  4.7879137248876984e-02  5.8123656217705565e-02  4.9392787818390148e-02  8.4274099719039153e-02  1.7484671545077674e-02  3.0096312186874685e-01  3.1595749572577886e-01  3.3759802531425981e-01  1.1776767653895140e-01  9.1539857735341484e-02  5.0132572049078984e-02  3.8968283862577308e-02  2.2920536878337453e-02  9.6722828204300268e-03  4.1866741755748902e-03  2.6822383192477155e-03  3.7897882076894669e-03  5.8542292300562725e-03  5.3825790334220153e-03  6.4663260791410406e-03  6.8141667164900192e-03  5.8101768539796971e-03  1.6554861708420608e-03  7.4717432742435420e-04  1.1555261527994468e-34  -9.9955355203676861e-19  8.9235996201551780e-03  9.4073484814916983e-03  9.7535408448250465e-03  7.5010005652565645e-03  1.3231430487438268e-03  1.8880307923787813e-02  6.8759063707144854e-03  1.3367876201226203e-02  6.4130232298181808e-02  9.716167