<?xml version="1.0"?>
<VTKFile type="UnstructuredGrid"  version="0.1"  >
<UnstructuredGrid>
<Piece  NumberOfPoints="2601" NumberOfCells="5000">
<Points>
<DataArray  type="Float64"  NumberOfComponents="3"  format="ascii">0 0 0  0.02 0 0  0.04 0 0  0.06 0 0  0.08 0 0  0.1 0 0  0.12 0 0  0.14 0 0  0.16 0 0  0.18 0 0  0.2 0 0  0.22 0 0  0.24 0 0  0.26 0 0  0.28 0 0  0.3 0 0  0.32 0 0  0.34 0 0  0.36 0 0  0.38 0 0  0.4 0 0  0.42 0 0  0.44 0 0  0.46 0 0  0.48 0 0  0.5 0 0  0.52 0 0  0.54 0 0  0.5600000000000001 0 0  0.58 0 0  0.6 0 0  0.62 0 0  0.64 0 0  0.66 0 0  0.68 0 0  0.7 0 0  0.72 0 0  0.74 0 0  0.76 0 0  0.78 0 0  0.8 0 0  0.82 0 0  0.84 0 0  0.86 0 0  0.88 0 0  0.9 0 0  0.92 0 0  0.9399999999999999 0 0  0.96 0 0  0.98 0 0  1 0 0  0 0.02 0  0.02 0.02 0  0.04 0.02 0  0.06 0.02 0  0.08 0.02 0  0.1 0.02 0  0.12 0.02 0  0.14 0.02 0  0.16 0.02 0  0.18 0.02 0  0.2 0.02 0  0.22 0.02 0  0.24 0.02 0  0.26 0.02 0  0.28 0.02 0  0.3 0.02 0  0.32 0.02 0  0.34 0.02 0  0.36 0.02 0  0.38 0.02 0  0.4 0.02 0  0.42 0.02 0  0.44 0.02 0  0.46 0.02 0  0.48 0.02 0  0.5 0.02 0  0.52 0.02 0  0.54 0.02 0  0.5600000000000001 0.02 0  0.58 0.02 0  0.6 0.02 0  0.62 0.02 0  0.64 0.02 0  0.66 0.02 0  0.68 0.02 0  0.7 0.02 0  0.72 0.02 0  0.74 0.02 0  0.76 0.02 0  0.78 0.02 0  0.8 0.02 0  0.82 0.02 0  0.84 0.02 0  0.86 0.02 0  0.88 0.02 0  0.9 0.02 0  0.92 0.02 0  0.9399999999999999 0.02 0  0.96 0.02 0  0.98 0.02 0  1 0.02 0  0 0.04 0  0.02 0.04 0  0.04 0.04 0  0.06 0.04 0  0.08 0.04 0  0.1 0.04 0  0.12 0.04 0  0.14 0.04 0  0.16 0.04 0  0.18 0.04 0  0.2 0.04 0  0.22 0.04 0  0.24 0.04 0  0.26 0.04 0  0.28 0.04 0  0.3 0.04 0  0.32 0.04 0  0.34 0.04 0  0.36 0.04 0  0.38 0.04 0  0.4 0.04 0  0.42 0.04 0  0.44 0.04 0  0.46 0.04 0  0.48 0.04 0  0.5 0.04 0  0.52 0.04 0  0.54 0.04 0  0.5600000000000001 0.04 0  0.58 0.04 0  0.6 0.04 0  0.62 0.04 0  0.64 0.04 0  0.66 0.04 0  0.68 0.04 0  0.7 0.04 0  0.72 0.04 0  0.74 0.04 0  0.76 0.04 0  0.78 0.04 0  0.8 0.04 0  0.82 0.04 0  0.84 0.04 0  0.86 0.04 0  0.88 0.04 0  0.9 0.04 0  0.92 0.04 0  0.9399999999999999 0.04 0  0.96 0.04 0  0.98 0.04 0  1 0.04 0  0 0.06 0  0.02 0.06 0  0.04 0.06 0  0.06 0.06 0  0.08 0.06 0  0.1 0.06 0  0.12 0.06 0  0.14 0.06 0  0.16 0.06 0  0.18 0.06 0  0.2 0.06 0  0.22 0.06 0  0.24 0.06 0  0.26 0.06 0  0.28 0.06 0  0.3 0.06 0  0.32 0.06 0  0.34 0.06 0  0.36 0.06 0  0.38 0.06 0  0.4 0.06 0  0.42 0.06 0  0.44 0.06 0  0.46 0.06 0  0.48 0.06 0  0.5 0.06 0  0.52 0.06 0  0.54 0.06 0  0.5600000000000001 0.06 0  0.58 0.06 0  0.6 0.06 0  0.62 0.06 0  0.64 0.06 0  0.66 0.06 0  0.68 0.06 0  0.7 0.06 0  0.72 0.06 0  0.74 0.06 0  0.76 0.06 0  0.78 0.06 0  0.8 0.06 0  0.82 0.06 0  0.84 0.06 0  0.86 0.06 0  0.88 0.06 0  0.9 0.06 0  0.92 0.06 0  0.9399999999999999 0.06 0  0.96 0.06 0  0.98 0.06 0  1 0.06 0  0 0.08 0  0.02 0.08 0  0.04 0.08 0  0.06 0.08 0  0.08 0.08 0  0.1 0.08 0  0.12 0.08 0  0.14 0.08 0  0.16 0.08 0  0.18 0.08 0  0.2 0.08 0  0.22 0.08 0  0.24 0.08 0  0.26 0.08 0  0.28 0.08 0  0.3 0.08 0  0.32 0.08 0  0.34 0.08 0  0.36 0.08 0  0.38 0.08 0  0.4 0.08 0  0.42 0.08 0  0.44 0.08 0  0.46 0.08 0  0.48 0.08 0  0.5 0.08 0  0.52 0.08 0  0.54 0.08 0  0.5600000000000001 0.08 0  0.58 0.08 0  0.6 0.08 0  0.62 0.08 0  0.64 0.08 0  0.66 0.08 0  0.68 0.08 0  0.7 0.08 0  0.72 0.08 0  0.74 0.08 0  0.76 0.08 0  0.78 0.08 0  0.8 0.08 0  0.82 0.08 0  0.84 0.08 0  0.86 0.08 0  0.88 0.08 0  0.9 0.08 0  0.92 0.08 0  0.9399999999999999 0.08 0  0.96 0.08 0  0.98 0.08 0  1 0.08 0  0 0.1 0  0.02 0.1 0  0.04 0.1 0  0.06 0.1 0  0.08 0.1 0  0.1 0.1 0  0.12 0.1 0  0.14 0.1 0  0.16 0.1 0  0.18 0.1 0  0.2 0.1 0  0.22 0.1 0  0.24 0.1 0  0.26 0.1 0  0.28 0.1 0  0.3 0.1 0  0.32 0.1 0  0.34 0.1 0  0.36 0.1 0  0.38 0.1 0  0.4 0.1 0  0.42 0.1 0  0.44 0.1 0  0.46 0.1 0  0.48 0.1 0  0.5 0.1 0  0.52 0.1 0  0.54 0.1 0  0.5600000000000001 0.1 0  0.58 0.1 0  0.6 0.1 0  0.62 0.1 0  0.64 0.1 0  0.66 0.1 0  0.68 0.1 0  0.7 0.1 0  0.72 0.1 0  0.74 0.1 0  0.76 0.1 0  0.78 0.1 0  0.8 0.1 0  0.82 0.1 0  0.84 0.1 0  0.86 0.1 0  0.88 0.1 0  0.9 0.1 0  0.92 0.1 0  0.9399999999999999 0.1 0  0.96 0.1 0  0.98 0.1 0  1 0.1 0  0 0.12 0  0.02 0.12 0  0.04 0.12 0  0.06 0.12 0  0.08 0.12 0  0.1 0.12 0  0.12 0.12 0  0.14 0.12 0  0.16 0.12 0  0.18 0.12 0  0.2 0.12 0  0.22 0.12 0  0.24 0.12 0  0.26 0.12 0  0.28 0.12 0  0.3 0.12 0  0.32 0.12 0  0.34 0.12 0  0.36 0.12 0  0.38 0.12 0  0.4 0.12 0  0.42 0.12 0  0.44 0.12 0  0.46 0.12 0  0.48 0.12 0  0.5 0.12 0  0.52 0.12 0  0.54 0.12 0  0.5600000000000001 0.12 0  0.58 0.12 0  0.6 0.12 0  0.62 0.12 0  0.64 0.12 0  0.66 0.12 0  0.68 0.12 0  0.7 0.12 0  0.72 0.12 0  0.74 0.12 0  0.76 0.12 0  0.78 0.12 0  0.8 0.12 0  0.82 0.12 0  0.84 0.12 0  0.86 0.12 0  0.88 0.12 0  0.9 0.12 0  0.92 0.12 0  0.9399999999999999 0.12 0  0.96 0.12 0  0.98 0.12 0  1 0.12 0  0 0.14 0  0.02 0.14 0  0.04 0.14 0  0.06 0.14 0  0.08 0.14 0  0.1 0.14 0  0.12 0.14 0  0.14 0.14 0  0.16 0.14 0  0.18 0.14 0  0.2 0.14 0  0.22 0.14 0  0.24 0.14 0  0.26 0.14 0  0.28 0.14 0  0.3 0.14 0  0.32 0.14 0  0.34 0.14 0  0.36 0.14 0  0.38 0.14 0  0.4 0.14 0  0.42 0.14 0  0.44 0.14 0  0.46 0.14 0  0.48 0.14 0  0.5 0.14 0  0.52 0.14 0  0.54 0.14 0  0.5600000000000001 0.14 0  0.58 0.14 0  0.6 0.14 0  0.62 0.14 0  0.64 0.14 0  0.66 0.14 0  0.68 0.14 0  0.7 0.14 0  0.72 0.14 0  0.74 0.14 0  0.76 0.14 0  0.78 0.14 0  0.8 0.14 0  0.82 0.14 0  0.84 0.14 0  0.86 0.14 0  0.88 0.14 0  0.9 0.14 0  0.92 0.14 0  0.9399999999999999 0.14 0  0.96 0.14 0  0.98 0.14 0  1 0.14 0  0 0.16 0  0.02 0.16 0  0.04 0.16 0  0.06 0.16 0  0.08 0.16 0  0.1 0.16 0  0.12 0.16 0  0.14 0.16 0  0.16 0.16 0  0.18 0.16 0  0.2 0.16 0  0.22 0.16 0  0.24 0.16 0  0.26 0.16 0  0.28 0.16 0  0.3 0.16 0  0.32 0.16 0  0.34 0.16 0  0.36 0.16 0  0.38 0.16 0  0.4 0.16 0  0.42 0.16 0  0.44 0.16 0  0.46 0.16 0  0.48 0.16 0  0.5 0.16 0  0.52 0.16 0  0.54 0.16 0  0.5600000000000001 0.16 0  0.58 0.16 0  0.6 0.16 0  0.62 0.16 0  0.64 0.16 0  0.66 0.16 0  0.68 0.16 0  0.7 0.16 0  0.72 0.16 0  0.74 0.16 0  0.76 0.16 0  0.78 0.16 0  0.8 0.16 0  0.82 0.16 0  0.84 0.16 0  0.86 0.16 0  0.88 0.16 0  0.9 0.16 0  0.92 0.16 0  0.9399999999999999 0.16 0  0.96 0.16 0  0.98 0.16 0  1 0.16 0  0 0.18 0  0.02 0.18 0  0.04 0.18 0  0.06 0.18 0  0.08 0.18 0  0.1 0.18 0  0.12 0.18 0  0.14 0.18 0  0.16 0.18 0  0.18 0.18 0  0.2 0.18 0  0.22 0.18 0  0.24 0.18 0  0.26 0.18 0  0.28 0.18 0  0.3 0.18 0  0.32 0.18 0  0.34 0.18 0  0.36 0.18 0  0.38 0.18 0  0.4 0.18 0  0.42 0.18 0  0.44 0.18 0  0.46 0.18 0  0.48 0.18 0  0.5 0.18 0  0.52 0.18 0  0.54 0.18 0  0.5600000000000001 0.18 0  0.58 0.18 0  0.6 0.18 0  0.62 0.18 0  0.64 0.18 0  0.66 0.18 0  0.68 0.18 0  0.7 0.18 0  0.72 0.18 0  0.74 0.18 0  0.76 0.18 0  0.78 0.18 0  0.8 0.18 0  0.82 0.18 0  0.84 0.18 0  0.86 0.18 0  0.88 0.18 0  0.9 0.18 0  0.92 0.18 0  0.9399999999999999 0.18 0  0.96 0.18 0  0.98 0.18 0  1 0.18 0  0 0.2 0  0.02 0.2 0  0.04 0.2 0  0.06 0.2 0  0.08 0.2 0  0.1 0.2 0  0.12 0.2 0  0.14 0.2 0  0.16 0.2 0  0.18 0.2 0  0.2 0.2 0  0.22 0.2 0  0.24 0.2 0  0.26 0.2 0  0.28 0.2 0  0.3 0.2 0  0.32 0.2 0  0.34 0.2 0  0.36 0.2 0  0.38 0.2 0  0.4 0.2 0  0.42 0.2 0  0.44 0.2 0  0.46 0.2 0  0.48 0.2 0  0.5 0.2 0  0.52 0.2 0  0.54 0.2 0  0.5600000000000001 0.2 0  0.58 0.2 0  0.6 0.2 0  0.62 0.2 0  0.64 0.2 0  0.66 0.2 0  0.68 0.2 0  0.7 0.2 0  0.72 0.2 0  0.74 0.2 0  0.76 0.2 0  0.78 0.2 0  0.8 0.2 0  0.82 0.2 0  0.84 0.2 0  0.86 0.2 0  0.88 0.2 0  0.9 0.2 0  0.92 0.2 0  0.9399999999999999 0.2 0  0.96 0.2 0  0.98 0.2 0  1 0.2 0  0 0.22 0  0.02 0.22 0  0.04 0.22 0  0.06 0.22 0  0.08 0.22 0  0.1 0.22 0  0.12 0.22 0  0.14 0.22 0  0.16 0.22 0  0.18 0.22 0  0.2 0.22 0  0.22 0.22 0  0.24 0.22 0  0.26 0.22 0  0.28 0.22 0  0.3 0.22 0  0.32 0.22 0  0.34 0.22 0  0.36 0.22 0  0.38 0.22 0  0.4 0.22 0  0.42 0.22 0  0.44 0.22 0  0.46 0.22 0  0.48 0.22 0  0.5 0.22 0  0.52 0.22 0  0.54 0.22 0  0.5600000000000001 0.22 0  0.58 0.22 0  0.6 0.22 0  0.62 0.22 0  0.64 0.22 0  0.66 0.22 0  0.68 0.22 0  0.7 0.22 0  0.72 0.22 0  0.74 0.22 0  0.76 0.22 0  0.78 0.22 0  0.8 0.22 0  0.82 0.22 0  0.84 0.22 0  0.86 0.22 0  0.88 0.22 0  0.9 0.22 0  0.92 0.22 0  0.9399999999999999 0.22 0  0.96 0.22 0  0.98 0.22 0  1 0.22 0  0 0.24 0  0.02 0.24 0  0.04 0.24 0  0.06 0.24 0  0.08 0.24 0  0.1 0.24 0  0.12 0.24 0  0.14 0.24 0  0.16 0.24 0  0.18 0.24 0  0.2 0.24 0  0.22 0.24 0  0.24 0.24 0  0.26 0.24 0  0.28 0.24 0  0.3 0.24 0  0.32 0.24 0  0.34 0.24 0  0.36 0.24 0  0.38 0.24 0  0.4 0.24 0  0.42 0.24 0  0.44 0.24 0  0.46 0.24 0  0.48 0.24 0  0.5 0.24 0  0.52 0.24 0  0.54 0.24 0  0.5600000000000001 0.24 0  0.58 0.24 0  0.6 0.24 0  0.62 0.24 0  0.64 0.24 0  0.66 0.24 0  0.68 0.24 0  0.7 0.24 0  0.72 0.24 0  0.74 0.24 0  0.76 0.24 0  0.78 0.24 0  0.8 0.24 0  0.82 0.24 0  0.84 0.24 0  0.86 0.24 0  0.88 0.24 0  0.9 0.24 0  0.92 0.24 0  0.9399999999999999 0.24 0  0.96 0.24 0  0.98 0.24 0  1 0.24 0  0 0.26 0  0.02 0.26 0  0.04 0.26 0  0.06 0.26 0  0.08 0.26 0  0.1 0.26 0  0.12 0.26 0  0.14 0.26 0  0.16 0.26 0  0.18 0.26 0  0.2 0.26 0  0.22 0.26 0  0.24 0.26 0  0.26 0.26 0  0.28 0.26 0  0.3 0.26 0  0.32 0.26 0  0.34 0.26 0  0.36 0.26 0  0.38 0.26 0  0.4 0.26 0  0.42 0.26 0  0.44 0.26 0  0.46 0.26 0  0.48 0.26 0  0.5 0.26 0  0.52 0.26 0  0.54 0.26 0  0.5600000000000001 0.26 0  0.58 0.26 0  0.6 0.26 0  0.62 0.26 0  0.64 0.26 0  0.66 0.26 0  0.68 0.26 0  0.7 0.26 0  0.72 0.26 0  0.74 0.26 0  0.76 0.26 0  0.78 0.26 0  0.8 0.26 0  0.82 0.26 0  0.84 0.26 0  0.86 0.26 0  0.88 0.26 0  0.9 0.26 0  0.92 0.26 0  0.9399999999999999 0.26 0  0.96 0.26 0  0.98 0.26 0  1 0.26 0  0 0.28 0  0.02 0.28 0  0.04 0.28 0  0.06 0.28 0  0.08 0.28 0  0.1 0.28 0  0.12 0.28 0  0.14 0.28 0  0.16 0.28 0  0.18 0.28 0  0.2 0.28 0  0.22 0.28 0  0.24 0.28 0  0.26 0.28 0  0.28 0.28 0  0.3 0.28 0  0.32 0.28 0  0.34 0.28 0  0.36 0.28 0  0.38 0.28 0  0.4 0.28 0  0.42 0.28 0  0.44 0.28 0  0.46 0.28 0  0.48 0.28 0  0.5 0.28 0  0.52 0.28 0  0.54 0.28 0  0.5600000000000001 0.28 0  0.58 0.28 0  0.6 0.28 0  0.62 0.28 0  0.64 0.28 0  0.66 0.28 0  0.68 0.28 0  0.7 0.28 0  0.72 0.28 0  0.74 0.28 0  0.76 0.28 0  0.78 0.28 0  0.8 0.28 0  0.82 0.28 0  0.84 0.28 0  0.86 0.28
[...]
<PointData  Scalars="Indicator Function"> 
<DataArray  type="Float64"  Name="Indicator Function"  format="ascii">-3.8207849673195650e-22  1.5148459845993829e-17  -1.6145432729831638e-18  2.9742657392247005e-17  9.3890040118550951e-18  -4.2652216834635096e-19  -1.9310794204983080e-18  4.1733306414308358e-16  2.1278097348333750e-16  -9.9853415097148984e-19  1.7866083945650989e-16  4.7153311161160528e-16  -2.9617916896652343e-19  -1.0331223060845365e-32  -5.2790411052837249e-17  -2.0697614202898247e-18  -7.7133018134001908e-19  2.4001348722462374e-16  -9.2021984698555558e-19  -1.3846370196132391e-18  1.3106338752264377e-16  -1.0927027296369794e-18  -9.8737049671013667e-19  4.7992757047242822e-16  2.5720887288411699e-34  -6.6787315626486277e-19  -3.0779359360984498e-19  -1.5064982290910276e-19  1.6308958679870554e-16  -1.1796197308210596e-21  -2.2945549394487755e-20  -1.1472774697243885e-20  -7.5921358613062248e-20  -8.7762487836673315e-20  -8.1566853346955657e-19  -4.9387065857999131e-20  1.0717036370171540e-35  -2.1418970526489474e-20  -6.3018849833081260e-20  -7.2158755602360018e-20  4.0842761777590467e-17  -3.4989439825256766e-20  -6.3259314883828813e-20  -7.2813919407585633e-20  -5.8967313129817965e-20  -3.1351894411073008e-20  4.2900345156813257e-18  -4.5207290383847438e-21  -2.0423030622446708e-21  -8.6420602321452929e-22  5.3585181850857702e-36  -8.2462392561138804e-19  7.9583284366585415e-03  2.4504829647473041e-03  1.8568941131537175e-03  1.0908440529819036e-02  1.5367080627439050e-02  7.6251313175059940e-04  3.4787234234316011e-02  1.5913382306575453e-02  3.2007096788625851e-02  1.7987992120927641e-02  3.1830556631029018e-03  1.0670979159940303e-02  1.0296056129129426e-02  1.8621158923547713e-02  1.8990817013103074e-02  2.7790098538100799e-02  3.6498403932861537e-02  2.2744374886247507e-02  9.1141930563069413e-03  2.0386306534140804e-02  3.4729550125538106e-02  2.3196073613102296e-03  1.7786885604241614e-02  1.5642721514844134e-02  1.8838005656683760e-03  1.1089432907906583e-02  5.4277318905347925e-03  6.1291537909559802e-04  4.2500279841316660e-05  1.3668213454039042e-04  4.1335027081130534e-04  6.4605421300650801e-04  1.0446505029337418e-03  1.0586631786065248e-03  1.1960577612472165e-03  2.9164940495642012e-04  7.5764997511347369e-05  3.8584987072703042e-04  9.4232173913881242e-04  8.2873570979981749e-04  3.9466331193524625e-04  4.3298205666809193e-04  9.2308747942005092e-04  8.5015522153552626e-04  6.3718306698618693e-04  2.4619398645517549e-04  1.5712983940056677e-05  7.3581722480821696e-05  3.1136303392962379e-05  -5.9083493571464637e-21  1.3717806553819572e-33  2.0114976447322123e-02  2.3182104826668052e-02  8.7267291518959827e-03  1.1185553648933375e-02  1.3818712700484801e-02  2.9137254903644143e-02  3.3793916875400690e-02  9.9185028747783861e-03  3.3853709399036203e-02  2.3120146508103619e-02  5.1306753054959478e-02  8.5009114195970042e-02  6.1967359628086000e-02  7.1750714961712906e-03  4.6063657289188438e-02  5.7921488585667473e-02  2.5062260594223380e-03  6.1690033570377174e-02  6.8875199607800813e-03  3.6890213165304310e-02  1.8151769430223542e-02  6.6774141849810939e-02  6.1477333030306967e-02  4.6162021167877348e-02  1.9487184827595101e-02  2.5979849604839119e-02  1.6032161093773368e-03  6.1468750459532061e-03  4.3838009283610219e-03  4.5641646566730215e-04  3.1553560661378741e-06  3.1518003616647128e-05  1.6490355222403262e-03  1.6406412486970237e-03  1.3797520365009960e-03  1.6491241924430238e-03  4.5884008618870669e-04  3.4629892160190632e-04  1.0204700321481720e-03  1.3848706327040713e-03  1.0637278380997803e-04  8.7699043439573403e-04  7.7514780677057581e-04  1.4911716947614236e-03  7.7585268044039115e-04  6.1695494489591343e-04  1.1079134029442635e-05  1.9401410919828638e-04  1.3250202690393164e-04  3.3099030242605667e-20  -1.6865418715163304e-19  1.1119350562516655e-02  3.9669359257282011e-03  8.5863178226710680e-03  1.6689289358867189e-02  1.9368434074941321e-02  2.9957393225275082e-02  4.6517229910720713e-03  7.7091897100653284e-02  5.4867547638451232e-02  7.8129717381770131e-02  5.9546974166968594e-02  2.5668000462008664e-02  3.7834192282309620e-03  1.2371986568365037e-02  2.5240768780425669e-02  3.5506832320956160e-02  5.5518639720425728e-02  8.6004850138606009e-02  4.0658698041843716e-02  3.5263853633883749e-03  4.2261307953273167e-02  5.7307957442664863e-02  7.9088940182724145e-03  5.5895290630434892e-02  5.7492933857398364e-02  1.1356582850084142e-02  2.6122974375303625e-02  1.7969607941448782e-02  2.3820311194962698e-03  2.8507658362904322e-03  5.8726874650126418e-04  5.6365211743906356e-04  1.5546792900381172e-03  1.9531430672321509e-03  1.6911358882372384e-03  1.9596563778883557e-03  5.0370182942671997e-04  3.9554626079151502e-05  1.4626578368440041e-04  1.3499044884287827e-03  9.8503413710458732e-04  1.6079076552040631e-03  8.2789247336877158e-04  1.4823766877744230e-03  1.3702218484669430e-03  7.5228456490175264e-04  2.5916972023480941e-04  1.3871091995631621e-04  1.7219918027890991e-04  -2.3897436845902929e-20  -5.0956797551592002e-19  3.3665414624239491e-02  3.1313896325531913e-03  2.5914001460093761e-02  1.4959831729103252e-03  1.9805438777981223e-02  2.2334282066107727e-02  5.7737754878669341e-02  3.6150147990183817e-02  7.4028201531553695e-03  3.1769061799096651e-02  1.7675012186601471e-02  5.8558400098150658e-02  1.2580488829009381e-01  1.1461235404866053e-01  2.4978399092858976e-02  8.4984062896782647e-02  1.0596265769068049e-01  9.3558108795209257e-03  1.1240473934533200e-01  8.2211938152835697e-03  3.9608184967303735e-02  2.1155664760968730e-02  1.0065118690935530e-01  1.0211139997408322e-01  5.9432223981501123e-02  1.8616104978063232e-02  3.6134037573814289e-02  2.5970328396073210e-05  1.6240713802271808e-02  9.0567257205959144e-03  6.0241595618729279e-05  4.1515463580596754e-04  1.5294530715232054e-04  2.6775904999972082e-03  2.0209685909447377e-03  1.5373490814646496e-03  2.3231711190995689e-03  9.9680406085315499e-04  8.3216516400911298e-04  9.9857151642521484e-04  1.4870543366722938e-03  6.8730247468389775e-04  2.0857362044613579e-03  1.0210938727092684e-03  2.1394068214514784e-03  9.6969851037825784e-04  7.8443690068552585e-04  2.7254787392775859e-05  1.5785624088865890e-04  3.7226924669366059e-20  -2.9284139282889743e-19  2.1719800108207808e-02  1.9478250936974754e-02  2.3133649010537580e-02  1.0801634130268845e-02  2.2346302603576985e-02  3.4191544197788380e-02  2.5107441343631749e-02  3.6899136670036576e-03  1.0427643259133111e-01  7.9232862724357284e-02  1.0157170545739073e-01  8.1016653365114100e-02  4.5481840838691966e-02  3.2084967723502812e-02  4.2018953830279078e-03  2.7165705418734372e-02  3.3573893456530217e-02  7.9036528611830664e-02  1.1517243315321021e-01  5.8086525967751428e-02  1.7132552677642181e-02  5.7770131641590179e-02  7.3674405004844221e-02  1.4972535367191290e-02  9.2276540944137106e-02  8.7100141001342668e-02  2.2269714266471459e-02  3.9041499195209613e-02  2.5068437145651209e-02  1.6201593221179544e-04  7.3256883527087575e-03  9.2389428960134396e-04  4.4557854609824390e-04  1.7359116977013543e-03  2.6433106992544407e-03  1.8569303934627621e-03  2.0858535194862001e-03  8.7373995155403089e-04  5.8494725869132058e-04  4.1799859211076417e-04  1.4791950492298689e-03  9.2605573269585945e-04  2.5956736931217008e-03  1.5876592124057134e-03  1.8742868930546959e-03  2.0184645456512908e-03  9.8140105692395558e-04  5.7230803187584473e-04  4.4468426468006134e-05  2.1434072740343081e-35  -4.6309475051986100e-19  9.3113886423575373e-03  2.5556225533768285e-02  2.8563586369653223e-02  4.0213763002607879e-02  3.4663427800572994e-03  2.6059080570920174e-02  2.4940450114487818e-02  7.6302636281468966e-02  4.1624448247925661e-02  6.9652808111722404e-03  2.9262988301459937e-02  1.0710308495921153e-02  5.6810900852814032e-02  1.4617792058658294e-01  1.4188533594014152e-01  3.2906903986412446e-02  1.1781190601669683e-01  1.4879751163055840e-01  2.6166575271874513e-02  1.6059721884636419e-01  2.1798352665706112e-02  3.0489150419468456e-02  2.6767577097437639e-02  1.2718941811267129e-01  1.2729794353906346e-01  6.0054552348099713e-02  6.2249964550815324e-03  3.6352737738295268e-02  6.2683645277494798e-03  2.5340769270011072e-02  1.1232425719526764e-02  3.0279307912339350e-03  3.6392508948399456e-04  5.9850976623286286e-04  3.1121334202118553e-03  2.1682540400349256e-03  1.5148345171289942e-03  2.5309868304192419e-03  1.1390941667354852e-03  6.7432230716476485e-04  7.5207628471051348e-04  1.6706053424994363e-03  9.8508386970205765e-04  3.1502342806357807e-03  1.3680135010017704e-03  2.6488595677561680e-03  1.4622608913196216e-03  1.0631998789106404e-03  3.6344144014237908e-04  3.7509627295600390e-35  -4.6611288116395809e-19  1.3216920062813609e-02  1.3525828224318501e-02  1.3697820870769171e-02  3.3608105544796658e-02  3.2845500640421015e-02  4.3005213126639422e-02  4.3180746210347419e-02  1.8410669932470335e-02  1.8899272405422975e-02  1.3094171099582788e-01  8.7494033213460942e-02  1.0591654728830339e-01  8.2860737073779889e-02  4.2549513693960317e-02  3.6983214355884912e-02  5.4686048099949203e-03  2.1920476729191545e-02  3.3510222790344428e-02  8.6379406164411865e-02  1.3490190838771790e-01  6.8221005971382379e-02  1.6418776304229391e-02  7.0104064552001813e-02  9.9609683325156323e-02  1.0143868587113402e-02  1.1413013100415052e-01  9.6597855267079341e-02  1.0360799706756615e-02  4.2944330857888263e-02  2.5049153255722770e-02  5.4424134976226056e-03  1.1175388466442133e-02  2.8268557023754405e-04  7.7737037780795841e-04  1.0262580608871483e-03  2.9455168052602101e-03  1.5470532720384248e-03  1.7894445035775313e-03  9.5830947178121128e-04  1.2287748802739548e-03  5.4077714873274605e-04  1.6166577306253337e-03  1.0220082150803856e-03  3.0858253657582045e-03  2.4523711755290827e-03  2.0400004122455993e-03  2.4924817534231125e-03  1.2336975563313516e-03  7.1983810122581353e-04  -5.7644600826709033e-20  -3.7444767994816694e-19  8.5370538199412496e-03  4.7609697854322612e-03  2.4345273819589831e-02  4.3577483772926175e-02  3.6774047251310171e-02  1.6442053609295657e-02  2.5462769681446579e-02  5.3056951026605277e-03  9.6668578691625526e-02  6.0657620667126141e-02  1.7246261464857249e-02  5.0250693583454888e-02  1.6855599210420083e-02  6.9500380281594248e-02  1.7594899145990811e-01  1.7031081594621053e-01  4.0565911058974051e-02  1.5092424883687158e-01  1.9934189995497506e-01  3.7089808622521120e-02  2.1414933579100986e-01  4.6246133809969336e-02  2.2356532545165713e-02  2.8370981921260151e-02  1.5881261111290210e-01  1.4607381383372267e-01  6.9570458486695394e-02  7.3657686138231225e-03  4.4995853489476156e-02  1.2344306669256169e-02  2.8486486903665478e-02  1.0362405504799022e-02  7.9674980013949119e-03  2.1467585562933859e-04  1.1964575043448822e-03  2.5237896922291844e-03  2.0447476976688302e-03  9.8146110953728168e-04  1.9446908950951883e-03  1.3788974504533869e-03  3.2570024414084150e-04  7.4596453194794154e-04  2.1342143566287076e-03  9.6483638435699160e-04  3.7264626712955485e-03  1.8800593975804626e-03  2.7755619967071558e-03  1.8228878950717576e-03  9.7368944409186010e-04  2.7025310991630474e-20  -2.9985507311630240e-19  1.3343052580701108e-02  1.3271598546985792e-02  1.0786246647907356e-02  4.7794089651932896e-03  4.3524291706216439e-02  4.9999046047707170e-02  5.2609217738858766e-02  7.1535657292146365e-02  7.0153427858751609e-03  4.3113742437042843e-02  1.8515532293217921e-01  8.2445775088489950e-02  1.1204667941560430e-01  7.3985714007254538e-02  3.6244160339363882e-02  2.1538923324517824e-02  1.3442760145741809e-02  3.3220242779302242e-03  3.4757460681157773e-02  6.9248801983680983e-02  1.4864849295724464e-01  6.1772207228397567e-02  8.0918324801199249e-03  9.7503332944541332e-02  1.3972588368305996e-01  8.9689538938151556e-03  1.1765772034343344e-01  1.0301497034228495e-01  1.8233549589896519e-02  4.1037553161274602e-02  1.8690375046725983e-02  7.8763669848582428e-03  1.4077895477181758e-02  4.8980052704458857e-03  1.9005943341304321e-03  2.0191901138302831e-04  2.4429615273684744e-03  8.7196937517558656e-04  1.0674077129048040e-03  2.5852313289507074e-04  1.9832638080735316e-03  5.1131864087622272e-04  2.1086633663988338e-03  1.7149543441643893e-03  2.8492896371097014e-03  2.8772296655993524e-03  2.0446198945795629e-03  2.4956012644133303e-03  1.2576853661210015e-03  -6.9815562560082639e-20  -1.2860443644205850e-34  1.6032700636976132e-02  1.6664625998279583e-02  1.2342558658557160e-02  5.4694971180589613e-03  6.8853229858670179e-02  3.2076549913761618e-02  4.1131572321551832e-02  2.9768611398679343e-02  1.0633546015643031e-02  8.6712133984494691e-02  5.4070023359269914e-02  3.9363203407186458e-02  1.1463607607144417e-01  1.0224278281438823e-02  1.1969282341911462e-01  2.0288973991394971e-01  2.3069635108549907e-01  5.6770509069270308e-02  1.7968775602449105e-01  2.6412345166418361e-01  1.5243289020633552e-02  3.0015570724897905e-01  8.3689172627475647e-02  1.9972752453451630e-02  3.5357853371524958e-02  2.2033399385200006e-01  1.5006009671689541e-01  1.0441706779601079e-01  2.1358895047272071e-02  7.8847913193139788e-02  1.9143719115309221e-02  2.0604146642428805e-02  9.1309339829796898e-03  1.3720229061775023e-02  3.6128348357378727e-03  2.9518272408501972e-03  5.8288178534594034e-04  1.2574796226973099e-03  1.4272792251298816e-04  7.9285588481218334e-04  2.0144080809055848e-03  1.7126539323115821e-03  1.5499347305060458e-03  3.0650658141227454e-03  1.3431440496273459e-04  3.2305553329509463e-03  1.8637705557619955e-03  2.0825019332115094e-03  1.3851405382237190e-03  -1.9222686473470695e-19  -2.4044358986632754e-19  9.6344148538179911e-03  5.9822983672982027e-03  2.3199352257369209e-02  1.9460474882199996e-02  1.5165730547494451e-02  1.3609529347569907e-02  1.1030561320327092e-01  8.2080433346169393e-02  1.0778822489783027e-01  3.9107065192669696e-03  6.0887570979572724e-02  2.1346272536024269e-01  1.4686768647740098e-01  7.1191091149902644e-02  8.0468257698483509e-02  5.4522442205914803e-02  4.4450239953436423e-02  3.4431325183196296e-03  5.8927706663866555e-02  5.9388780007026173e-02  3.9074381098603679e-02  1.7032258050295254e-01  7.8200894652498923e-02  1.1961775358446355e-01  1.9743426198164213e-01  2.1560891477240590e-01  2.0566343952350064e-02  7.6779798185957565e-02  1.4853104781551454e-01  6.8554153471120594e-02  5.5061453633795630e-02  4.6222327720217352e-03  2.3129187477156153e-03  1.9037425556555906e-02  1.3501081393572596e-02  5.1755463467953837e-03  2.6325348211988175e-03  1.0263166481822715e-04  5.9594607860833065e-04  4.3984245304783885e-04  1.3271140283632318e-03  2.8398273201436942e-03  2.3527265108920625e-03  2.8460119889765416e-03  2.7111359498809195e-03  1.9723023006563570e-03  2.4349425307845477e-03  1.5257449553792693e-03  1.2275147301612655e-03  -1.1850239671388489e-19  -2.1434072740343081e-35  1.1462354974313398e-02  8.1231620018677210e-03  1.0336913597123896e-03  4.6799042273821430e-03  6.0088515853337970e-03  7.2535833961322516e-02  2.8011865254060402e-02  3.0377291920655091e-02  4.5346204196992430e-02  1.0723401800267895e-01  1.1420380212732788e-01  6.6181140072829964e-02  5.2330332862006654e-02  1.7421999436497407e-01  1.0064351561662549e-01  4.6465999073743651e-02  3.5610837752018293e-01  2.4419819547345589e-01  9.5609547557268554e-02  1.7688980383374858e-01  3.9814946890315339e-01  2.5813875680238308e-03  3.9510588479690134e-01  1.1447643034809268e-01  4.9995636603887894e-02  1.4114562756803475e-01  4.3292964651238391e-01  3.4514492534416900e-02  2.3434930950467367e-01  1.0593136611924316e-02  1.6955002063526373e-01  5.8412521548727003e-02  1.0221261087206474e-02  1.7695639385657658e-02  2.2676096537062946e-02  1.2258044090915847e-02  6.5396020811395441e-03  2.4980337136720101e-03  1.0479806284550974e-03  2.2057282065838591e-03  1.2554785506876808e-03  3.7167322191991288e-03  3.4052916405243787e-03  3.4462881393022365e-03  4.1648188783328819e-03  9.5291214182289803e-04  2.3454052708220996e-03  1.6674186990719279e-03  1.1974424626931422e-03  -6.6471409637288706e-20  -1.7997613872403784e-19  1.7410043069018468e-02  1.5043218998832994e-02  4.4824423440818434e-03  2.4715455753825156e-02  4.8255452492935611e-03  9.1367269527863736e-03  2.4802669268130469e-02  1.2065698611101339e-01  5.0822239582433877e-02  1.6453644372375681e-01  7.2397065569681285e-02  2.1885508586225963e-01  3.7159081059014548e-01  1.2213858897543652e-01  1.1519111259170751e-01  4.5895279587137294e-02  1.9948552046584020e-03  9.6903743661706399e-02  3.0425830693204764e-01  2.1501288269737287e-01  1.6986343384124439e-01  5.6675972284419132e-02  8.0859400883335175e-01  5.9624738926278890e-02  5.1611147541202544e-02  4.9732257921523949e-02  6.5001791295014932e-01  1.0903567341053789e-01  1.9184687630334071e-01  3.7645208533059094e-01  2.1440343984646942e-01  1.1150847379038503e-01  1.7874816497240521e-02  2.7545807854497791e-02  2.6294893862844837e-02  2.3618736835054711e-02  1.1583259319883668e-02  5.8914594010822559e-03  3.0666376505742994e-03  2.6253382504293110e-03  2.5537051135417722e-03  3.6918926460906953e-03  4.4365699358653284e-03  5.0106905758205708e-03  4.6918306195335860e-03  4.3124694998058054e-03  3.8694754337987458e-04  1.3919950139345708e-03  1.1194886510037211e-03  -6.2144103807544218e-20  2.1434072740343080e-33  3.2421618851726326e-03  9.9669500777391038e-03  2.1171739026827223e-02  2.6972133105837574e-02  8.1589846057107430e-03  6.9501391586991070e-04  6.0073869175061759e-02  3.5775407004679858e-03  6.1125914893621056e-02  4.9869154722993053e-02  7.9121450009759009e-02  2.7688116874364957e-03  3.5082265572091528e-02  4.0539161100741489e-02  4.4875055690474175e-01  2.3170277766555521e-03  1.5889403087377929e-01  3.7460014918053042e-01  3.1138809082120045e-01  8.7256794840071072e-01  8.4479397240965826e-01  2.3914521593090340e-01  1.7262670882706538e-01  4.9057626063612381e-01  2.5953394503021594e-02  1.2289937021596158e-01  1.0704365173282068e-01  4.2193912416541540e-01  1.1828015402502157e-01  2.7622256289830072e-01  1.4553197726282391e-01  2.3948228547336808e-01  1.3636043922166491e-01  6.9008959260010258e-02  4.7728819277525411e-02  3.6521554605269992e-02  2.3972575384266778e-02  1.0929786666455856e-02  5.0738261438002981e-03  3.4671763184449555e-03  3.8321792970935692e-03  3.0976037457274121e-03  5.6222133276594838e-03  4.9944694749621673e-03  6.2538047301139484e-03  5.9878844345814261e-03  2.9695580393140561e-03  1.6089163290289584e-04  3.3078901790357175e-04  1.8234814867703902e-18  6.0015403672960624e-34  1.4830368316617206e-02  1.2548295611474784e-03  5.3348984634094890e-03  4.2084574961984604e-03  2.3547511555342322e-03  5.0504758663458438e-02  3.0032900027756194e-02  2.4802136068862647e-02  1.3691632044771310e-01  1.6211718187964343e-03  2.4414996780855927e-01  1.1483028508381804e-01  2.3135097420427611e-01  2.2989071791483229e-01  4.2890847369293078e-01  8.0835468986721077e-03  2.3204583326554267e-02  5.4162452168182540e-01  5.2690817861237964e-02  1.8663666233457754e-01  1.3944354499958755e-01  2.0750473043107190e-01  1.9518926698436045e-01  1.2263538925256300e-01  1.6962209639103337e-01  4.6832918860416232e-02  5.7733578303904916e-02  4.7448121058936567e-02  8.2266466837333699e-02  1.6818898389792836e-02  2.9861779462083471e-01  3.1484109350570111e-01  3.3750742330429051e-01  1.1773582137366503e-01  9.0803960982745388e-02  4.9726121076642496e-02  3.7399164721130911e-02  2.1632536854820295e-02  9.0843096412965719e-03  5.2990090440667116e-03  4.1255440421062170e-03  3.6924813012783144e-03  5.1414145154470388e-03  5.3517909952703162e-03  6.6188738987754420e-03  6.5936071581421960e-03  5.6651919421812037e-03  1.5932833769635288e-03  6.2859536846046409e-04  1.2860443644205850e-34  -9.7341658024838435e-19  8.8742280164566586e-03  9.3126079354494962e-03  1.0070872185729109e-02  8.0165539722381746e-03  1.5966554957406822e-03  1.8494106603177300e-02  6.9434177770072670e-03  1.3086122350025159e-02  6.3326046163734523e-02  9.63425