<?xml version="1.0"?>
<VTKFile type="UnstructuredGrid"  version="0.1"  >
<UnstructuredGrid>
<Piece  NumberOfPoints="10201" NumberOfCells="20000">
<Points>
<DataArray  type="Float64"  NumberOfComponents="3"  format="ascii">0 0 0  0.01 0 0  0.02 0 0  0.03 0 0  0.04 0 0  0.05 0 0  0.06 0 0  0.07000000000000001 0 0  0.08 0 0  0.09 0 0  0.1 0 0  0.11 0 0  0.12 0 0  0.13 0 0  0.14 0 0  0.15 0 0  0.16 0 0  0.17 0 0  0.18 0 0  0.19 0 0  0.2 0 0  0.21 0 0  0.22 0 0  0.23 0 0  0.24 0 0  0.25 0 0  0.26 0 0  0.27 0 0  0.28 0 0  0.29 0 0  0.3 0 0  0.31 0 0  0.32 0 0  0.33 0 0  0.34 0 0  0.35 0 0  0.36 0 0  0.37 0 0  0.38 0 0  0.39 0 0  0.4 0 0  0.41 0 0  0.42 0 0  0.43 0 0  0.44 0 0  0.45 0 0  0.46 0 0  0.47 0 0  0.48 0 0  0.49 0 0  0.5 0 0  0.51 0 0  0.52 0 0  0.53 0 0  0.54 0 0  0.55 0 0  0.5600000000000001 0 0  0.57 0 0  0.58 0 0  0.59 0 0  0.6 0 0  0.61 0 0  0.62 0 0  0.63 0 0  0.64 0 0  0.65 0 0  0.66 0 0  0.67 0 0  0.68 0 0  0.6899999999999999 0 0  0.7 0 0  0.71 0 0  0.72 0 0  0.73 0 0  0.74 0 0  0.75 0 0  0.76 0 0  0.77 0 0  0.78 0 0  0.79 0 0  0.8 0 0  0.8100000000000001 0 0  0.82 0 0  0.83 0 0  0.84 0 0  0.85 0 0  0.86 0 0  0.87 0 0  0.88 0 0  0.89 0 0  0.9 0 0  0.91 0 0  0.92 0 0  0.93 0 0  0.9399999999999999 0 0  0.95 0 0  0.96 0 0  0.97 0 0  0.98 0 0  0.99 0 0  1 0 0  0 0.01 0  0.01 0.01 0  0.02 0.01 0  0.03 0.01 0  0.04 0.01 0  0.05 0.01 0  0.06 0.01 0  0.07000000000000001 0.01 0  0.08 0.01 0  0.09 0.01 0  0.1 0.01 0  0.11 0.01 0  0.12 0.01 0  0.13 0.01 0  0.14 0.01 0  0.15 0.01 0  0.16 0.01 0  0.17 0.01 0  0.18 0.01 0  0.19 0.01 0  0.2 0.01 0  0.21 0.01 0  0.22 0.01 0  0.23 0.01 0  0.24 0.01 0  0.25 0.01 0  0.26 0.01 0  0.27 0.01 0  0.28 0.01 0  0.29 0.01 0  0.3 0.01 0  0.31 0.01 0  0.32 0.01 0  0.33 0.01 0  0.34 0.01 0  0.35 0.01 0  0.36 0.01 0  0.37 0.01 0  0.38 0.01 0  0.39 0.01 0  0.4 0.01 0  0.41 0.01 0  0.42 0.01 0  0.43 0.01 0  0.44 0.01 0  0.45 0.01 0  0.46 0.01 0  0.47 0.01 0  0.48 0.01 0  0.49 0.01 0  0.5 0.01 0  0.51 0.01 0  0.52 0.01 0  0.53 0.01 0  0.54 0.01 0  0.55 0.01 0  0.5600000000000001 0.01 0  0.57 0.01 0  0.58 0.01 0  0.59 0.01 0  0.6 0.01 0  0.61 0.01 0  0.62 0.01 0  0.63 0.01 0  0.64 0.01 0  0.65 0.01 0  0.66 0.01 0  0.67 0.01 0  0.68 0.01 0  0.6899999999999999 0.01 0  0.7 0.01 0  0.71 0.01 0  0.72 0.01 0  0.73 0.01 0  0.74 0.01 0  0.75 0.01 0  0.76 0.01 0  0.77 0.01 0  0.78 0.01 0  0.79 0.01 0  0.8 0.01 0  0.8100000000000001 0.01 0  0.82 0.01 0  0.83 0.01 0  0.84 0.01 0  0.85 0.01 0  0.86 0.01 0  0.87 0.01 0  0.88 0.01 0  0.89 0.01 0  0.9 0.01 0  0.91 0.01 0  0.92 0.01 0  0.93 0.01 0  0.9399999999999999 0.01 0  0.95 0.01 0  0.96 0.01 0  0.97 0.01 0  0.98 0.01 0  0.99 0.01 0  1 0.01 0  0 0.02 0  0.01 0.02 0  0.02 0.02 0  0.03 0.02 0  0.04 0.02 0  0.05 0.02 0  0.06 0.02 0  0.07000000000000001 0.02 0  0.08 0.02 0  0.09 0.02 0  0.1 0.02 0  0.11 0.02 0  0.12 0.02 0  0.13 0.02 0  0.14 0.02 0  0.15 0.02 0  0.16 0.02 0  0.17 0.02 0  0.18 0.02 0  0.19 0.02 0  0.2 0.02 0  0.21 0.02 0  0.22 0.02 0  0.23 0.02 0  0.24 0.02 0  0.25 0.02 0  0.26 0.02 0  0.27 0.02 0  0.28 0.02 0  0.29 0.02 0  0.3 0.02 0  0.31 0.02 0  0.32 0.02 0  0.33 0.02 0  0.34 0.02 0  0.35 0.02 0  0.36 0.02 0  0.37 0.02 0  0.38 0.02 0  0.39 0.02 0  0.4 0.02 0  0.41 0.02 0  0.42 0.02 0  0.43 0.02 0  0.44 0.02 0  0.45 0.02 0  0.46 0.02 0  0.47 0.02 0  0.48 0.02 0  0.49 0.02 0  0.5 0.02 0  0.51 0.02 0  0.52 0.02 0  0.53 0.02 0  0.54 0.02 0  0.55 0.02 0  0.5600000000000001 0.02 0  0.57 0.02 0  0.58 0.02 0  0.59 0.02 0  0.6 0.02 0  0.61 0.02 0  0.62 0.02 0  0.63 0.02 0  0.64 0.02 0  0.65 0.02 0  0.66 0.02 0  0.67 0.02 0  0.68 0.02 0  0.6899999999999999 0.02 0  0.7 0.02 0  0.71 0.02 0  0.72 0.02 0  0.73 0.02 0  0.74 0.02 0  0.75 0.02 0  0.76 0.02 0  0.77 0.02 0  0.78 0.02 0  0.79 0.02 0  0.8 0.02 0  0.8100000000000001 0.02 0  0.82 0.02 0  0.83 0.02 0  0.84 0.02 0  0.85 0.02 0  0.86 0.02 0  0.87 0.02 0  0.88 0.02 0  0.89 0.02 0  0.9 0.02 0  0.91 0.02 0  0.92 0.02 0  0.93 0.02 0  0.9399999999999999 0.02 0  0.95 0.02 0  0.96 0.02 0  0.97 0.02 0  0.98 0.02 0  0.99 0.02 0  1 0.02 0  0 0.03 0  0.01 0.03 0  0.02 0.03 0  0.03 0.03 0  0.04 0.03 0  0.05 0.03 0  0.06 0.03 0  0.07000000000000001 0.03 0  0.08 0.03 0  0.09 0.03 0  0.1 0.03 0  0.11 0.03 0  0.12 0.03 0  0.13 0.03 0  0.14 0.03 0  0.15 0.03 0  0.16 0.03 0  0.17 0.03 0  0.18 0.03 0  0.19 0.03 0  0.2 0.03 0  0.21 0.03 0  0.22 0.03 0  0.23 0.03 0  0.24 0.03 0  0.25 0.03 0  0.26 0.03 0  0.27 0.03 0  0.28 0.03 0  0.29 0.03 0  0.3 0.03 0  0.31 0.03 0  0.32 0.03 0  0.33 0.03 0  0.34 0.03 0  0.35 0.03 0  0.36 0.03 0  0.37 0.03 0  0.38 0.03 0  0.39 0.03 0  0.4 0.03 0  0.41 0.03 0  0.42 0.03 0  0.43 0.03 0  0.44 0.03 0  0.45 0.03 0  0.46 0.03 0  0.47 0.03 0  0.48 0.03 0  0.49 0.03 0  0.5 0.03 0  0.51 0.03 0  0.52 0.03 0  0.53 0.03 0  0.54 0.03 0  0.55 0.03 0  0.5600000000000001 0.03 0  0.57 0.03 0  0.58 0.03 0  0.59 0.03 0  0.6 0.03 0  0.61 0.03 0  0.62 0.03 0  0.63 0.03 0  0.64 0.03 0  0.65 0.03 0  0.66 0.03 0  0.67 0.03 0  0.68 0.03 0  0.6899999999999999 0.03 0  0.7 0.03 0  0.71 0.03 0  0.72 0.03 0  0.73 0.03 0  0.74 0.03 0  0.75 0.03 0  0.76 0.03 0  0.77 0.03 0  0.78 0.03 0  0.79 0.03 0  0.8 0.03 0  0.8100000000000001 0.03 0  0.82 0.03 0  0.83 0.03 0  0.84 0.03 0  0.85 0.03 0  0.86 0.03 0  0.87 0.03 0  0.88 0.03 0  0.89 0.03 0  0.9 0.03 0  0.91 0.03 0  0.92 0.03 0  0.93 0.03 0  0.9399999999999999 0.03 0  0.95 0.03 0  0.96 0.03 0  0.97 0.03 0  0.98 0.03 0  0.99 0.03 0  1 0.03 0  0 0.04 0  0.01 0.04 0  0.02 0.04 0  0.03 0.04 0  0.04 0.04 0  0.05 0.04 0  0.06 0.04 0  0.07000000000000001 0.04 0  0.08 0.04 0  0.09 0.04 0  0.1 0.04 0  0.11 0.04 0  0.12 0.04 0  0.13 0.04 0  0.14 0.04 0  0.15 0.04 0  0.16 0.04 0  0.17 0.04 0  0.18 0.04 0  0.19 0.04 0  0.2 0.04 0  0.21 0.04 0  0.22 0.04 0  0.23 0.04 0  0.24 0.04 0  0.25 0.04 0  0.26 0.04 0  0.27 0.04 0  0.28 0.04 0  0.29 0.04 0  0.3 0.04 0  0.31 0.04 0  0.32 0.04 0  0.33 0.04 0  0.34 0.04 0  0.35 0.04 0  0.36 0.04 0  0.37 0.04 0  0.38 0.04 0  0.39 0.04 0  0.4 0.04 0  0.41 0.04 0  0.42 0.04 0  0.43 0.04 0  0.44 0.04 0  0.45 0.04 0  0.46 0.04 0  0.47 0.04 0  0.48 0.04 0  0.49 0.04 0  0.5 0.04 0  0.51 0.04 0  0.52 0.04 0  0.53 0.04 0  0.54 0.04 0  0.55 0.04 0  0.5600000000000001 0.04 0  0.57 0.04 0  0.58 0.04 0  0.59 0.04 0  0.6 0.04 0  0.61 0.04 0  0.62 0.04 0  0.63 0.04 0  0.64 0.04 0  0.65 0.04 0  0.66 0.04 0  0.67 0.04 0  0.68 0.04 0  0.6899999999999999 0.04 0  0.7 0.04 0  0.71 0.04 0  0.72 0.04 0  0.73 0.04 0  0.74 0.04 0  0.75 0.04 0  0.76 0.04 0  0.77 0.04 0  0.78 0.04 0  0.79 0.04 0  0.8 0.04 0  0.8100000000000001 0.04 0  0.82 0.04 0  0.83 0.04 0  0.84 0.04 0  0.85 0.04 0  0.86 0.04 0  0.87 0.04 0  0.88 0.04 0  0.89 0.04 0  0.9 0.04 0  0.91 0.04 0  0.92 0.04 0  0.93 0.04 0  0.9399999999999999 0.04 0  0.95 0.04 0  0.96 0.04 0  0.97 0.04 0  0.98 0.04 0  0.99 0.04 0  1 0.04 0  0 0.05 0  0.01 0.05 0  0.02 0.05 0  0.03 0.05 0  0.04 0.05 0  0.05 0.05 0  0.06 0.05 0  0.07000000000000001 0.05 0  0.08 0.05 0  0.09 0.05 0  0.1 0.05 0  0.11 0.05 0  0.12 0.05 0  0.13 0.05 0  0.14 0.05 0  0.15 0.05 0  0.16 0.05 0  0.17 0.05 0  0.18 0.05 0  0.19 0.05 0  0.2 0.05 0  0.21 0.05 0  0.22 0.05 0  0.23 0.05 0  0.24 0.05 0  0.25 0.05 0  0.26 0.05 0  0.27 0.05 0  0.28 0.05 0  0.29 0.05 0  0.3 0.05 0  0.31 0.05 0  0.32 0.05 0  0.33 0.05 0  0.34 0.05 0  0.35 0.05 0  0.36 0.05 0  0.37 0.05 0  0.38 0.05 0  0.39 0.05 0  0.4 0.05 0  0.41 0.05 0  0.42 0.05 0  0.43 0.05 0  0.44 0.05 0  0.45 0.05 0  0.46 0.05 0  0.47 0.05 0  0.48 0.05 0  0.49 0.05 0  0.5 0.05 0  0.51 0.05 0  0.52 0.05 0  0.53 0.05 0  0.54 0.05 0  0.55 0.05 0  0.5600000000000001 0.05 0  0.57 0.05 0  0.58 0.05 0  0.59 0.05 0  0.6 0.05 0  0.61 0.05 0  0.62 0.05 0  0.63 0.05 0  0.64 0.05 0  0.65 0.05 0  0.66 0.05 0  0.67 0.05 0  0.68 0.05 0  0.6899999999999999 0.05 0  0.7 0.05 0  0.71 0.05 0  0.72 0.05 0  0.73 0.05 0  0.74 0.05 0  0.75 0.05 0  0.76 0.05 0  0.77 0.05 0  0.78 0.05 0  0.79 0.05 0  0.8 0.05 0  0.8100000000000001 0.05 0  0.82 0.05 0  0.83 0.05 0  0.84 0.05 0  0.85 0.05 0  0.86 0.05 0  0.87 0.05 0  0.88 0.05 0  0.89 0.05 0  0.9 0.05 0  0.91 0.05 0  0.92 0.05 0  0.93 0.05 0  0.9399999999999999 0.05 0  0.95 0.05 0  0.96 0.05 0  0.97 0.05 0  0.98 0.05 0  0.99 0.05 0  1 0.05 0  0 0.06 0  0.01 0.06 0  0.02 0.06 0  0.03 0.06 0  0.04 0.06 0  0.05 0.06 0  0.06 0.06 0  0.07000000000000001 0.06 0  0.08 0.06 0  0.09 0.06 0  0.1 0.06 0  0.11 0.06 0  0.12 0.06 0  0.13 0.06 0  0.14 0.06 0  0.15 0.06 0  0.16 0.06 0  0.17 0.06 0  0.18 0.06 0  0.19 0.06 0  0.2 0.06 0  0.21 0.06 0  0.22 0.06 0  0.23 0.06 0  0.24 0.06 0  0.25 0.06 0  0.26 0.06 0  0.27 0.06 0  0.28 0.06 0  0.29 0.06 0  0.3 0.06 0  0.31 0.06 0  0.32 0.06 0  0.33 0.06 0  0.34 0.06 0  0.35 0.06 0  0.36 0.06 0  0.37 0.06 0  0.38 0.06 0  0.39 0.06 0  0.4 0.06 0  0.41 0.06 0  0.42 0.06 0  0.43 0.06 0  0.44 0.06 0  0.45 0.06 0  0.46 0.06 0  0.47 0.06 0  0.48 0.06 0  0.49 0.06 0  0.5 0.06 0  0.51 0.06 0  0.52 0.06 0  0.53 0.06 0  0.54 0.06 0  0.55 0.06 0  0.5600000000000001 0.06 0  0.57 0.06 0  0.58 0.06 0  0.59 0.06 0  0.6 0.06 0  0.61 0.06 0  0.62 0.06 0  0.63 0.06 0  0.64 0.06 0  0.65 0.06 0  0.66 0.06 0  0.67 0.06 0  0.68 0.06 0  0.6899999999999999 0.06 0  0.7 0.06 0  0.71 0.06 0  0.72 0.06 0  0.73 0.06 0  0.74 0.06 0  0.75 0.06 0  0.76 0.06 0  0.77 0.06 0  0.78 0.06 0  0.79 0.06 0  0.8 0.06 0  0.8100000000000001 0.06 0  0.82 0.06 0  0.83 0.06 0  0.84 0.06 0  0.85 0.06 0  0.86 0.06 0  0.87 0.06 0  0.88 0.06 0  0.89 0.06 0  0.9 0.06 0  0.91 0.06 0  0.92 0.06 0  0.93 0.06 0  0.9399999999999999 0.06 0  0.95 0.06 0  0.96 0.06 0  0.97 0.06 0  0.98 0.06 0  0.99 0.06 0  1 0.06 0  0 0.07000000000000001 0  0.01 0.07000000000000001 0  0.02 0.07000000000000001 0  0.03 0.07000000000000001 0  0.04 0.07000000000000001 0  0.05 0.07000000000000001 0  0.06 0.07000000000000001 0  0.07000000000000001 0.07000000000000001 0  0.08 0.07000000000000001 0  0.09 0.07000000000000001 0  0.1 0.07000000000000001 0  0.11 0.07000000000000001 0  0.12 0.07000000000000001 0  0.13 0.07000000000000001 0  0.14 0.07000000000000001 0  0.15 0.07000000000000001 0  0.16 0.07000000000000001 0  0.17 0.0700
[...]
<PointData  Scalars="Indicator Function"> 
<DataArray  type="Float64"  Name="Indicator Function"  format="ascii">-3.8369336384204425e-19  1.3716000710290079e-18  2.8246468264638381e-17  9.4587723433390309e-19  7.2370598213091477e-17  -1.7520794260583116e-19  -6.3245738439417716e-20  3.0215307550692832e-17  1.3037210854142594e-16  -1.9776991115530748e-19  4.7571860752213632e-17  3.9391695767145661e-17  -2.8772820832453548e-20  -5.2040027428303071e-19  2.7516363443785334e-16  7.2222372914521344e-35  -3.7742443974930737e-19  3.1367560746749790e-16  -6.5593299314097026e-19  -8.6182138885359704e-19  7.1112167663739155e-16  -1.6074737451983495e-18  -8.6085128695704891e-19  4.2181713060895796e-17  -2.7584926740042512e-19  -7.1532574602616317e-19  -6.7380658341651440e-19  -8.1125302614342808e-19  1.0741029395699727e-15  -1.0848961849602474e-18  -2.4681138588145325e-18  -1.2340569294072660e-18  -1.2063484343556039e-18  -1.4809024024535379e-18  6.7847630514988358e-17  -6.6484030705801866e-19  -3.0867890214832751e-18  -5.2632220419101352e-18  -5.8914263590026667e-18  -4.8323371013013572e-18  6.3013514485586496e-16  -5.1681656280137175e-20  -1.1874934739461281e-18  -1.0567064478351666e-18  -1.3879625540620379e-18  -6.9398127703098888e-19  1.6640758460001303e-16  -6.9181169205142719e-19  -2.6154282362456397e-19  -4.6014931186635900e-19  -2.3007465593317964e-19  -3.4121671178256823e-19  -8.0312364589093180e-20  -4.7675852779477759e-19  -2.4856848389648318e-19  -1.6611145770339909e-33  1.1832913578315177e-30  -6.1951200696536879e-20  -2.5671095454226269e-20  -2.1851589493555622e-20  -1.0370791970358013e-20  -4.3689804044935875e-20  -2.0490479377203711e-20  -1.9745127939048000e-21  -6.4759849409485937e-21  -1.4017668158196820e-20  -1.8028333228558557e-20  -1.9435353517652694e-21  1.8700644060661808e-17  -4.1716263381050245e-20  -1.2357281210109137e-20  -4.4715332103449105e-21  -2.3014359614875689e-21  -8.3069006503908496e-20  -1.3326586782419168e-19  -7.2858890917641039e-20  -2.6341626273149379e-20  -5.6603730106496953e-20  -6.4089956559768201e-20  -5.4355875484489604e-20  -2.8586999080620786e-20  1.4669809050800401e-17  -1.8935112824548891e-20  -7.1660005044943409e-20  -6.5990275321387550e-20  -4.6131540403201663e-20  -9.3027386896371369e-21  -1.7400647442986230e-20  -2.2580674023384898e-20  -9.4602379933063876e-21  -1.3436343552755824e-22  -1.8717895603730131e-21  -4.6916891222741556e-21  2.5815724067303772e-18  -3.1167733567096965e-21  -1.4264098574940844e-21  -1.2801140671609571e-22  -1.7395587082712325e-22  -6.4693334414521077e-22  -1.1754943508222875e-37  2.5860875718090325e-37  0.0000000000000000e+00  1.4558851259709241e-02  2.6217091456763687e-02  5.5609260311218637e-03  7.7130637744348305e-03  1.7551956551593783e-03  2.2786678725481989e-03  1.1569802477471658e-03  2.2521880784465900e-02  2.0930293508494294e-02  3.5627059927365256e-03  2.8462868085807426e-02  1.0366501214354831e-03  1.8749395850756020e-02  1.5202263477367313e-02  3.4147848643940847e-02  1.3598148529724362e-02  1.2339279828101569e-03  2.3632476667917485e-02  3.1050387885607419e-02  2.1926496578455797e-02  3.7323111427405457e-02  2.8957672639532570e-02  1.5507718140644854e-02  9.9385172629998242e-03  2.5772326106015590e-02  2.4276440623955207e-02  1.4887986934327807e-02  7.1702418378068629e-03  1.3932742250732062e-02  1.2577381091924543e-02  4.4461586619460335e-02  3.0462188125343851e-02  6.5005473750995883e-03  2.3427292343897479e-02  1.1458306752664037e-02  1.6511098132766574e-02  4.7351098481310375e-02  7.1138230066203470e-02  7.0561387187238742e-02  5.1770952681378338e-02  2.8619246993005852e-02  9.3101395186046519e-04  2.0926473691144479e-02  8.5726942132695744e-03  2.5003310565111979e-02  3.0705540572038302e-02  1.2512041266066023e-02  1.2462571514133439e-02  4.7115366520680555e-03  8.2893130778244981e-03  6.5065118845055491e-03  2.8935578818934655e-03  3.3591635516314541e-03  6.9089363366733395e-03  1.0233435574723308e-03  5.9996651917354329e-06  2.2320272349766260e-03  9.2489868737476676e-04  7.8728648240504126e-04  3.7364715882593012e-04  2.0501243277028328e-04  6.8453932448151106e-04  2.6853998910514210e-05  3.5569660331471717e-05  9.8876143301916225e-05  2.5411802196329323e-04  1.9771056825934309e-04  1.0515586237865745e-04  6.1255083289493987e-04  4.4521797642527937e-04  1.6110396239907309e-04  8.2917969108579822e-05  4.5644303093280672e-04  1.4027778870542027e-03  1.6993155071698400e-03  4.6285134236434273e-04  4.7452855307235370e-04  7.8241787472542240e-04  7.6333308056034175e-04  5.9752186202920697e-04  2.1621666261390003e-04  2.1235440341806525e-04  7.2196448157695557e-04  9.2992964728262205e-04  7.2381029374859833e-04  4.6912680580524468e-04  3.1055690110368990e-04  3.8568616283856901e-04  2.1393417905067889e-04  6.3453407680623937e-05  2.4204764726965153e-06  3.2508924830099270e-05  6.8263495116199376e-05  5.5181567859004325e-05  4.0098937169583360e-05  2.1038107180049647e-05  6.9177878499433350e-06  3.1337103801437691e-06  1.0087259880431794e-05  2.7997770436582500e-22  -9.5190258546363494e-19  2.5562864469621830e-03  6.4352564733826242e-03  2.1694578182272898e-03  8.6420324854130683e-03  2.6445509849989019e-02  5.7143293125571084e-03  1.9973230432504662e-02  4.0703060483038506e-03  1.4679758828784337e-02  3.6874581829791898e-02  2.6376516843439144e-02  1.1588299029543413e-02  4.6144553572409472e-02  4.9889537850723316e-02  2.8696608504156500e-02  1.3813290801836315e-02  5.5177826109305099e-02  2.0153021497352704e-02  1.1453284346076233e-02  9.0883992648161174e-03  2.9230439811542466e-02  3.5867114626917947e-02  3.9088078775795967e-02  1.9815267138303748e-02  7.6147650232204222e-04  2.2197012694069738e-02  3.0871165776727987e-02  5.0793608858817611e-02  2.4244798715101674e-02  4.3933680278381501e-02  5.5156375991475728e-02  1.4157208114108913e-02  3.8562428824137740e-02  2.6935518221359270e-02  2.5182808933629643e-02  1.5978198293213907e-02  5.2250847327667375e-02  8.2993024841405874e-02  8.9186222450386168e-02  1.0396874490866934e-01  5.3016317635432388e-02  9.8370663187151760e-03  2.3046316919998213e-03  2.7282114481903638e-02  2.2752885587085624e-02  8.2232209485730810e-03  6.4703875378641484e-03  1.5439350072674426e-02  1.2156714272558751e-02  1.5521541915456518e-02  5.4532651476578266e-03  4.4882451792253196e-03  3.0622076045017186e-03  1.3931282344503002e-02  2.8184712453039576e-03  1.0116497594168184e-03  2.0021877189151452e-03  1.7023856415833058e-03  1.2147593925641220e-03  1.3239834360782357e-03  1.0773816348930965e-03  1.3321315643434501e-03  3.1649465639982762e-04  1.2210061106173128e-04  1.3582920444973133e-04  2.1459054779778146e-04  4.8361461994675051e-04  5.0111148266812566e-05  5.1700113711960181e-04  1.0538595099284678e-03  9.0354914573617532e-05  1.7341691270782470e-04  5.8641988040080629e-06  1.4586943544172843e-03  2.4397360762562241e-03  1.4767222086376729e-03  5.6985986785779608e-04  1.0148832828999149e-03  9.4670768717539707e-04  9.0674319354536550e-04  5.3968687245489256e-04  1.6054638014953470e-04  7.1359683278377146e-04  1.3850750267510746e-03  1.0827176438893893e-03  8.0843014131665050e-04  3.8266351445540405e-04  5.3707843173226937e-04  4.5556730903612903e-04  1.3633322664367663e-04  3.9191551905267122e-06  1.5122014332066465e-05  7.3819110662299493e-05  9.3556284833113486e-05  6.5314135134881128e-05  4.8678721495981460e-05  2.4398761375791721e-05  8.5454808397687927e-06  6.7253688881003012e-06  1.1748305706622942e-21  4.8148248609680896e-34  1.9492812527949620e-02  7.5118795080064268e-03  3.8043801510008218e-02  2.0284988309302615e-02  2.2440733205105560e-04  1.1384741101634907e-04  3.7845954361887321e-04  2.8806879599863754e-03  4.1838642012765652e-02  6.9210137175820280e-02  4.3140624820506041e-02  4.3669926861838529e-02  3.1390841087693404e-02  1.6471448688761887e-02  3.2879184492042253e-02  8.9388183435121296e-02  1.0234689607708394e-02  5.8433046463086686e-03  3.7957262675272448e-02  6.9351359324570969e-02  6.4836771288893646e-02  9.6932688863054187e-02  9.9172873224983749e-02  6.6859202317032129e-02  3.0610514464399489e-02  5.0800165603537679e-02  5.6386816257326909e-02  2.8146614204063225e-02  2.9110706208374588e-02  3.7156155933902237e-02  3.5516578440087682e-02  1.0899286137082537e-01  8.1847763819168695e-02  1.2295704141000311e-03  3.8950628107986822e-02  1.3498798346794457e-02  4.4057756941435468e-02  8.8017467394238894e-02  1.1523213961677338e-01  9.4894722797036771e-02  7.5257041074380387e-02  4.0933816606961153e-02  2.0947638597423782e-02  3.0442377068536301e-02  5.0203421265021661e-03  6.4338860255135202e-02  8.2088250329076129e-02  4.4550610664483840e-02  3.7033467644898503e-02  2.3040648752397572e-02  2.5282508617341302e-02  1.9559284595935717e-02  1.4260017346378431e-03  7.4725690019974405e-03  1.4907479696127995e-02  3.7073296551344893e-03  1.7673916898642392e-03  5.6673617309094424e-03  2.2269983682107293e-03  1.5077325201734802e-03  4.8716192438701334e-04  6.4907282631806624e-05  1.5625867688410257e-03  3.4148703649968074e-04  1.4499235349972459e-04  1.9857708132069491e-04  4.5013947894364240e-04  3.9092307970126344e-04  3.0583061931975351e-05  1.1952138175358262e-03  7.6584421270820100e-04  7.3072298720144944e-04  2.4201634420293073e-04  7.1008971139366079e-04  2.5339239098089625e-03  2.6644325216791751e-03  9.4696395640933090e-05  1.3709526012868425e-03  1.1082537512386715e-03  8.4213527845682632e-04  7.7701211230393763e-04  2.1889592601815512e-04  3.7429039224639324e-04  1.4036787623105281e-03  1.5927868358004912e-03  9.1821879615438271e-04  5.8829841677662310e-04  3.6877350989235222e-04  7.1007223457635992e-04  3.1105011566528356e-04  1.7310694756757474e-05  1.9860855675627748e-05  2.5117947065664285e-05  1.0321775859039921e-04  8.1158690323909172e-05  6.0571801647991817e-05  3.8998636907648585e-05  2.2000408609326001e-05  1.1259714106847933e-05  -1.5625992315149141e-21  -3.9151713658421479e-19  8.4658105526695393e-03  9.6282052708957788e-03  1.6941140804271282e-02  4.7250387407519486e-05  3.2844723236215402e-03  2.6449095788349780e-02  2.9689006163681596e-02  3.0262891372285904e-02  1.5119058011637000e-02  4.1171357646563236e-03  2.2546175003314319e-02  3.8253245655767536e-02  5.0516196354510864e-02  4.7304188378775917e-02  1.0060942722747405e-01  4.3195441693342482e-04  4.5303663830274597e-03  7.2177103453754984e-02  4.7022075832685375e-02  3.8441563106035401e-02  4.2840975167343733e-02  5.2751710787316969e-03  1.7599825387748669e-02  2.2128727981809045e-02  1.6414167886714046e-02  6.6307580365596317e-03  5.6132649379535757e-02  7.1853050492642553e-02  8.2513261612478947e-02  3.7764640534787355e-02  6.3506005514643415e-02  7.7515300996347555e-02  4.4918081631659869e-02  9.5347674945739966e-02  2.0131233878288794e-02  2.5884233835025017e-02  2.7399600940060505e-02  7.1872156974615256e-02  1.0645371027546670e-01  1.1379161606325983e-01  1.2170393814395918e-01  4.2117124910472099e-02  2.4300726778564308e-02  1.7610503366370764e-03  3.9467256630744733e-02  3.9926062619249310e-02  1.3197405884745845e-02  4.2258115965252051e-02  1.3614181708772940e-03  9.3741504363553663e-03  1.3777547548212114e-02  1.1262718741923917e-03  1.2437924098827822e-02  2.7115115692213721e-03  2.2653392294726595e-02  3.7245045313411599e-03  6.0185172505516889e-03  1.5483655778510514e-03  4.3138587450596471e-03  3.0631098406895289e-03  2.6977787990262948e-03  1.9342608646164428e-03  1.9487188846973023e-03  5.4053443315041274e-04  4.6717431727592526e-04  2.0125003102117609e-04  2.8214024305047689e-04  6.9348527097238004e-04  1.3044406358649365e-07  5.4511720976393064e-04  1.6031366750681793e-03  2.5341896732769591e-04  5.7735281980889573e-04  3.3205888604434205e-04  1.8546926581771131e-03  3.2871326275198164e-03  1.6851992542538472e-03  1.6426150966229742e-03  1.6089370260673199e-03  9.1421067882589073e-04  7.8953577458694131e-04  4.8465651446272104e-04  1.2810217732345401e-05  9.3895576809319874e-04  1.9346406934477296e-03  1.3164365246656827e-03  7.6421951783969475e-04  2.7564673699230030e-04  5.9295919051968477e-04  6.4996203644845593e-04  1.0832172590112146e-04  5.6119749532937367e-05  7.5664847539872114e-06  6.1037034951947619e-05  1.0383967802735722e-04  6.3505520744333867e-05  5.0730467377862937e-05  2.5504986196344405e-05  1.2309940022036240e-05  -5.7931491328345445e-22  -1.2314915018773197e-18  3.7665122922501376e-02  3.3312459637676435e-02  4.1629699889743832e-03  4.3023879919920044e-02  4.2064377372838010e-02  4.8083412122678420e-03  1.4976053498664314e-02  9.3256013246726492e-03  2.2170196996423679e-02  4.0259256811077268e-02  8.1571186561731263e-02  7.8868177457935854e-02  2.0966527428854857e-02  3.4425472633731725e-02  1.5535578090169226e-02  6.7597146437551863e-03  1.0830556838505226e-01  3.7831765475363745e-02  2.7443290546284155e-02  2.0782826967375431e-02  6.9184879918201991e-02  7.0746614166356955e-02  1.1676520192912131e-01  1.3571802123569360e-01  1.0393902342896803e-01  4.8899004581558901e-02  5.1029939490476121e-02  5.4461015612141631e-02  1.8930785544791509e-02  6.2428813812904410e-02  6.5988162091314320e-02  5.9864841104916681e-02  1.5785129710158835e-01  8.8650221986549566e-02  2.1945707688104433e-02  4.8910803843841541e-02  1.5785785902738003e-02  6.4531220873530817e-02  1.0970489022989401e-01  1.2910498262438722e-01  9.9809978536614219e-02  9.1908786287934474e-02  3.4855019589690790e-02  5.0312290173467035e-02  3.0773438924030009e-02  4.4733482336001308e-03  9.0319376188952263e-02  9.8246608447539560e-02  4.8631766251279379e-02  4.6506189896128092e-02  3.6871647419818736e-02  3.6211739231372012e-02  2.6726291323078345e-02  2.9079409212991072e-03  8.0160911595844545e-03  2.3129815248403390e-02  7.2494094427458904e-03  5.0493501660594875e-03  6.9440413791391946e-03  1.7623378181601018e-03  7.5318759796306936e-04  1.7787048935297896e-04  5.7878493313206212e-04  2.2789914026729824e-03  5.3793136797687018e-04  2.7886854809224139e-04  2.5198305335596402e-04  5.2823685615291664e-04  5.6611801868040261e-04  1.3133609147934893e-04  1.4267566334915153e-03  1.1445409100673575e-03  1.1433965431052551e-03  2.1149384411437612e-04  4.6123311130114296e-04  3.0499044504406804e-03  3.2731345796777928e-03  4.1004291898391241e-04  2.3252166788139731e-03  1.3777631193157122e-03  6.8886085320523890e-04  6.9805069419440517e-04  8.1939637239300542e-05  2.3753117463971789e-04  1.6981248507931042e-03  1.9641213912737713e-03  9.2551349759154304e-04  4.9636227637060812e-04  2.3576319762652891e-04  8.1381530438381098e-04  3.9404555714573459e-04  5.1630818988912202e-05  5.9859725945121098e-05  1.0727813375901658e-05  1.0111986685019528e-04  8.2617726828571869e-05  5.5014462982434019e-05  3.6948933570108988e-05  1.6689466351390982e-05  -9.2645149060105450e-22  -1.4508284335090990e-19  2.3758734292425848e-02  4.6313192990594240e-03  7.4282252206160091e-03  3.4704036940815891e-02  2.0276969924844641e-02  2.8327775145388394e-03  1.8724595839781793e-02  3.6195256517773652e-02  2.7888351481044474e-02  1.2611451785798736e-02  1.6056393481461016e-02  9.0474932780064878e-03  7.5185519258907808e-03  7.0897632470703381e-02  2.2447307439015910e-02  1.0577506992564409e-01  1.9559401878513745e-02  2.1809996219453263e-02  5.5970508114256856e-02  4.4952605605792326e-02  4.2701711523276925e-02  6.6156047377665506e-02  1.8672968687894902e-02  1.2599629805098435e-02  2.1920131794790389e-02  1.2274494002559679e-02  1.4182487069866492e-02  7.4265349004183370e-02  9.8979033891800586e-02  9.1868955808081756e-02  2.4470210339704403e-02  8.1019886548660783e-02  7.4910888183079033e-02  7.9355263581888991e-02  1.3387478424567495e-01  1.3964385314093032e-02  2.9225850522930402e-02  2.6490200139789470e-02  8.6836686969121904e-02  1.2717687517788709e-01  1.3213914247856864e-01  1.2216919482450229e-01  3.8077864694866646e-02  2.7763093972679780e-02  1.7166268402262465e-02  4.7618185652035017e-02  4.9621554245811279e-02  3.7898663501227836e-02  7.5527124381078836e-02  2.2246529517232130e-02  3.8561255622965983e-03  1.7316711471205494e-03  9.7714994140858605e-03  2.2649288056879057e-02  1.3182450405391716e-03  2.6530898371962708e-02  7.7974705344943315e-03  1.1241085355373572e-02  1.1309635500001292e-04  6.4336070997375854e-03  4.0283858156287891e-03  3.0176686289706957e-03  2.1011333964084502e-03  1.8666582408462739e-03  9.0228583492981318e-04  7.9430194747426308e-04  2.1024932378578554e-04  3.4287018109815736e-04  7.9178805037078369e-04  7.6414631071857793e-05  4.3881912962881079e-04  1.9823828380243894e-03  1.3520658778450913e-04  9.9453117775380245e-04  5.8273784070652268e-04  1.8729759254403481e-03  3.8973596226834022e-03  1.9799280228252275e-03  2.3832974672504731e-03  2.2818145697763564e-03  9.2167474259327619e-04  5.8143022194845882e-04  4.1448392020546125e-04  1.8896118300548484e-04  9.8881749746753430e-04  2.2870679681952708e-03  1.5191616700794288e-03  6.5637633389946392e-04  1.6753046080463774e-04  5.2259774404880225e-04  7.7843401162007800e-04  1.1374159076765766e-04  1.2816387260475016e-04  2.3241779235722148e-05  5.0103361248528288e-05  1.0872694119520019e-04  6.3620269597924271e-05  4.7432242612397846e-05  2.1838698610919622e-05  -1.2122913012846188e-21  -5.0067555609122318e-19  2.6135801570120530e-03  1.5189177177691943e-02  8.2886087713501914e-03  2.7009006698230312e-02  2.8128884730498734e-02  4.7074268630388098e-02  2.5559980926754540e-03  2.9705664145144112e-02  2.0853430149583116e-02  3.2175916239330228e-02  3.0589137062738032e-02  6.8947519583347786e-02  6.7297136115080675e-02  1.1002121409583107e-02  7.9569916307642517e-03  2.1946100110806319e-02  2.5307571690546350e-02  9.3797091665191429e-02  3.1386598649733290e-02  2.8125928228001845e-02  4.6468683730031954e-03  5.2571190652505380e-02  4.6457755238111992e-02  9.8383799896598859e-02  1.2063791148346747e-01  9.1624923832816133e-02  4.3574541311366594e-02  4.1333442266737498e-02  3.4657356790882304e-02  1.8568443878554408e-03  8.3543701094982728e-02  8.4665712686981281e-02  7.2272035647751517e-02  1.8170303974677998e-01  6.7668443134363293e-02  6.4938327642013793e-02  5.0010316043567288e-02  1.5506953695145258e-02  7.8325236335751891e-02  1.2667266724697074e-01  1.4028690138929198e-01  1.1267988724377614e-01  1.0145006524132753e-01  2.2020833826659477e-02  6.7737916069022117e-02  3.4893115159258123e-02  4.3880620532580489e-03  1.0325354066685982e-01  8.6987671839802952e-02  2.1759725087988235e-02  3.1558004096050842e-02  3.1975479745823474e-02  3.3191297372747036e-02  2.2818998077595326e-02  9.7843600164314055e-03  9.7895397767499039e-03  2.9320288318395542e-02  7.1967565858335504e-03  9.6482657235449701e-03  6.6426308251741895e-03  2.1419906819883015e-05  4.8011871542930887e-04  8.8509930427620707e-04  1.0645021615598878e-03  2.5583521240927967e-03  5.4941309778336149e-04  5.2004141288084990e-04  2.6234220773226958e-04  6.1092381659736436e-04  6.9151416854493317e-04  1.4546321340666482e-04  1.4626923944338554e-03  1.5258077318035265e-03  1.2453181523117856e-03  4.7230553047943718e-05  1.3616463137799682e-04  3.3257001742835689e-03  3.8363526707139496e-03  4.2518420251230044e-04  3.2471765595864441e-03  1.7947906236237057e-03  5.7083593868825853e-04  5.0437443774700198e-04  2.7762139292375868e-05  7.2861777882318637e-05  1.9106381766899935e-03  2.2941957284781139e-03  1.0166657943688202e-03  3.6127739322469886e-04  1.3711722949910521e-04  8.0707282133969974e-04  5.0784397695543496e-04  8.4619859809112442e-05  1.1193446697039382e-04  1.1047173170520952e-05  9.1826826989307680e-05  8.4806005098460907e-05  5.1851173702450978e-05  3.1327387928710775e-05  -4.3475484224773706e-21  -2.2475557050074207e-19  9.4305022637330860e-03  9.1733495665000785e-03  9.7413141482031885e-03  1.3030715692680758e-02  1.6764983802897690e-02  3.8491925819479723e-02  6.5826247980722823e-03  8.3636905244302232e-03  2.8842289014014012e-02  2.6054362286427674e-02  5.6521111790481570e-03  6.1828767963326607e-03  1.3488802836959022e-02  1.7966042314747861e-02  5.8552756527259289e-02  1.4644787375351097e-0