<?xml version="1.0"?>
<VTKFile type="UnstructuredGrid"  version="0.1"  >
<UnstructuredGrid>
<Piece  NumberOfPoints="2601" NumberOfCells="5000">
<Points>
<DataArray  type="Float64"  NumberOfComponents="3"  format="ascii">0 0 0  0.02 0 0  0.04 0 0  0.06 0 0  0.08 0 0  0.1 0 0  0.12 0 0  0.14 0 0  0.16 0 0  0.18 0 0  0.2 0 0  0.22 0 0  0.24 0 0  0.26 0 0  0.28 0 0  0.3 0 0  0.32 0 0  0.34 0 0  0.36 0 0  0.38 0 0  0.4 0 0  0.42 0 0  0.44 0 0  0.46 0 0  0.48 0 0  0.5 0 0  0.52 0 0  0.54 0 0  0.5600000000000001 0 0  0.58 0 0  0.6 0 0  0.62 0 0  0.64 0 0  0.66 0 0  0.68 0 0  0.7 0 0  0.72 0 0  0.74 0 0  0.76 0 0  0.78 0 0  0.8 0 0  0.82 0 0  0.84 0 0  0.86 0 0  0.88 0 0  0.9 0 0  0.92 0 0  0.9399999999999999 0 0  0.96 0 0  0.98 0 0  1 0 0  0 0.02 0  0.02 0.02 0  0.04 0.02 0  0.06 0.02 0  0.08 0.02 0  0.1 0.02 0  0.12 0.02 0  0.14 0.02 0  0.16 0.02 0  0.18 0.02 0  0.2 0.02 0  0.22 0.02 0  0.24 0.02 0  0.26 0.02 0  0.28 0.02 0  0.3 0.02 0  0.32 0.02 0  0.34 0.02 0  0.36 0.02 0  0.38 0.02 0  0.4 0.02 0  0.42 0.02 0  0.44 0.02 0  0.46 0.02 0  0.48 0.02 0  0.5 0.02 0  0.52 0.02 0  0.54 0.02 0  0.5600000000000001 0.02 0  0.58 0.02 0  0.6 0.02 0  0.62 0.02 0  0.64 0.02 0  0.66 0.02 0  0.68 0.02 0  0.7 0.02 0  0.72 0.02 0  0.74 0.02 0  0.76 0.02 0  0.78 0.02 0  0.8 0.02 0  0.82 0.02 0  0.84 0.02 0  0.86 0.02 0  0.88 0.02 0  0.9 0.02 0  0.92 0.02 0  0.9399999999999999 0.02 0  0.96 0.02 0  0.98 0.02 0  1 0.02 0  0 0.04 0  0.02 0.04 0  0.04 0.04 0  0.06 0.04 0  0.08 0.04 0  0.1 0.04 0  0.12 0.04 0  0.14 0.04 0  0.16 0.04 0  0.18 0.04 0  0.2 0.04 0  0.22 0.04 0  0.24 0.04 0  0.26 0.04 0  0.28 0.04 0  0.3 0.04 0  0.32 0.04 0  0.34 0.04 0  0.36 0.04 0  0.38 0.04 0  0.4 0.04 0  0.42 0.04 0  0.44 0.04 0  0.46 0.04 0  0.48 0.04 0  0.5 0.04 0  0.52 0.04 0  0.54 0.04 0  0.5600000000000001 0.04 0  0.58 0.04 0  0.6 0.04 0  0.62 0.04 0  0.64 0.04 0  0.66 0.04 0  0.68 0.04 0  0.7 0.04 0  0.72 0.04 0  0.74 0.04 0  0.76 0.04 0  0.78 0.04 0  0.8 0.04 0  0.82 0.04 0  0.84 0.04 0  0.86 0.04 0  0.88 0.04 0  0.9 0.04 0  0.92 0.04 0  0.9399999999999999 0.04 0  0.96 0.04 0  0.98 0.04 0  1 0.04 0  0 0.06 0  0.02 0.06 0  0.04 0.06 0  0.06 0.06 0  0.08 0.06 0  0.1 0.06 0  0.12 0.06 0  0.14 0.06 0  0.16 0.06 0  0.18 0.06 0  0.2 0.06 0  0.22 0.06 0  0.24 0.06 0  0.26 0.06 0  0.28 0.06 0  0.3 0.06 0  0.32 0.06 0  0.34 0.06 0  0.36 0.06 0  0.38 0.06 0  0.4 0.06 0  0.42 0.06 0  0.44 0.06 0  0.46 0.06 0  0.48 0.06 0  0.5 0.06 0  0.52 0.06 0  0.54 0.06 0  0.5600000000000001 0.06 0  0.58 0.06 0  0.6 0.06 0  0.62 0.06 0  0.64 0.06 0  0.66 0.06 0  0.68 0.06 0  0.7 0.06 0  0.72 0.06 0  0.74 0.06 0  0.76 0.06 0  0.78 0.06 0  0.8 0.06 0  0.82 0.06 0  0.84 0.06 0  0.86 0.06 0  0.88 0.06 0  0.9 0.06 0  0.92 0.06 0  0.9399999999999999 0.06 0  0.96 0.06 0  0.98 0.06 0  1 0.06 0  0 0.08 0  0.02 0.08 0  0.04 0.08 0  0.06 0.08 0  0.08 0.08 0  0.1 0.08 0  0.12 0.08 0  0.14 0.08 0  0.16 0.08 0  0.18 0.08 0  0.2 0.08 0  0.22 0.08 0  0.24 0.08 0  0.26 0.08 0  0.28 0.08 0  0.3 0.08 0  0.32 0.08 0  0.34 0.08 0  0.36 0.08 0  0.38 0.08 0  0.4 0.08 0  0.42 0.08 0  0.44 0.08 0  0.46 0.08 0  0.48 0.08 0  0.5 0.08 0  0.52 0.08 0  0.54 0.08 0  0.5600000000000001 0.08 0  0.58 0.08 0  0.6 0.08 0  0.62 0.08 0  0.64 0.08 0  0.66 0.08 0  0.68 0.08 0  0.7 0.08 0  0.72 0.08 0  0.74 0.08 0  0.76 0.08 0  0.78 0.08 0  0.8 0.08 0  0.82 0.08 0  0.84 0.08 0  0.86 0.08 0  0.88 0.08 0  0.9 0.08 0  0.92 0.08 0  0.9399999999999999 0.08 0  0.96 0.08 0  0.98 0.08 0  1 0.08 0  0 0.1 0  0.02 0.1 0  0.04 0.1 0  0.06 0.1 0  0.08 0.1 0  0.1 0.1 0  0.12 0.1 0  0.14 0.1 0  0.16 0.1 0  0.18 0.1 0  0.2 0.1 0  0.22 0.1 0  0.24 0.1 0  0.26 0.1 0  0.28 0.1 0  0.3 0.1 0  0.32 0.1 0  0.34 0.1 0  0.36 0.1 0  0.38 0.1 0  0.4 0.1 0  0.42 0.1 0  0.44 0.1 0  0.46 0.1 0  0.48 0.1 0  0.5 0.1 0  0.52 0.1 0  0.54 0.1 0  0.5600000000000001 0.1 0  0.58 0.1 0  0.6 0.1 0  0.62 0.1 0  0.64 0.1 0  0.66 0.1 0  0.68 0.1 0  0.7 0.1 0  0.72 0.1 0  0.74 0.1 0  0.76 0.1 0  0.78 0.1 0  0.8 0.1 0  0.82 0.1 0  0.84 0.1 0  0.86 0.1 0  0.88 0.1 0  0.9 0.1 0  0.92 0.1 0  0.9399999999999999 0.1 0  0.96 0.1 0  0.98 0.1 0  1 0.1 0  0 0.12 0  0.02 0.12 0  0.04 0.12 0  0.06 0.12 0  0.08 0.12 0  0.1 0.12 0  0.12 0.12 0  0.14 0.12 0  0.16 0.12 0  0.18 0.12 0  0.2 0.12 0  0.22 0.12 0  0.24 0.12 0  0.26 0.12 0  0.28 0.12 0  0.3 0.12 0  0.32 0.12 0  0.34 0.12 0  0.36 0.12 0  0.38 0.12 0  0.4 0.12 0  0.42 0.12 0  0.44 0.12 0  0.46 0.12 0  0.48 0.12 0  0.5 0.12 0  0.52 0.12 0  0.54 0.12 0  0.5600000000000001 0.12 0  0.58 0.12 0  0.6 0.12 0  0.62 0.12 0  0.64 0.12 0  0.66 0.12 0  0.68 0.12 0  0.7 0.12 0  0.72 0.12 0  0.74 0.12 0  0.76 0.12 0  0.78 0.12 0  0.8 0.12 0  0.82 0.12 0  0.84 0.12 0  0.86 0.12 0  0.88 0.12 0  0.9 0.12 0  0.92 0.12 0  0.9399999999999999 0.12 0  0.96 0.12 0  0.98 0.12 0  1 0.12 0  0 0.14 0  0.02 0.14 0  0.04 0.14 0  0.06 0.14 0  0.08 0.14 0  0.1 0.14 0  0.12 0.14 0  0.14 0.14 0  0.16 0.14 0  0.18 0.14 0  0.2 0.14 0  0.22 0.14 0  0.24 0.14 0  0.26 0.14 0  0.28 0.14 0  0.3 0.14 0  0.32 0.14 0  0.34 0.14 0  0.36 0.14 0  0.38 0.14 0  0.4 0.14 0  0.42 0.14 0  0.44 0.14 0  0.46 0.14 0  0.48 0.14 0  0.5 0.14 0  0.52 0.14 0  0.54 0.14 0  0.5600000000000001 0.14 0  0.58 0.14 0  0.6 0.14 0  0.62 0.14 0  0.64 0.14 0  0.66 0.14 0  0.68 0.14 0  0.7 0.14 0  0.72 0.14 0  0.74 0.14 0  0.76 0.14 0  0.78 0.14 0  0.8 0.14 0  0.82 0.14 0  0.84 0.14 0  0.86 0.14 0  0.88 0.14 0  0.9 0.14 0  0.92 0.14 0  0.9399999999999999 0.14 0  0.96 0.14 0  0.98 0.14 0  1 0.14 0  0 0.16 0  0.02 0.16 0  0.04 0.16 0  0.06 0.16 0  0.08 0.16 0  0.1 0.16 0  0.12 0.16 0  0.14 0.16 0  0.16 0.16 0  0.18 0.16 0  0.2 0.16 0  0.22 0.16 0  0.24 0.16 0  0.26 0.16 0  0.28 0.16 0  0.3 0.16 0  0.32 0.16 0  0.34 0.16 0  0.36 0.16 0  0.38 0.16 0  0.4 0.16 0  0.42 0.16 0  0.44 0.16 0  0.46 0.16 0  0.48 0.16 0  0.5 0.16 0  0.52 0.16 0  0.54 0.16 0  0.5600000000000001 0.16 0  0.58 0.16 0  0.6 0.16 0  0.62 0.16 0  0.64 0.16 0  0.66 0.16 0  0.68 0.16 0  0.7 0.16 0  0.72 0.16 0  0.74 0.16 0  0.76 0.16 0  0.78 0.16 0  0.8 0.16 0  0.82 0.16 0  0.84 0.16 0  0.86 0.16 0  0.88 0.16 0  0.9 0.16 0  0.92 0.16 0  0.9399999999999999 0.16 0  0.96 0.16 0  0.98 0.16 0  1 0.16 0  0 0.18 0  0.02 0.18 0  0.04 0.18 0  0.06 0.18 0  0.08 0.18 0  0.1 0.18 0  0.12 0.18 0  0.14 0.18 0  0.16 0.18 0  0.18 0.18 0  0.2 0.18 0  0.22 0.18 0  0.24 0.18 0  0.26 0.18 0  0.28 0.18 0  0.3 0.18 0  0.32 0.18 0  0.34 0.18 0  0.36 0.18 0  0.38 0.18 0  0.4 0.18 0  0.42 0.18 0  0.44 0.18 0  0.46 0.18 0  0.48 0.18 0  0.5 0.18 0  0.52 0.18 0  0.54 0.18 0  0.5600000000000001 0.18 0  0.58 0.18 0  0.6 0.18 0  0.62 0.18 0  0.64 0.18 0  0.66 0.18 0  0.68 0.18 0  0.7 0.18 0  0.72 0.18 0  0.74 0.18 0  0.76 0.18 0  0.78 0.18 0  0.8 0.18 0  0.82 0.18 0  0.84 0.18 0  0.86 0.18 0  0.88 0.18 0  0.9 0.18 0  0.92 0.18 0  0.9399999999999999 0.18 0  0.96 0.18 0  0.98 0.18 0  1 0.18 0  0 0.2 0  0.02 0.2 0  0.04 0.2 0  0.06 0.2 0  0.08 0.2 0  0.1 0.2 0  0.12 0.2 0  0.14 0.2 0  0.16 0.2 0  0.18 0.2 0  0.2 0.2 0  0.22 0.2 0  0.24 0.2 0  0.26 0.2 0  0.28 0.2 0  0.3 0.2 0  0.32 0.2 0  0.34 0.2 0  0.36 0.2 0  0.38 0.2 0  0.4 0.2 0  0.42 0.2 0  0.44 0.2 0  0.46 0.2 0  0.48 0.2 0  0.5 0.2 0  0.52 0.2 0  0.54 0.2 0  0.5600000000000001 0.2 0  0.58 0.2 0  0.6 0.2 0  0.62 0.2 0  0.64 0.2 0  0.66 0.2 0  0.68 0.2 0  0.7 0.2 0  0.72 0.2 0  0.74 0.2 0  0.76 0.2 0  0.78 0.2 0  0.8 0.2 0  0.82 0.2 0  0.84 0.2 0  0.86 0.2 0  0.88 0.2 0  0.9 0.2 0  0.92 0.2 0  0.9399999999999999 0.2 0  0.96 0.2 0  0.98 0.2 0  1 0.2 0  0 0.22 0  0.02 0.22 0  0.04 0.22 0  0.06 0.22 0  0.08 0.22 0  0.1 0.22 0  0.12 0.22 0  0.14 0.22 0  0.16 0.22 0  0.18 0.22 0  0.2 0.22 0  0.22 0.22 0  0.24 0.22 0  0.26 0.22 0  0.28 0.22 0  0.3 0.22 0  0.32 0.22 0  0.34 0.22 0  0.36 0.22 0  0.38 0.22 0  0.4 0.22 0  0.42 0.22 0  0.44 0.22 0  0.46 0.22 0  0.48 0.22 0  0.5 0.22 0  0.52 0.22 0  0.54 0.22 0  0.5600000000000001 0.22 0  0.58 0.22 0  0.6 0.22 0  0.62 0.22 0  0.64 0.22 0  0.66 0.22 0  0.68 0.22 0  0.7 0.22 0  0.72 0.22 0  0.74 0.22 0  0.76 0.22 0  0.78 0.22 0  0.8 0.22 0  0.82 0.22 0  0.84 0.22 0  0.86 0.22 0  0.88 0.22 0  0.9 0.22 0  0.92 0.22 0  0.9399999999999999 0.22 0  0.96 0.22 0  0.98 0.22 0  1 0.22 0  0 0.24 0  0.02 0.24 0  0.04 0.24 0  0.06 0.24 0  0.08 0.24 0  0.1 0.24 0  0.12 0.24 0  0.14 0.24 0  0.16 0.24 0  0.18 0.24 0  0.2 0.24 0  0.22 0.24 0  0.24 0.24 0  0.26 0.24 0  0.28 0.24 0  0.3 0.24 0  0.32 0.24 0  0.34 0.24 0  0.36 0.24 0  0.38 0.24 0  0.4 0.24 0  0.42 0.24 0  0.44 0.24 0  0.46 0.24 0  0.48 0.24 0  0.5 0.24 0  0.52 0.24 0  0.54 0.24 0  0.5600000000000001 0.24 0  0.58 0.24 0  0.6 0.24 0  0.62 0.24 0  0.64 0.24 0  0.66 0.24 0  0.68 0.24 0  0.7 0.24 0  0.72 0.24 0  0.74 0.24 0  0.76 0.24 0  0.78 0.24 0  0.8 0.24 0  0.82 0.24 0  0.84 0.24 0  0.86 0.24 0  0.88 0.24 0  0.9 0.24 0  0.92 0.24 0  0.9399999999999999 0.24 0  0.96 0.24 0  0.98 0.24 0  1 0.24 0  0 0.26 0  0.02 0.26 0  0.04 0.26 0  0.06 0.26 0  0.08 0.26 0  0.1 0.26 0  0.12 0.26 0  0.14 0.26 0  0.16 0.26 0  0.18 0.26 0  0.2 0.26 0  0.22 0.26 0  0.24 0.26 0  0.26 0.26 0  0.28 0.26 0  0.3 0.26 0  0.32 0.26 0  0.34 0.26 0  0.36 0.26 0  0.38 0.26 0  0.4 0.26 0  0.42 0.26 0  0.44 0.26 0  0.46 0.26 0  0.48 0.26 0  0.5 0.26 0  0.52 0.26 0  0.54 0.26 0  0.5600000000000001 0.26 0  0.58 0.26 0  0.6 0.26 0  0.62 0.26 0  0.64 0.26 0  0.66 0.26 0  0.68 0.26 0  0.7 0.26 0  0.72 0.26 0  0.74 0.26 0  0.76 0.26 0  0.78 0.26 0  0.8 0.26 0  0.82 0.26 0  0.84 0.26 0  0.86 0.26 0  0.88 0.26 0  0.9 0.26 0  0.92 0.26 0  0.9399999999999999 0.26 0  0.96 0.26 0  0.98 0.26 0  1 0.26 0  0 0.28 0  0.02 0.28 0  0.04 0.28 0  0.06 0.28 0  0.08 0.28 0  0.1 0.28 0  0.12 0.28 0  0.14 0.28 0  0.16 0.28 0  0.18 0.28 0  0.2 0.28 0  0.22 0.28 0  0.24 0.28 0  0.26 0.28 0  0.28 0.28 0  0.3 0.28 0  0.32 0.28 0  0.34 0.28 0  0.36 0.28 0  0.38 0.28 0  0.4 0.28 0  0.42 0.28 0  0.44 0.28 0  0.46 0.28 0  0.48 0.28 0  0.5 0.28 0  0.52 0.28 0  0.54 0.28 0  0.5600000000000001 0.28 0  0.58 0.28 0  0.6 0.28 0  0.62 0.28 0  0.64 0.28 0  0.66 0.28 0  0.68 0.28 0  0.7 0.28 0  0.72 0.28 0  0.74 0.28 0  0.76 0.28 0  0.78 0.28 0  0.8 0.28 0  0.82 0.28 0  0.84 0.28 0  0.86 0.28
[...]
<PointData  Scalars="u"> 
<DataArray  type="Float64"  Name="u"  format="ascii">0.0000000000000000e+00  0.0000000000000000e+00  0.0000000000000000e+00  0.0000000000000000e+00  0.0000000000000000e+00  0.0000000000000000e+00  0.0000000000000000e+00  0.0000000000000000e+00  0.0000000000000000e+00  0.0000000000000000e+00  0.0000000000000000e+00  0.0000000000000000e+00  0.0000000000000000e+00  0.0000000000000000e+00  0.0000000000000000e+00  0.0000000000000000e+00  0.0000000000000000e+00  0.0000000000000000e+00  0.0000000000000000e+00  0.0000000000000000e+00  0.0000000000000000e+00  0.0000000000000000e+00  0.0000000000000000e+00  0.0000000000000000e+00  0.0000000000000000e+00  0.0000000000000000e+00  0.0000000000000000e+00  0.0000000000000000e+00  0.0000000000000000e+00  0.0000000000000000e+00  0.0000000000000000e+00  0.0000000000000000e+00  0.0000000000000000e+00  0.0000000000000000e+00  0.0000000000000000e+00  0.0000000000000000e+00  0.0000000000000000e+00  0.0000000000000000e+00  0.0000000000000000e+00  0.0000000000000000e+00  0.0000000000000000e+00  0.0000000000000000e+00  0.0000000000000000e+00  0.0000000000000000e+00  0.0000000000000000e+00  0.0000000000000000e+00  0.0000000000000000e+00  0.0000000000000000e+00  0.0000000000000000e+00  0.0000000000000000e+00  0.0000000000000000e+00  0.0000000000000000e+00  1.7378013325276298e-06  3.5723434208040130e-06  5.5075860846834560e-06  7.5458944322832531e-06  9.6885733682959447e-06  1.1935599713317294e-05  1.4285269557721591e-05  1.6733762720767865e-05  1.9274700946143700e-05  2.1898635918000163e-05  2.4592511018917280e-05  2.7339283098048940e-05  3.0117102951922845e-05  3.2900021927364059e-05  3.5655465437896866e-05  3.8347842138526283e-05  4.0936362385014014e-05  4.3376037162410172e-05  4.5620252919623796e-05  4.7621375035504595e-05  4.9334132000154458e-05  5.0715174197129213e-05  5.1729485798005758e-05  5.2349155618641979e-05  5.2556993511862809e-05  5.2347144328006949e-05  5.1725605298265907e-05  5.0709777510122554e-05  4.9327276519638808e-05  4.7614109649315162e-05  4.5612448141312148e-05  4.3368235491880305e-05  4.0928860271787690e-05  3.8341078237180031e-05  3.5649307401501549e-05  3.2894355542290894e-05  3.0112583289394370e-05  2.7335463892894989e-05  2.4589474933850166e-05  2.1896246174659967e-05  1.9272888109450477e-05  1.6732433656069491e-05  1.4284337256761473e-05  1.1934988653410891e-05  9.6882109123290728e-06  7.5457227722337113e-06  5.5075530166543747e-06  3.5723935302234133e-06  1.7378192602483375e-06  0.0000000000000000e+00  0.0000000000000000e+00  3.5720293993842132e-06  7.3625507162897623e-06  1.1381199629840951e-05  1.5636468874107726e-05  2.0134898152106132e-05  2.4880479615274554e-05  2.9873850968082540e-05  3.5111305561032636e-05  4.0583656708856566e-05  4.6274806531427667e-05  5.2160642132936723e-05  5.8206928219051207e-05  6.4369083420342906e-05  7.0589783095942283e-05  7.6798343160337554e-05  8.2909216438404256e-05  8.8828471547524034e-05  9.4448630476149140e-05  9.9652281651661548e-05  1.0432044777993281e-04  1.0833663344639346e-04  1.1159154439981259e-04  1.1398857665408053e-04  1.1545737448648612e-04  1.1595090369252972e-04  1.1545378346521402e-04  1.1398186108749955e-04  1.1158139604264231e-04  1.0832537961530512e-04  1.0430818161824395e-04  9.9639102980012090e-05  9.4435597487733578e-05  8.8816869483818100e-05  8.2898374282848426e-05  7.6787534593513631e-05  7.0580777642251867e-05  6.4361828978837522e-05  5.8201086418312313e-05  5.2155841162095304e-05  4.6271102529847451e-05  4.0580803421881217e-05  3.5109201475689192e-05  2.9872334612251516e-05  2.4879431693780485e-05  2.0134215099143582e-05  1.5636060405659154e-05  1.1380998248256776e-05  7.3625498998143418e-06  3.5723417677108805e-06  0.0000000000000000e+00  0.0000000000000000e+00  5.5073247703137550e-06  1.1381432703398357e-05  1.7642381214412466e-05  2.4309997093865661e-05  3.1401324120662275e-05  3.8930305139609748e-05  4.6906181620335675e-05  5.5331946975910708e-05  6.4201631216066860e-05  7.3498922237680124e-05  8.3192687591343873e-05  9.3235860598772703e-05  1.0356039272370267e-04  1.1407238584082892e-04  1.2467126847484861e-04  1.3517949231180498e-04  1.4545083467839987e-04  1.5529141744191952e-04  1.6447263135739861e-04  1.7276964898116067e-04  1.7994675529521358e-04  1.8580981940629105e-04  1.9013292196430810e-04  1.9279404415400436e-04  1.9368895622602853e-04  1.9278712342336697e-04  1.9012154648857755e-04  1.8578707764936516e-04  1.7993233542723948e-04  1.7274759205955170e-04  1.6445018121486702e-04  1.5526973893511316e-04  1.4543476475634316e-04  1.3516163500746714e-04  1.2464662498607137e-04  1.1406098009497484e-04  1.0354870446380472e-04  9.3226526191040140e-05  8.3185431366696538e-05  7.3493193890682639e-05  6.4197421081097977e-05  5.5328750053847363e-05  4.6903942250474634e-05  3.8928719696780094e-05  3.1400261367025331e-05  2.4309331435255425e-05  1.7642045233588784e-05  1.1381290185335454e-05  5.5077566379530664e-06  0.0000000000000000e+00  0.0000000000000000e+00  7.5457037388522755e-06  1.5636632401672866e-05  2.4310321356663647e-05  3.3603003468005495e-05  4.3550577721206968e-05  5.4185260001619624e-05  6.5534457077801606e-05  7.7617244558930330e-05  9.0443205002276847e-05  1.0400423110931954e-04  1.1827407774311076e-04  1.3320065570550160e-04  1.4869498320576065e-04  1.6464763859819651e-04  1.8084874107141894e-04  1.9719860605168780e-04  2.1321179007525865e-04  2.2872925906810808e-04  2.4341370992829239e-04  2.5676457125451828e-04  2.6841376699709193e-04  2.7793406141586943e-04  2.8511805476991734e-04  2.8944971753769641e-04  2.9093713434779164e-04  2.8944719573846284e-04  2.8505651747690259e-04  2.7794124130010850e-04  2.6838096042331090e-04  2.5672681050003052e-04  2.4337317331628739e-04  2.2872819321148786e-04  2.1318817706689555e-04  1.9711806026165380e-04  1.8083858077504937e-04  1.6461975019552857e-04  1.4867951221522109e-04  1.3318619233134679e-04  1.1826336670195139e-04  1.0399598634478871e-04  9.0436875947070574e-05  7.7613008997138230e-05  6.5531201396579379e-05  5.4183048915934149e-05  4.3549060813670335e-05  3.3602021539034649e-05  2.4309655098837976e-05  1.5636674695873637e-05  7.5462172065734775e-06  0.0000000000000000e+00  0.0000000000000000e+00  9.6884444490855394e-06  2.0135214962658523e-05  3.1401704787793407e-05  4.3550885554840044e-05  5.6646420593287790e-05  7.0751303005720992e-05  8.5924064540399568e-05  1.0221732998142401e-04  1.1966983354091948e-04  1.3830294686406375e-04  1.5811790049056364e-04  1.7906021697827273e-04  2.0106699187450811e-04  2.2394396107313359e-04  2.4756248737942431e-04  2.7158939219853112e-04  2.9556706265358902e-04  3.1887525900686195e-04  3.4118017865886240e-04  3.6186954391698563e-04  3.8003317775738791e-04  3.9499870623215856e-04  4.0628649144934070e-04  4.1334693257250797e-04  4.1562859781927393e-04  4.1326984835099022e-04  4.0627535186419896e-04  3.9501972725668676e-04  3.7999504280473816e-04  3.6183188975325551e-04  3.4122387530525393e-04  3.1886899162530328e-04  2.9542428041937600e-04  2.7147364705998702e-04  2.4750990941645867e-04  2.2392905010597613e-04  2.0103354027738526e-04  1.7904147980065809e-04  1.5809874142419717e-04  1.3829200258188925e-04  1.1966126123150152e-04  1.0221103348764061e-04  8.5919876698088070e-05  7.0748177685174714e-05  5.6644320507652030e-05  4.3549434859470467e-05  3.1400953986345951e-05  2.0135193288145007e-05  9.6890364010717760e-06  0.0000000000000000e+00  0.0000000000000000e+00  1.1935538054663253e-05  2.4880937024881385e-05  3.8930764771270551e-05  5.4185821961805644e-05  7.0751525554075642e-05  8.8737413925161400e-05  1.0825463465818372e-04  1.2940902920264094e-04  1.5229470602742649e-04  1.7701519348839852e-04  2.0356855398429792e-04  2.3204436960137242e-04  2.6230123969562174e-04  2.9427842225350829e-04  3.2763792818583037e-04  3.6166956313176118e-04  3.9859730169465254e-04  4.3133504817623983e-04  4.6441549470218859e-04  4.9681505669676280e-04  5.2471261967987533e-04  5.4798345875118368e-04  5.6476562186735650e-04  5.7800312259704862e-04  5.8027321010787215e-04  5.7685710746619454e-04  5.6583633650686589e-04  5.4811424015715647e-04  5.2465895131505213e-04  4.9663344535751412e-04  4.6523673966408530e-04  4.3164863704766036e-04  3.9693628553241929e-04  3.6200478401152917e-04  3.2757786709698862e-04  2.9420081460991581e-04  2.6225780894348127e-04  2.3199663432188725e-04  2.0355543851865283e-04  1.7698817646245632e-04  1.5228692151245113e-04  1.2940034743928622e-04  1.0824838367108512e-04  8.8733423433945153e-05  7.0748622655740411e-05  5.4183852939919722e-05  3.8929825035571951e-05  2.4880808867961843e-05  1.1936177168003643e-05  0.0000000000000000e+00  0.0000000000000000e+00  1.4285267474064971e-05  2.9874452474332239e-05  4.6906849429375235e-05  6.5534967515202178e-05  8.5924750589654598e-05  1.0825460677083118e-04  1.3271370650005083e-04  1.5949719099237248e-04  1.8882065572118560e-04  2.2079068833744830e-04  2.5578091574086356e-04  2.9364949147196132e-04  3.3454089643094931e-04  3.7861547231383686e-04  4.2505922809052551e-04  4.7531212491436708e-04  5.2157628589982459e-04  5.8498790383447160e-04  6.2616558764224263e-04  6.6825556275728931e-04  7.1827373240275483e-04  7.5608021520271644e-04  7.8393742018406545e-04  7.9516940963665552e-04  8.1466363746632428e-04  8.0118322398588595e-04  7.8437607350804192e-04  7.5558392230044814e-04  7.1867337376208744e-04  6.7496449499338234e-04  6.2678670354002729e-04  5.7616847999882568e-04  5.2482928642692860e-04  4.7413695157206263e-04  4.2510279887287270e-04  3.7841721402169244e-04  3.3450332492208050e-04  2.9357516548407281e-04  2.5569195509690630e-04  2.2080430682463469e-04  1.8879112271317217e-04  1.5948763773847283e-04  1.3270586984258313e-04  1.0824896652071192e-04  8.5920868461604433e-05  6.5532506849610969e-05  4.6905509111132964e-05  2.9874144400959183e-05  1.4285916202363498e-05  0.0000000000000000e+00  0.0000000000000000e+00  1.6733815108466353e-05  3.5112056721508118e-05  5.5332700898197755e-05  7.7618130299025138e-05  1.0221769267044105e-04  1.2940927815363972e-04  1.5949779223794019e-04  1.9283243192226002e-04  2.2971161473608331e-04  2.7068270196500349e-04  3.1586507109990659e-04  3.6565680335290266e-04  4.2149333043804422e-04  4.8047245144029049e-04  5.4667846872824067e-04  6.1329544770680460e-04  6.9576075719787614e-04  7.7693269771071714e-04  8.4594317912529342e-04  9.1810088046291019e-04  9.8333107773979772e-04  1.0443324508289708e-03  1.0914641838602128e-03  1.1199333320077948e-03  1.1374944492133349e-03  1.1291065506924887e-03  1.0987376277545450e-03  1.0554498438750423e-03  9.9182761408158639e-04  9.2081636672143293e-04  8.4487850817949130e-04  7.6705661241742950e-04  6.9009055198785395e-04  6.1594191683459040e-04  5.4589715589239561e-04  4.8068765581805832e-04  4.2062484421722659e-04  3.6572525342116894e-04  3.1581248786312322e-04  2.7059436497457083e-04  2.2971807424466642e-04  1.9280770513191358e-04  1.5948852085038477e-04  1.2940173227385499e-04  1.0221272240802423e-04  7.7614913393647019e-05  5.5330838553123309e-05  3.5111480298433569e-05  1.6734430014248550e-05  0.0000000000000000e+00  0.0000000000000000e+00  1.9274792462880407e-05  4.0584526368963054e-05  6.4202618440715935e-05  9.0443770183010183e-05  1.1967040833034447e-04  1.5229773711985286e-04  1.8881117575064661e-04  2.2972353981778900e-04  2.7578869493442984e-04  3.2739690968293362e-04  3.8503728606022105e-04  4.5316606086278472e-04  5.2247223041845836e-04  6.1017548419927097e-04  7.0110084065357244e-04  8.0188617434116143e-04  8.9551464385644736e-04  9.7345236003097886e-04  1.4762222929270027e-03  1.1503472806586390e-03  1.1671415205653105e-03  1.5363829072042989e-03  1.6135085354941551e-03  1.6034664023137392e-03  1.4864545990925606e-03  1.9105579367479895e-03  1.5404544590049078e-03  1.4904294416692707e-03  1.3903192000561994e-03  1.2781801911918404e-03  1.1531847859946435e-03  1.0292808231139937e-03  9.1063252151991642e-04  7.9995488428221090e-04  6.9856684275613524e-04  6.0682144935490898e-04  5.2448093736387924e-04  4.5096719680632539e-04  3.8553247643680619e-04  3.2737035188751105e-04  2.7568314448633407e-04  2.2971960779311028e-04  1.8879335916439878e-04  1.5228942763481022e-04  1.1966385162378506e-04  9.0439501639333296e-05  6.4200098477394196e-05  4.0583585042961187e-05  1.9275328978339874e-05  0.0000000000000000e+00  0.0000000000000000e+00  2.1898744777080533e-05  4.6275840310707749e-05  7.3499860549453171e-05  1.0400498361556873e-04  1.3830366501511532e-04  1.7700653222888030e-04  2.2082160496244362e-04  2.7063724393362808e-04  3.2738549853749657e-04  3.9237826121825469e-04  4.6895174192369235e-04  5.4551489343623307e-04  6.6346598120695392e-04  7.7118394246912460e-04  8.8677467218227046e-04  1.0801655083921141e-03  1.2288802317409323e-03  1.4806330769066992e-03  7.6512512487007887e-04  3.4952123867265984e-03  2.5969924985499255e-03  1.1680510179273992e-03  2.0262331698854929e-03  2.4758432569875208e-03  2.3989982186594749e-03  9.3456985515067998e-04  3.2219444250979816e-03  2.3171695665119437e-03  2.2428150868693520e-03  1.8583671274373982e-03  1.6255135726420704e-03  1.4109071595877687e-03  1.2178316098835282e-03  1.0467139857285484e-03  8.9638892491051832e-04  7.6528402427840348e-04  6.5139731646932119e-04  5.5260265545794391e-04  4.6686231158830812e-04  3.9232748457597531e-04  3.2737321940863183e-04  2.7059835323116175e-04  2.2080848272584166e-04  1.7699214427000117e-04  1.3829566652651977e-04  1.0399939690272202e-04  7.3496458159891565e-05  4.6274348487287514e-05  2.1899100572201691e-05  0.0000000000000000e+00  0.0000000000000000e+00  2.4592628704866184e-05  5.2161687759282452e-05  8.3193931511135670e-05  1.1827487371484915e-04  1.5811472569571191e-04  2.0357380866095951e-04  2.5572300522542531e-04  3.1591479636756687e-04  3.8543959886126381e-04  4.6790652292653435e-04  5.5844443447201106e-04  6.8912420687763649e-04  8.0059655617569826e-04  9.3415802625614974e-04  1.3209165975359997e-03  1.3117592060953066e-03  1.7793250107010139e-03  2.1075472217652494e-03  4.2929174895799498e-03  2.3344474605792240e-03  -2.6149404844846469e-03  3.3672351406387542e-03  7.4345494171760632e-03  6.2533845451079031e-03  6.1619138099653125e-03  7.6437249253052432e-03  7.3622275498650691e-03  1.6391753135939025e-03  1.6701379220339361e-03  2.6891209954629457e-03  2.3627637822664169e-03  1.9919619213904028e-03  1.6701112733429979e-03  1.3923738518742729e-03  1.1609463271074535e-03  9.6887273878165246e-04  8.0890598476297414e-04  6.7501668224003288e-04  5.6231358560690720e-04  4.6686827546521206e-04  3.8554023828350591e-04  3.1582012753230662e-04  2.5569868978674287e-04  2.0356111265124505e-04  1.5810349493758873e-04  1.1826744908156416e-04  8.3189105172306173e-05  5.2159345513945288e-05  2.4592552758802195e-05  0.0000000000000000e+00  0.0000000000000000e+00  2.7339323168869347e-05  5.8208217612185239e-05  9.3236754938807526e-05  1.3320052603880037e-04  1.7906347400874933e-04  2.3202924839855471e-04  2.9361826283116752e-04  3.6561188986866650e-04  4.5186382150365459e-04  5.5142763993047976e-04  6.8569738404045545e-04  8.0615080849223155e-04  9.5459863596977323e-04  1.6411237432648782e-03  9.5946423755903683e-04  2.3440917551371732e-03  2.7676249336580066e-03  2.5774615805817967e-03  4.0634971867815192e-03  1.9380202697024049e-02  1.0255089453205647e-01  -1.3358163804254568e-02  -6.6920565454152980e-02  -1.5562647427356434e-02  -1.1882330644807549e-02  -3.1646531685236678e-02  -4.2826529906512409e-02  6.7472014067806257e-02  1.5854171443088684e-02  1.0869190317859200e-02  4.3864068597225993e-03  3.2845439612561463e-03  2.4264893764719964e-03  1.9065743834829332e-03  1.5295400487510458e-03  1.2378332147438271e-03  1.0079719527781843e-03  8.2412162709416396e-04  6.7503201432651371e-04  5.5262060522608212e-04  4.5098342652428899e-04  3.6573851688884959e-04  2.9358544356795121e-04  2.3200441538331033e-04  1.7904739335346072e-04  1.3319084242483295e-04  9.3230424306198738e-05  5.8204627809836168e-05  2.7338512699461378e-05  0.0000000000000000e+00  0.0000000000000000e+00  3.0117174389640796e-05  6.4370264237546769e-05  1.0356140207690396e-04  1.4869736244782836e-04  2.0105149358791346e-04  2.6230758439614642e-04  3.3459248622350003e-04  4.2099183883106332e-04  5.2343309788198638e-04  6.5343861884103907e-04  8.1551552264635930e-04  1.0524423744639117e-03  1.4732109416599414e-03  2.9807410334147145e-04  5.1161718044491740e-03  4.1977365602578684e-03  2.3758686807494671e-05  8.5714152073573888e-03  -2.6103544905259502e-03  -4.8142604488071910e-03  3.9744577906781202e-02  1.9959006910913601e-01  1.1581457188620981e+00  3.2867775569015090e-01  2.7980218985458943e-01  3.3166426116168130e-01  9.5890858015681846e-01  1.7170974007922291e-01  2.4528816095643679e-02  -7.3920322791905746e-02  8.6301954692506472e-03  2.6673005977727992e-03  3.3761192824159855e-03  2.7388096073838477e-03  2.0757899895167352e-03  1.6061691400234791e-03  1.2651060335055451e-03  1.0080210877248393e-03  8.0895799909485699e-04  6.5143955493162167e-04  5.2451267071157827e-04  4.2064777010662296e-04  3.3451950690666099e-04  2.6226912308653595e-04  2.0104151979702799e-04  1.4868534512698997e-04  1.0355327933577938e-04  6.4365760797733201e-05  3.0115800771253924e-05  0.0000000000000000e+00  0.0000000000000000e+00  3.2899652098647918e-05  7.0590570296746093e-05  1.1407581895989486e-04  1.6464115400824630e-04  2.2397083130045494e-04  2.9419654208740772e-04  3.7842377454910949e-04  4.8083603027256565e-04  6.0916839476487942e-04  7.7327385588983025e-04  9.3579627265657844e-04  1.4132812601905147e-03  1.6119506059557298e-03  5.5329247540762379e-03  -9.8327478938851112e-05  3.9304139294578690e-03  6.5686860365793492e-02  4.5687170453571659e-02  3.2315951434303108e-01  8.7363496180818612e-01  9.3318884765329491e-01  4.3606859677264259e-01  6.3188042835760710e-02  1.0292111697972506e+00  2.8014315904017906e-01  2.9069326294610920e-01  2.5081115233780438e-01  8.6717510922356911e-01  3.6135991025046643e-01  5.5009871473597827e-01  2.7915485175197130e-01  4.7018402867848356e-02  1.3598904644631541e-02  4.5146291604507907e-03  2.9221867792810947e-03  2.1341343971938800e-03  1.6064776171549934e-03  1.2380314431452253e-03  9.6900643962269080e-04  7.6537408835822870e-04  6.0688133237617051e-04  4.8072749938610394e-04  3.7844384119956097e-04  2.9421879017717896e-04  2.2394145264411502e-04  1.6462867159888214e-04  1.1406785063036594e-04  7.0586525773945978e-05  3.2898915590490132e-05  0.0000000000000000e+00  0.0000000000000000e+00  3.5655299696195835e-05  7.6798639576304507e-05  1.2466329291792847e-04  1.8086403733504704e-04  2.4753919897710911e-04  3.2770546763994681e-04  4.2532682736773104e-04  5.4452504335910105e-04  6.9515770299789456e-04  8.9000498097772289e-04  1.3353928639300691e-03  1.3482168167029624e-03  3.5484034547942976e-03  3.7551030455458996e-03  2.4938346542865881e-02  1.2596518980849297e-01  2.7588432478229903e-02  7.8154100609742427e-01  4.6984570761278910e-01  3.7311774848446738e-01  4.4738584671707549e-01  6.7572135476192108e-01  5.9303972625335100e-01  5.4395628388993422e-01  6.8353943176355314e-01  3.2403568349293127e-01  3.5095446689761384e-01  5.7517892292428208e-01  5.8214975051382134e-01  4.2560925252962994e-01  8.2087089155998583e-01  6.0981861331934062e-01  -7.7751347407025717e-02  4.4877547462585099e-03  4.8729441080317820e-03  2.9696070542534767e-03  2.0734282103976763e-03  1.5301848771241255e-03  1.1612633803928716e-03  8.9656935759545244e-04  6.9867378311975830e-04  5.4596356287400826e-04  4.2514541593735935e-04  3.2760616003408606e-04  2.4752946009915959e-04  1.8085280955949898e-04  1.2465770008880282e-04  7.6796825141579509e-05  3.5656849156804482e-05  0.0000000000000000e+00  0.0000000000000000e+00  3.8347595640828175e-05  8.2910745320281991e-05  1.3518168448324239e-04  1.9714400796329355e-04  2.7150773350698832e-04  3.6202072431594376e-04  4.7401327544444743e-04  6.2093089248834224e-04  7.9470462700474047e-04  9.9278292693124985e-04  1.1100962274207585e-03  2.6463498253671974e-03  5.48864011281