<?xml version="1.0"?>
<VTKFile type="UnstructuredGrid"  version="0.1"  >
<UnstructuredGrid>
<Piece  NumberOfPoints="2601" NumberOfCells="5000">
<Points>
<DataArray  type="Float64"  NumberOfComponents="3"  format="ascii">0 0 0  0.02 0 0  0.04 0 0  0.06 0 0  0.08 0 0  0.1 0 0  0.12 0 0  0.14 0 0  0.16 0 0  0.18 0 0  0.2 0 0  0.22 0 0  0.24 0 0  0.26 0 0  0.28 0 0  0.3 0 0  0.32 0 0  0.34 0 0  0.36 0 0  0.38 0 0  0.4 0 0  0.42 0 0  0.44 0 0  0.46 0 0  0.48 0 0  0.5 0 0  0.52 0 0  0.54 0 0  0.5600000000000001 0 0  0.58 0 0  0.6 0 0  0.62 0 0  0.64 0 0  0.66 0 0  0.68 0 0  0.7 0 0  0.72 0 0  0.74 0 0  0.76 0 0  0.78 0 0  0.8 0 0  0.82 0 0  0.84 0 0  0.86 0 0  0.88 0 0  0.9 0 0  0.92 0 0  0.9399999999999999 0 0  0.96 0 0  0.98 0 0  1 0 0  0 0.02 0  0.02 0.02 0  0.04 0.02 0  0.06 0.02 0  0.08 0.02 0  0.1 0.02 0  0.12 0.02 0  0.14 0.02 0  0.16 0.02 0  0.18 0.02 0  0.2 0.02 0  0.22 0.02 0  0.24 0.02 0  0.26 0.02 0  0.28 0.02 0  0.3 0.02 0  0.32 0.02 0  0.34 0.02 0  0.36 0.02 0  0.38 0.02 0  0.4 0.02 0  0.42 0.02 0  0.44 0.02 0  0.46 0.02 0  0.48 0.02 0  0.5 0.02 0  0.52 0.02 0  0.54 0.02 0  0.5600000000000001 0.02 0  0.58 0.02 0  0.6 0.02 0  0.62 0.02 0  0.64 0.02 0  0.66 0.02 0  0.68 0.02 0  0.7 0.02 0  0.72 0.02 0  0.74 0.02 0  0.76 0.02 0  0.78 0.02 0  0.8 0.02 0  0.82 0.02 0  0.84 0.02 0  0.86 0.02 0  0.88 0.02 0  0.9 0.02 0  0.92 0.02 0  0.9399999999999999 0.02 0  0.96 0.02 0  0.98 0.02 0  1 0.02 0  0 0.04 0  0.02 0.04 0  0.04 0.04 0  0.06 0.04 0  0.08 0.04 0  0.1 0.04 0  0.12 0.04 0  0.14 0.04 0  0.16 0.04 0  0.18 0.04 0  0.2 0.04 0  0.22 0.04 0  0.24 0.04 0  0.26 0.04 0  0.28 0.04 0  0.3 0.04 0  0.32 0.04 0  0.34 0.04 0  0.36 0.04 0  0.38 0.04 0  0.4 0.04 0  0.42 0.04 0  0.44 0.04 0  0.46 0.04 0  0.48 0.04 0  0.5 0.04 0  0.52 0.04 0  0.54 0.04 0  0.5600000000000001 0.04 0  0.58 0.04 0  0.6 0.04 0  0.62 0.04 0  0.64 0.04 0  0.66 0.04 0  0.68 0.04 0  0.7 0.04 0  0.72 0.04 0  0.74 0.04 0  0.76 0.04 0  0.78 0.04 0  0.8 0.04 0  0.82 0.04 0  0.84 0.04 0  0.86 0.04 0  0.88 0.04 0  0.9 0.04 0  0.92 0.04 0  0.9399999999999999 0.04 0  0.96 0.04 0  0.98 0.04 0  1 0.04 0  0 0.06 0  0.02 0.06 0  0.04 0.06 0  0.06 0.06 0  0.08 0.06 0  0.1 0.06 0  0.12 0.06 0  0.14 0.06 0  0.16 0.06 0  0.18 0.06 0  0.2 0.06 0  0.22 0.06 0  0.24 0.06 0  0.26 0.06 0  0.28 0.06 0  0.3 0.06 0  0.32 0.06 0  0.34 0.06 0  0.36 0.06 0  0.38 0.06 0  0.4 0.06 0  0.42 0.06 0  0.44 0.06 0  0.46 0.06 0  0.48 0.06 0  0.5 0.06 0  0.52 0.06 0  0.54 0.06 0  0.5600000000000001 0.06 0  0.58 0.06 0  0.6 0.06 0  0.62 0.06 0  0.64 0.06 0  0.66 0.06 0  0.68 0.06 0  0.7 0.06 0  0.72 0.06 0  0.74 0.06 0  0.76 0.06 0  0.78 0.06 0  0.8 0.06 0  0.82 0.06 0  0.84 0.06 0  0.86 0.06 0  0.88 0.06 0  0.9 0.06 0  0.92 0.06 0  0.9399999999999999 0.06 0  0.96 0.06 0  0.98 0.06 0  1 0.06 0  0 0.08 0  0.02 0.08 0  0.04 0.08 0  0.06 0.08 0  0.08 0.08 0  0.1 0.08 0  0.12 0.08 0  0.14 0.08 0  0.16 0.08 0  0.18 0.08 0  0.2 0.08 0  0.22 0.08 0  0.24 0.08 0  0.26 0.08 0  0.28 0.08 0  0.3 0.08 0  0.32 0.08 0  0.34 0.08 0  0.36 0.08 0  0.38 0.08 0  0.4 0.08 0  0.42 0.08 0  0.44 0.08 0  0.46 0.08 0  0.48 0.08 0  0.5 0.08 0  0.52 0.08 0  0.54 0.08 0  0.5600000000000001 0.08 0  0.58 0.08 0  0.6 0.08 0  0.62 0.08 0  0.64 0.08 0  0.66 0.08 0  0.68 0.08 0  0.7 0.08 0  0.72 0.08 0  0.74 0.08 0  0.76 0.08 0  0.78 0.08 0  0.8 0.08 0  0.82 0.08 0  0.84 0.08 0  0.86 0.08 0  0.88 0.08 0  0.9 0.08 0  0.92 0.08 0  0.9399999999999999 0.08 0  0.96 0.08 0  0.98 0.08 0  1 0.08 0  0 0.1 0  0.02 0.1 0  0.04 0.1 0  0.06 0.1 0  0.08 0.1 0  0.1 0.1 0  0.12 0.1 0  0.14 0.1 0  0.16 0.1 0  0.18 0.1 0  0.2 0.1 0  0.22 0.1 0  0.24 0.1 0  0.26 0.1 0  0.28 0.1 0  0.3 0.1 0  0.32 0.1 0  0.34 0.1 0  0.36 0.1 0  0.38 0.1 0  0.4 0.1 0  0.42 0.1 0  0.44 0.1 0  0.46 0.1 0  0.48 0.1 0  0.5 0.1 0  0.52 0.1 0  0.54 0.1 0  0.5600000000000001 0.1 0  0.58 0.1 0  0.6 0.1 0  0.62 0.1 0  0.64 0.1 0  0.66 0.1 0  0.68 0.1 0  0.7 0.1 0  0.72 0.1 0  0.74 0.1 0  0.76 0.1 0  0.78 0.1 0  0.8 0.1 0  0.82 0.1 0  0.84 0.1 0  0.86 0.1 0  0.88 0.1 0  0.9 0.1 0  0.92 0.1 0  0.9399999999999999 0.1 0  0.96 0.1 0  0.98 0.1 0  1 0.1 0  0 0.12 0  0.02 0.12 0  0.04 0.12 0  0.06 0.12 0  0.08 0.12 0  0.1 0.12 0  0.12 0.12 0  0.14 0.12 0  0.16 0.12 0  0.18 0.12 0  0.2 0.12 0  0.22 0.12 0  0.24 0.12 0  0.26 0.12 0  0.28 0.12 0  0.3 0.12 0  0.32 0.12 0  0.34 0.12 0  0.36 0.12 0  0.38 0.12 0  0.4 0.12 0  0.42 0.12 0  0.44 0.12 0  0.46 0.12 0  0.48 0.12 0  0.5 0.12 0  0.52 0.12 0  0.54 0.12 0  0.5600000000000001 0.12 0  0.58 0.12 0  0.6 0.12 0  0.62 0.12 0  0.64 0.12 0  0.66 0.12 0  0.68 0.12 0  0.7 0.12 0  0.72 0.12 0  0.74 0.12 0  0.76 0.12 0  0.78 0.12 0  0.8 0.12 0  0.82 0.12 0  0.84 0.12 0  0.86 0.12 0  0.88 0.12 0  0.9 0.12 0  0.92 0.12 0  0.9399999999999999 0.12 0  0.96 0.12 0  0.98 0.12 0  1 0.12 0  0 0.14 0  0.02 0.14 0  0.04 0.14 0  0.06 0.14 0  0.08 0.14 0  0.1 0.14 0  0.12 0.14 0  0.14 0.14 0  0.16 0.14 0  0.18 0.14 0  0.2 0.14 0  0.22 0.14 0  0.24 0.14 0  0.26 0.14 0  0.28 0.14 0  0.3 0.14 0  0.32 0.14 0  0.34 0.14 0  0.36 0.14 0  0.38 0.14 0  0.4 0.14 0  0.42 0.14 0  0.44 0.14 0  0.46 0.14 0  0.48 0.14 0  0.5 0.14 0  0.52 0.14 0  0.54 0.14 0  0.5600000000000001 0.14 0  0.58 0.14 0  0.6 0.14 0  0.62 0.14 0  0.64 0.14 0  0.66 0.14 0  0.68 0.14 0  0.7 0.14 0  0.72 0.14 0  0.74 0.14 0  0.76 0.14 0  0.78 0.14 0  0.8 0.14 0  0.82 0.14 0  0.84 0.14 0  0.86 0.14 0  0.88 0.14 0  0.9 0.14 0  0.92 0.14 0  0.9399999999999999 0.14 0  0.96 0.14 0  0.98 0.14 0  1 0.14 0  0 0.16 0  0.02 0.16 0  0.04 0.16 0  0.06 0.16 0  0.08 0.16 0  0.1 0.16 0  0.12 0.16 0  0.14 0.16 0  0.16 0.16 0  0.18 0.16 0  0.2 0.16 0  0.22 0.16 0  0.24 0.16 0  0.26 0.16 0  0.28 0.16 0  0.3 0.16 0  0.32 0.16 0  0.34 0.16 0  0.36 0.16 0  0.38 0.16 0  0.4 0.16 0  0.42 0.16 0  0.44 0.16 0  0.46 0.16 0  0.48 0.16 0  0.5 0.16 0  0.52 0.16 0  0.54 0.16 0  0.5600000000000001 0.16 0  0.58 0.16 0  0.6 0.16 0  0.62 0.16 0  0.64 0.16 0  0.66 0.16 0  0.68 0.16 0  0.7 0.16 0  0.72 0.16 0  0.74 0.16 0  0.76 0.16 0  0.78 0.16 0  0.8 0.16 0  0.82 0.16 0  0.84 0.16 0  0.86 0.16 0  0.88 0.16 0  0.9 0.16 0  0.92 0.16 0  0.9399999999999999 0.16 0  0.96 0.16 0  0.98 0.16 0  1 0.16 0  0 0.18 0  0.02 0.18 0  0.04 0.18 0  0.06 0.18 0  0.08 0.18 0  0.1 0.18 0  0.12 0.18 0  0.14 0.18 0  0.16 0.18 0  0.18 0.18 0  0.2 0.18 0  0.22 0.18 0  0.24 0.18 0  0.26 0.18 0  0.28 0.18 0  0.3 0.18 0  0.32 0.18 0  0.34 0.18 0  0.36 0.18 0  0.38 0.18 0  0.4 0.18 0  0.42 0.18 0  0.44 0.18 0  0.46 0.18 0  0.48 0.18 0  0.5 0.18 0  0.52 0.18 0  0.54 0.18 0  0.5600000000000001 0.18 0  0.58 0.18 0  0.6 0.18 0  0.62 0.18 0  0.64 0.18 0  0.66 0.18 0  0.68 0.18 0  0.7 0.18 0  0.72 0.18 0  0.74 0.18 0  0.76 0.18 0  0.78 0.18 0  0.8 0.18 0  0.82 0.18 0  0.84 0.18 0  0.86 0.18 0  0.88 0.18 0  0.9 0.18 0  0.92 0.18 0  0.9399999999999999 0.18 0  0.96 0.18 0  0.98 0.18 0  1 0.18 0  0 0.2 0  0.02 0.2 0  0.04 0.2 0  0.06 0.2 0  0.08 0.2 0  0.1 0.2 0  0.12 0.2 0  0.14 0.2 0  0.16 0.2 0  0.18 0.2 0  0.2 0.2 0  0.22 0.2 0  0.24 0.2 0  0.26 0.2 0  0.28 0.2 0  0.3 0.2 0  0.32 0.2 0  0.34 0.2 0  0.36 0.2 0  0.38 0.2 0  0.4 0.2 0  0.42 0.2 0  0.44 0.2 0  0.46 0.2 0  0.48 0.2 0  0.5 0.2 0  0.52 0.2 0  0.54 0.2 0  0.5600000000000001 0.2 0  0.58 0.2 0  0.6 0.2 0  0.62 0.2 0  0.64 0.2 0  0.66 0.2 0  0.68 0.2 0  0.7 0.2 0  0.72 0.2 0  0.74 0.2 0  0.76 0.2 0  0.78 0.2 0  0.8 0.2 0  0.82 0.2 0  0.84 0.2 0  0.86 0.2 0  0.88 0.2 0  0.9 0.2 0  0.92 0.2 0  0.9399999999999999 0.2 0  0.96 0.2 0  0.98 0.2 0  1 0.2 0  0 0.22 0  0.02 0.22 0  0.04 0.22 0  0.06 0.22 0  0.08 0.22 0  0.1 0.22 0  0.12 0.22 0  0.14 0.22 0  0.16 0.22 0  0.18 0.22 0  0.2 0.22 0  0.22 0.22 0  0.24 0.22 0  0.26 0.22 0  0.28 0.22 0  0.3 0.22 0  0.32 0.22 0  0.34 0.22 0  0.36 0.22 0  0.38 0.22 0  0.4 0.22 0  0.42 0.22 0  0.44 0.22 0  0.46 0.22 0  0.48 0.22 0  0.5 0.22 0  0.52 0.22 0  0.54 0.22 0  0.5600000000000001 0.22 0  0.58 0.22 0  0.6 0.22 0  0.62 0.22 0  0.64 0.22 0  0.66 0.22 0  0.68 0.22 0  0.7 0.22 0  0.72 0.22 0  0.74 0.22 0  0.76 0.22 0  0.78 0.22 0  0.8 0.22 0  0.82 0.22 0  0.84 0.22 0  0.86 0.22 0  0.88 0.22 0  0.9 0.22 0  0.92 0.22 0  0.9399999999999999 0.22 0  0.96 0.22 0  0.98 0.22 0  1 0.22 0  0 0.24 0  0.02 0.24 0  0.04 0.24 0  0.06 0.24 0  0.08 0.24 0  0.1 0.24 0  0.12 0.24 0  0.14 0.24 0  0.16 0.24 0  0.18 0.24 0  0.2 0.24 0  0.22 0.24 0  0.24 0.24 0  0.26 0.24 0  0.28 0.24 0  0.3 0.24 0  0.32 0.24 0  0.34 0.24 0  0.36 0.24 0  0.38 0.24 0  0.4 0.24 0  0.42 0.24 0  0.44 0.24 0  0.46 0.24 0  0.48 0.24 0  0.5 0.24 0  0.52 0.24 0  0.54 0.24 0  0.5600000000000001 0.24 0  0.58 0.24 0  0.6 0.24 0  0.62 0.24 0  0.64 0.24 0  0.66 0.24 0  0.68 0.24 0  0.7 0.24 0  0.72 0.24 0  0.74 0.24 0  0.76 0.24 0  0.78 0.24 0  0.8 0.24 0  0.82 0.24 0  0.84 0.24 0  0.86 0.24 0  0.88 0.24 0  0.9 0.24 0  0.92 0.24 0  0.9399999999999999 0.24 0  0.96 0.24 0  0.98 0.24 0  1 0.24 0  0 0.26 0  0.02 0.26 0  0.04 0.26 0  0.06 0.26 0  0.08 0.26 0  0.1 0.26 0  0.12 0.26 0  0.14 0.26 0  0.16 0.26 0  0.18 0.26 0  0.2 0.26 0  0.22 0.26 0  0.24 0.26 0  0.26 0.26 0  0.28 0.26 0  0.3 0.26 0  0.32 0.26 0  0.34 0.26 0  0.36 0.26 0  0.38 0.26 0  0.4 0.26 0  0.42 0.26 0  0.44 0.26 0  0.46 0.26 0  0.48 0.26 0  0.5 0.26 0  0.52 0.26 0  0.54 0.26 0  0.5600000000000001 0.26 0  0.58 0.26 0  0.6 0.26 0  0.62 0.26 0  0.64 0.26 0  0.66 0.26 0  0.68 0.26 0  0.7 0.26 0  0.72 0.26 0  0.74 0.26 0  0.76 0.26 0  0.78 0.26 0  0.8 0.26 0  0.82 0.26 0  0.84 0.26 0  0.86 0.26 0  0.88 0.26 0  0.9 0.26 0  0.92 0.26 0  0.9399999999999999 0.26 0  0.96 0.26 0  0.98 0.26 0  1 0.26 0  0 0.28 0  0.02 0.28 0  0.04 0.28 0  0.06 0.28 0  0.08 0.28 0  0.1 0.28 0  0.12 0.28 0  0.14 0.28 0  0.16 0.28 0  0.18 0.28 0  0.2 0.28 0  0.22 0.28 0  0.24 0.28 0  0.26 0.28 0  0.28 0.28 0  0.3 0.28 0  0.32 0.28 0  0.34 0.28 0  0.36 0.28 0  0.38 0.28 0  0.4 0.28 0  0.42 0.28 0  0.44 0.28 0  0.46 0.28 0  0.48 0.28 0  0.5 0.28 0  0.52 0.28 0  0.54 0.28 0  0.5600000000000001 0.28 0  0.58 0.28 0  0.6 0.28 0  0.62 0.28 0  0.64 0.28 0  0.66 0.28 0  0.68 0.28 0  0.7 0.28 0  0.72 0.28 0  0.74 0.28 0  0.76 0.28 0  0.78 0.28 0  0.8 0.28 0  0.82 0.28 0  0.84 0.28 0  0.86 0.28
[...]
<PointData  Scalars="u"> 
<DataArray  type="Float64"  Name="u"  format="ascii">0.0000000000000000e+00  0.0000000000000000e+00  0.0000000000000000e+00  0.0000000000000000e+00  0.0000000000000000e+00  0.0000000000000000e+00  0.0000000000000000e+00  0.0000000000000000e+00  0.0000000000000000e+00  0.0000000000000000e+00  0.0000000000000000e+00  0.0000000000000000e+00  0.0000000000000000e+00  0.0000000000000000e+00  0.0000000000000000e+00  0.0000000000000000e+00  0.0000000000000000e+00  0.0000000000000000e+00  0.0000000000000000e+00  0.0000000000000000e+00  0.0000000000000000e+00  0.0000000000000000e+00  0.0000000000000000e+00  0.0000000000000000e+00  0.0000000000000000e+00  0.0000000000000000e+00  0.0000000000000000e+00  0.0000000000000000e+00  0.0000000000000000e+00  0.0000000000000000e+00  0.0000000000000000e+00  0.0000000000000000e+00  0.0000000000000000e+00  0.0000000000000000e+00  0.0000000000000000e+00  0.0000000000000000e+00  0.0000000000000000e+00  0.0000000000000000e+00  0.0000000000000000e+00  0.0000000000000000e+00  0.0000000000000000e+00  0.0000000000000000e+00  0.0000000000000000e+00  0.0000000000000000e+00  0.0000000000000000e+00  0.0000000000000000e+00  0.0000000000000000e+00  0.0000000000000000e+00  0.0000000000000000e+00  0.0000000000000000e+00  0.0000000000000000e+00  0.0000000000000000e+00  -6.0050399222895661e-03  -4.6062519652712297e-03  -1.6389998654284636e-03  -4.1381328524089525e-03  1.2749521710305151e-02  -5.9470652506436314e-03  2.9006595362352809e-03  -1.1868442381654172e-02  8.1918955992563054e-03  -7.8536564578401274e-03  -7.0638224278285512e-03  1.6814927513154714e-02  -1.1044488153454962e-02  -8.5658625661605772e-03  1.7532890852033713e-02  -2.0290522640986821e-03  -1.8477701371028117e-02  9.8077459829999936e-03  5.6879396570537364e-03  1.9132802862339032e-03  -2.9833751950917708e-04  2.0582452576081416e-02  5.1712228736625412e-04  -5.0570982073159260e-03  -7.9764113540229753e-04  -3.7094796009647102e-04  6.4846699767904335e-03  -1.9920405114869436e-03  -3.3847466120723139e-04  5.4739226911701205e-04  5.9546722693880849e-05  4.2940250780756993e-04  2.4217377794209869e-04  2.3093422837077397e-04  4.8550833558790160e-04  -3.9307404206040473e-04  1.7063164654679806e-05  -1.2350547106138929e-05  -2.6632208408484297e-04  2.7886541367649616e-04  6.2569489965078485e-04  8.1087894274592330e-05  8.3084507917287906e-05  5.6542215036682974e-05  -1.4690212938858659e-04  -1.1941075006678754e-04  -9.1253628671568310e-05  -4.5883755031433887e-05  -1.1089399555816830e-05  0.0000000000000000e+00  0.0000000000000000e+00  1.2093244927245984e-02  1.4087377444259971e-02  3.4931356963335308e-03  -1.0697452764515451e-02  -3.1017173381813258e-03  1.4249933821137834e-02  8.2598239386080935e-03  -2.7700509553382213e-02  1.7384562334129217e-02  -2.6216953390889169e-02  3.1882668970235763e-02  -4.3809156749145012e-02  3.8569088658413263e-02  -9.3128067377530217e-03  -1.8335988341917346e-02  2.5566537341176879e-02  -1.9433344774614184e-02  -1.8731584800588712e-02  2.0981755662902002e-02  -7.5978196950062431e-03  7.2709086882982235e-03  -1.1448216537490154e-02  4.1821918362857841e-02  -3.6710832786559469e-02  2.0060865899043621e-02  -1.3104254006473189e-02  9.2234215768034842e-03  4.8693288327780297e-03  -4.8896400277648059e-03  4.7066574835567386e-04  7.4260530406387089e-04  9.4961816803018222e-05  7.4694486736357727e-04  5.2276158859648314e-04  5.1805704226307535e-04  6.5202593097650225e-04  -9.4815654373170822e-04  5.6057240591514239e-04  -3.5393298057392918e-04  -2.1157697979113765e-04  1.1609562306451730e-03  8.0644814819316279e-04  -1.6718488244520312e-05  3.7499910710217521e-04  -5.1717651600158670e-05  -1.6798467597187774e-04  -1.3985704970678585e-04  -9.5861919341135374e-05  -7.6161806587066023e-05  0.0000000000000000e+00  0.0000000000000000e+00  5.6087124532930724e-03  -2.3922135323650733e-03  3.2486668010129807e-03  7.9030738693839486e-03  -1.3174148419930682e-02  2.4140939156447758e-02  -1.1107994496847986e-02  2.6431534727769233e-02  -4.6282330375553501e-02  3.8740290294137426e-02  -3.9978171908230505e-02  1.2636115246365704e-02  6.7452012334849156e-03  -1.0044275485664625e-02  -1.7214565789143176e-02  2.9855031706860831e-02  1.9182570222437176e-02  -5.5129183608281340e-02  -7.9931205636930500e-04  2.3766493132262867e-02  -7.9039104679727770e-03  -1.1112984349690457e-02  2.1613224947441376e-02  2.9686226594232808e-02  -3.6160955665151248e-02  1.3169384384506029e-02  -1.0670830001430397e-02  1.9168815509190654e-02  -2.6933775224812790e-03  -3.1422225806609300e-03  1.0132587998676985e-03  2.3390948786346702e-04  7.6545487130402323e-04  5.5827042388064449e-04  6.9857532039965830e-04  1.2370595898393158e-03  -6.1631898449102693e-04  -3.1546329880569404e-04  3.4206635172780658e-04  -6.8967869694808788e-04  5.4304789019632080e-04  1.9424169346852532e-03  5.1686325988717114e-04  1.9850569937458485e-04  4.0878792993824010e-04  -2.0820362232172170e-04  -1.7349205639841095e-04  -1.1421487320301235e-04  -2.4252066137480723e-05  0.0000000000000000e+00  0.0000000000000000e+00  -2.2388239404785765e-02  -2.9244442288991850e-04  1.6590094022485648e-02  -1.5152859207797622e-03  -1.7950318962263210e-02  -1.1833719590276313e-02  3.6967196574492482e-02  1.0571507339932031e-02  -2.4493801105318486e-02  1.2541355530411417e-02  -2.1321769683760993e-02  3.4944436060366506e-02  -7.0350418493411684e-02  7.4019500189852941e-02  -2.2678184362579422e-02  -4.4289865593872553e-02  6.0462841060467717e-02  -9.3043917823471614e-03  -5.6619322925702306e-02  2.0069016706645237e-02  -6.8399780838793644e-03  5.9638489668083087e-03  -3.2121934276591178e-02  7.4408253689965259e-02  -4.1424510866992961e-02  1.7659859200444342e-02  -1.9554467528539253e-02  7.9179795352356946e-03  1.5278454478911175e-02  -8.5686828408204248e-03  -7.2234881511555299e-06  1.2839133440753461e-03  8.8579075746322348e-05  1.2040629743139326e-03  6.8214829012823615e-04  8.3750263556984258e-04  1.4066889350630163e-03  -1.8829344566853668e-03  7.5735622736335822e-04  -5.1423687841959591e-04  -6.2473583239599736e-04  1.9497980262904422e-03  1.9185079461413355e-03  2.0394907352516565e-04  6.2851910410456396e-04  1.3601588359827741e-04  -2.5005870123134881e-04  -1.8818315455067849e-04  -8.7075698853080890e-05  0.0000000000000000e+00  0.0000000000000000e+00  1.5256913147492373e-02  1.3010669200363503e-02  -1.6497271811648003e-02  5.1809183881862024e-03  1.1131011848353410e-02  -2.5169810957738507e-02  2.0387869767100608e-02  -1.4093766854048262e-03  4.4163529982390079e-02  -6.5868623448695263e-02  5.4297550153206170e-02  -5.7071016001020144e-02  2.5924156614533976e-02  -1.4283712203155049e-02  6.7086097382749446e-03  -2.0945484565328288e-02  2.6056742720016249e-02  4.0912529249596014e-02  -7.4606457500861700e-02  -2.0137218930551332e-02  3.5932345919185933e-02  -1.7685416599409910e-02  -2.0493453026326179e-02  1.5735413374878167e-02  6.0177074726829524e-02  -5.8216451193215529e-02  2.3150157167085666e-02  -2.0871091351262937e-02  2.6080787957372294e-02  1.3637308969940093e-03  -7.0053788568018305e-03  1.2755149726366617e-03  7.7715409480088780e-04  9.9027031359785311e-04  8.9083786682051989e-04  1.0363763121328294e-03  1.6391130622446207e-03  -3.1396248271084508e-04  -1.1867753561368665e-03  6.8454865423540131e-04  -1.1271970161227060e-03  4.0575902542326831e-04  3.0507684795641138e-03  1.2534203482689220e-03  3.9485357346771670e-04  7.2055581890621834e-04  -9.1122084323443613e-05  -2.0577722125735958e-04  -1.3233802245055597e-04  0.0000000000000000e+00  0.0000000000000000e+00  -9.5361995056987264e-03  -1.6911689115663923e-02  1.7446306666974769e-02  2.5445023714114563e-02  -4.2168875203908735e-03  -2.1636167833151577e-02  -1.7277665954622167e-02  5.0725861586057422e-02  1.5265357947904875e-02  -2.0263765602461119e-02  5.8853497106140414e-03  -1.3454265647107581e-02  2.9222356579705559e-02  -7.9140527315842646e-02  8.4885969864844174e-02  -2.3166553783821486e-02  -6.5076894519472836e-02  8.5327193073145374e-02  5.9393931263365101e-03  -8.9480842350147180e-02  6.9898753643169763e-03  1.6367445289635638e-03  9.5361501212283713e-04  -4.7462330421121274e-02  9.1396863155618693e-02  -3.4118830595998753e-02  3.7575770410159613e-03  -1.6830649559386200e-02  1.8869916290525676e-03  2.4779897720241278e-02  -9.1611392669396149e-03  -2.5443946366568602e-03  1.3306572546400467e-03  3.7036307328974907e-04  1.5474779099864952e-03  7.4478045615403968e-04  1.2342239754698503e-03  1.9625427187967451e-03  -2.1974605875570955e-03  3.4606184845988730e-04  -4.0698575105817074e-04  -1.0670056989617398e-03  2.2725132337643472e-03  3.0741931559520805e-03  6.8638797005940336e-04  8.4318426993329541e-04  4.2381112049271114e-04  -1.3761304520557444e-04  -1.2200234955257437e-04  0.0000000000000000e+00  0.0000000000000000e+00  8.9918691034524302e-03  7.0946789346246226e-03  8.9534170060399602e-03  -2.3274754982595989e-02  2.0076864320122526e-02  2.3609313968018776e-02  -3.0717928740413188e-02  1.4326740666757147e-02  1.3025909263705691e-02  5.9781589326690816e-02  -6.8635224179910817e-02  5.3280428357813173e-02  -5.6688876370603498e-02  2.2461461707167833e-02  -1.8635217382355081e-02  9.7826554798025010e-03  -1.8647223569545540e-02  2.2615513262393618e-02  5.1175582586324868e-02  -8.3221151150687636e-02  -3.5362724766771880e-02  3.4705888937733728e-02  -2.2520429443482298e-02  -3.4418536702475203e-02  1.6814049220800511e-02  7.9065932163689304e-02  -5.9608194168032133e-02  1.3825835311269814e-02  -2.2871696265815287e-02  2.6626204492124279e-02  8.5181411635789610e-03  -9.5051810187807666e-03  5.7292918467075754e-04  8.4977354191408073e-04  1.0494086226884695e-03  1.1110589735917765e-03  9.7011645699755658e-04  1.8322109251662990e-03  1.1545641901888572e-04  -1.9596535733223605e-03  6.2768783034395834e-04  -1.3659565354759160e-03  9.6897909659163795e-05  3.7452122744351260e-03  2.2101088913737740e-03  7.9314212213253514e-04  9.3083456806933654e-04  1.5180098930730291e-04  -1.0141740258943599e-04  0.0000000000000000e+00  0.0000000000000000e+00  -9.5681384939615022e-03  -5.2051670087700673e-03  -1.7299337658848880e-02  2.6890741567973411e-02  2.1909394130473714e-02  -1.1465988976217648e-02  -2.0175397478849243e-02  -7.5971790447289409e-03  6.2357590913100835e-02  2.9598723046198823e-02  -2.3097687567242141e-02  1.4173367666208496e-02  -1.5957920021868462e-02  3.3151573520616380e-02  -9.2656073419323554e-02  9.4316696520679297e-02  -2.1774812904685539e-02  -8.2968309542906529e-02  1.0923190163508151e-01  1.9239270575403193e-02  -1.1790856082655540e-01  -1.3943150823412916e-02  8.9064903616849194e-03  7.0892601596922239e-04  -6.2739454735386252e-02  1.0179506035402763e-01  -3.0035407663448144e-02  2.6566304674500003e-03  -1.9485816247517058e-02  -3.2907805265084654e-03  2.9058299826395337e-02  -6.1067097557582963e-03  -6.1467898507028967e-03  1.0869251319570975e-03  5.6288946761452610e-04  1.4798821057842410e-03  6.4581863329130128e-04  1.2080811604287015e-03  1.9086120925087885e-03  -2.1174476373207905e-03  -6.1489023957576102e-04  -4.5036684284112491e-04  -1.5282469871825363e-03  2.1541224496909135e-03  3.9306257758788439e-03  1.3636458203398864e-03  1.1238041377621319e-03  6.1836184625277163e-04  5.4688191919136083e-05  0.0000000000000000e+00  0.0000000000000000e+00  8.9411477359251004e-03  6.6380062735992649e-03  4.0945133033015758e-03  2.4895468358077811e-03  -2.8254464604186198e-02  2.9251468706111752e-02  2.9176278805607875e-02  -4.6145869300756689e-02  5.5939632379923311e-03  2.9204122905590473e-02  8.9023808900003831e-02  -5.9243212657566983e-02  5.2308473063214178e-02  -4.7987465250909696e-02  1.6233563885129441e-02  -1.0152754484831930e-02  -1.7520472763317570e-03  -4.9494144372690526e-03  2.2146352648887146e-02  4.5512156963226268e-02  -8.2968702287750329e-02  -3.3854768736687815e-02  1.8488310727774085e-02  -3.0687579107401743e-02  -5.2106474673774376e-02  2.9758097961867049e-02  8.5737329542661611e-02  -5.1832100074638121e-02  -5.6524819628032772e-03  -1.8192533491341523e-02  2.2351992141323308e-02  1.4489568232825347e-02  -9.8278936428688509e-03  -2.5253037945150245e-03  8.7070958778740406e-05  8.6701159320214951e-04  8.5910943303998304e-04  4.3159315790753115e-04  1.6345102238459774e-03  -8.8528341650298537e-05  -2.4915416868803416e-03  -1.7995606076278922e-04  -1.6732619614533884e-03  -4.4956137970749278e-04  3.7871229265821434e-03  2.9862450928062247e-03  1.2138568393394444e-03  9.9738249171977406e-04  2.6146360198570068e-04  0.0000000000000000e+00  0.0000000000000000e+00  7.1731046976207273e-03  9.7328623064441688e-03  7.1998383171448964e-03  -5.8408482254852755e-03  4.1706318498176437e-02  1.7454764892280518e-02  -2.4880774932214762e-02  -2.1568309682567358e-02  1.9820032421480581e-03  5.4296329561899392e-02  3.0012351784134271e-02  -3.1636638714214099e-02  4.8307146368156112e-02  -1.1519012437832965e-02  5.9985151303865288e-02  -1.0475821947040488e-01  1.2255429853058546e-01  -2.5027260896054684e-02  -9.3176401463920436e-02  1.4215427318473117e-01  1.9100687694027337e-02  -1.4961952219433453e-01  -3.1525317324048403e-02  2.0822179568197322e-02  8.9718763415920170e-03  -8.3948777125328736e-02  1.1015982829701335e-01  -3.4033429251282034e-02  1.9621964105021553e-02  -3.4298953432589992e-02  -2.8085677170777306e-03  2.6670351747485124e-02  -4.6087610183645218e-04  -8.8507284056465393e-03  -6.7795827513923343e-04  -3.9176295890108834e-04  5.7643651691932727e-04  4.5422275036948985e-05  3.3434457399068504e-04  1.1589115655249236e-03  -2.3616588168973336e-03  -1.9388081997434277e-03  -1.0162588878760610e-03  -2.1229720685128836e-03  1.5742890348395019e-03  4.1269878896217161e-03  1.9103333006092098e-03  1.2385285961773180e-03  4.9030988638133939e-04  0.0000000000000000e+00  0.0000000000000000e+00  -1.2114153716874829e-02  6.7100840531037539e-04  1.2390848834587976e-02  1.0280369923460160e-02  9.0921392258135857e-03  -8.9139498303765757e-03  6.1370992596054365e-02  4.3575100549667886e-02  -6.3185046659420901e-02  -3.9292071571621050e-03  3.7744217073001532e-02  1.0600143880117367e-01  -8.7205716683129833e-02  2.8183678588045571e-02  -4.8966980327267026e-02  2.6978854958580108e-02  2.8454679100951809e-02  1.4508963568672170e-02  4.3742588079080595e-02  4.6484241352053556e-02  4.6754893014123812e-02  -6.5699546738592268e-02  -1.6585501621555733e-02  -2.1629946756434835e-02  -5.3768822061364394e-02  -6.4259323223595885e-02  5.9552303151212418e-02  8.4805098783748492e-02  -4.8502952099365761e-02  -2.0454244160765522e-02  -1.4629874699394129e-02  1.9252921875021527e-02  1.4390829597363564e-02  -8.2414218292140139e-03  -7.0984116060896010e-03  -1.4777414334917541e-03  -2.5100942784676069e-04  -5.7811097771758783e-04  -7.3095678974569923e-04  4.7287210394861306e-04  -1.3427850389229135e-03  -3.1421388955413729e-03  -1.9794089249492498e-03  -2.2830514922880241e-03  -1.2549106221648447e-03  3.1676400588337653e-03  3.2954443729015992e-03  1.4706619191116636e-03  7.9277256946419690e-04  0.0000000000000000e+00  0.0000000000000000e+00  4.2750140626769857e-03  7.2059257603874593e-04  -3.0549145821680218e-03  -6.2666244697032400e-03  -6.4198889060089600e-03  4.3257714995973806e-02  1.6059041017943133e-02  -1.7236119822102599e-02  2.1343716400666405e-02  5.3695014939553011e-02  6.2942156899414695e-02  3.8837070110653904e-02  -3.4819041778611899e-02  8.0103367045018720e-02  -6.0755146183292807e-02  2.9244336470195365e-02  -1.7050875516507746e-01  1.4007944421318241e-01  -1.7209552950521793e-02  -5.1227991868459125e-02  2.5862306706216492e-01  7.4266521095432886e-02  -9.5293218183907208e-02  4.8945336677248492e-02  8.6089099372077676e-02  2.5251949006343314e-02  -1.1800900015102837e-01  1.2807761731966272e-01  -4.1983700067587365e-02  4.5905578485431149e-02  -5.5806650401378381e-02  -5.1092883899925938e-03  1.6673299319921973e-02  3.2677076907074313e-03  -1.0066331104110385e-02  -4.7628444866473080e-03  -2.1248477055107007e-03  -8.7518103804988241e-04  -1.4653200192500891e-03  -1.2950265931039044e-03  -5.0330514991116855e-04  -3.7218731938774164e-03  -3.6093128122760450e-03  -2.7729189735370722e-03  -3.0685393471978342e-03  4.6955681926758941e-04  3.4755458416277588e-03  2.1647105286429274e-03  1.0804819616242369e-03  0.0000000000000000e+00  0.0000000000000000e+00  -1.7088710742837940e-02  -1.6768878761158207e-02  -1.4449837622614549e-03  1.5291560932397747e-02  -5.5263996604292733e-03  -7.0458397319942342e-03  -1.4933731614663418e-02  6.5893032461745937e-02  2.9225483208793663e-02  -8.8915773095435746e-02  3.9533999296364863e-02  1.2030756103615022e-01  1.8507503658209037e-01  -6.4461166341990311e-02  5.7550058394405329e-02  -1.8804813079926787e-02  1.8678585273708904e-02  -5.8364058843619997e-03  -8.5381470878555882e-02  5.0009972100009188e-02  1.2232738190125021e-01  2.2615627970509827e-01  7.6471985412129218e-01  3.4636132917017798e-01  2.2706188001724925e-01  2.8179887427813005e-01  6.8945961201661865e-01  2.5199050822276087e-01  1.3324466730077569e-01  -1.8919667756314450e-02  -7.2087335376493367e-03  3.0923725707448016e-04  2.7205998377826137e-02  1.0995088888547421e-02  -2.2263294257177874e-03  -9.3671882006964215e-03  -3.4142775152062560e-03  -1.5548355890935824e-03  -2.1133376268758575e-03  -1.9838851827427423e-03  -1.2003290434417786e-03  -3.2285976976644342e-03  -4.4536858313742791e-03  -4.6810026466442634e-03  -3.9215562527955142e-03  -2.7090580310927897e-03  1.6256513759291581e-03  2.5735029735570519e-03  1.3302978324813267e-03  0.0000000000000000e+00  0.0000000000000000e+00  -3.1101871865870266e-03  -1.2037571706149348e-02  -2.1386044970346390e-02  -2.2282031788632792e-02  -8.2752085444551433e-03  -1.7680212231537692e-03  3.6759264673727539e-02  -1.4666187139910382e-03  -3.3756969874818389e-02  2.5258725728619060e-02  4.1033207088682348e-02  1.7853146098719703e-03  2.6920400323847293e-02  2.3168762428647904e-02  2.2609623814125485e-01  2.8916950366596923e-02  1.3111705074383381e-01  -8.6840379333611301e-02  3.6991155496066375e-01  7.7217050706598012e-01  8.3674270765970271e-01  5.4641605941624116e-01  3.5131391936411371e-01  7.9216811102777851e-01  3.4942916724811390e-01  2.8008437272021219e-01  3.6285458437297036e-01  7.2262455908353207e-01  4.6651270360097319e-01  5.5311125932617955e-01  4.1795194290381821e-01  2.8574760790461309e-02  1.0013300239284546e-02  1.0052600239021603e-02  3.0071302840525517e-03  -8.1711446092680023e-03  -8.3472778560750634e-03  -2.9299432606994160e-03  -1.6671386781750336e-03  -2.5901157026398365e-03  -2.1673455914325871e-03  -1.9000038315496650e-03  -5.1722023167597104e-03  -4.9942655489783692e-03  -5.6432644256977135e-03  -4.6545838931153199e-03  -1.5220877040112914e-03  1.4699971999180667e-03  1.2277134320259858e-03  0.0000000000000000e+00  0.0000000000000000e+00  1.2254235007957054e-02  -2.7185006868583259e-03  -7.8255978811535738e-03  -8.3510971632407213e-03  -4.0182881264012038e-03  -3.5698648915314671e-02  -2.0376521735287517e-02  -1.4117107703009304e-02  7.3979084228366992e-02  3.0005647589746772e-03  -1.2435903788759768e-01  6.2549706714641579e-02  1.2965350589463470e-01  1.3788288932616169e-01  -1.7512301373940165e-01  6.3581725136194894e-02  1.6415333111939195e-01  5.7483674150437958e-01  3.6789763040653550e-01  3.5695828092662918e-01  4.3151906390207639e-01  6.1794236650478074e-01  5.8998450478937503e-01  6.2034594027432410e-01  6.5417620039520763e-01  3.9065676821792411e-01  3.8228591503340276e-01  5.5566067550909448e-01  5.9155500674953210e-01  4.8107014901875111e-01  6.6302627021505067e-01  5.8291930717260665e-01  2.1356682447868439e-02  4.6805912260809865e-02  7.1134486384852045e-03  1.8290606245328625e-03  -9.5667640557024515e-03  -6.5244335865625421e-03  -2.3098492881292653e-03  -2.8223283867330655e-03  -2.5663174341237441e-03  -1.7626596441934483e-03  -4.1928087112872783e-03  -4.9970973956272565e-03  -6.1911785899454209e-03  -5.8933553467064807e-03  -3.9751195230588983e-03  -4.6475495352929659e-04  5.3650268961112852e-04  0.0000000000000000e+00  0.