<?xml version="1.0"?>
<VTKFile type="UnstructuredGrid"  version="0.1"  >
<UnstructuredGrid>
<Piece  NumberOfPoints="2601" NumberOfCells="5000">
<Points>
<DataArray  type="Float64"  NumberOfComponents="3"  format="ascii">0 0 0  0.02 0 0  0.04 0 0  0.06 0 0  0.08 0 0  0.1 0 0  0.12 0 0  0.14 0 0  0.16 0 0  0.18 0 0  0.2 0 0  0.22 0 0  0.24 0 0  0.26 0 0  0.28 0 0  0.3 0 0  0.32 0 0  0.34 0 0  0.36 0 0  0.38 0 0  0.4 0 0  0.42 0 0  0.44 0 0  0.46 0 0  0.48 0 0  0.5 0 0  0.52 0 0  0.54 0 0  0.5600000000000001 0 0  0.58 0 0  0.6 0 0  0.62 0 0  0.64 0 0  0.66 0 0  0.68 0 0  0.7 0 0  0.72 0 0  0.74 0 0  0.76 0 0  0.78 0 0  0.8 0 0  0.82 0 0  0.84 0 0  0.86 0 0  0.88 0 0  0.9 0 0  0.92 0 0  0.9399999999999999 0 0  0.96 0 0  0.98 0 0  1 0 0  0 0.02 0  0.02 0.02 0  0.04 0.02 0  0.06 0.02 0  0.08 0.02 0  0.1 0.02 0  0.12 0.02 0  0.14 0.02 0  0.16 0.02 0  0.18 0.02 0  0.2 0.02 0  0.22 0.02 0  0.24 0.02 0  0.26 0.02 0  0.28 0.02 0  0.3 0.02 0  0.32 0.02 0  0.34 0.02 0  0.36 0.02 0  0.38 0.02 0  0.4 0.02 0  0.42 0.02 0  0.44 0.02 0  0.46 0.02 0  0.48 0.02 0  0.5 0.02 0  0.52 0.02 0  0.54 0.02 0  0.5600000000000001 0.02 0  0.58 0.02 0  0.6 0.02 0  0.62 0.02 0  0.64 0.02 0  0.66 0.02 0  0.68 0.02 0  0.7 0.02 0  0.72 0.02 0  0.74 0.02 0  0.76 0.02 0  0.78 0.02 0  0.8 0.02 0  0.82 0.02 0  0.84 0.02 0  0.86 0.02 0  0.88 0.02 0  0.9 0.02 0  0.92 0.02 0  0.9399999999999999 0.02 0  0.96 0.02 0  0.98 0.02 0  1 0.02 0  0 0.04 0  0.02 0.04 0  0.04 0.04 0  0.06 0.04 0  0.08 0.04 0  0.1 0.04 0  0.12 0.04 0  0.14 0.04 0  0.16 0.04 0  0.18 0.04 0  0.2 0.04 0  0.22 0.04 0  0.24 0.04 0  0.26 0.04 0  0.28 0.04 0  0.3 0.04 0  0.32 0.04 0  0.34 0.04 0  0.36 0.04 0  0.38 0.04 0  0.4 0.04 0  0.42 0.04 0  0.44 0.04 0  0.46 0.04 0  0.48 0.04 0  0.5 0.04 0  0.52 0.04 0  0.54 0.04 0  0.5600000000000001 0.04 0  0.58 0.04 0  0.6 0.04 0  0.62 0.04 0  0.64 0.04 0  0.66 0.04 0  0.68 0.04 0  0.7 0.04 0  0.72 0.04 0  0.74 0.04 0  0.76 0.04 0  0.78 0.04 0  0.8 0.04 0  0.82 0.04 0  0.84 0.04 0  0.86 0.04 0  0.88 0.04 0  0.9 0.04 0  0.92 0.04 0  0.9399999999999999 0.04 0  0.96 0.04 0  0.98 0.04 0  1 0.04 0  0 0.06 0  0.02 0.06 0  0.04 0.06 0  0.06 0.06 0  0.08 0.06 0  0.1 0.06 0  0.12 0.06 0  0.14 0.06 0  0.16 0.06 0  0.18 0.06 0  0.2 0.06 0  0.22 0.06 0  0.24 0.06 0  0.26 0.06 0  0.28 0.06 0  0.3 0.06 0  0.32 0.06 0  0.34 0.06 0  0.36 0.06 0  0.38 0.06 0  0.4 0.06 0  0.42 0.06 0  0.44 0.06 0  0.46 0.06 0  0.48 0.06 0  0.5 0.06 0  0.52 0.06 0  0.54 0.06 0  0.5600000000000001 0.06 0  0.58 0.06 0  0.6 0.06 0  0.62 0.06 0  0.64 0.06 0  0.66 0.06 0  0.68 0.06 0  0.7 0.06 0  0.72 0.06 0  0.74 0.06 0  0.76 0.06 0  0.78 0.06 0  0.8 0.06 0  0.82 0.06 0  0.84 0.06 0  0.86 0.06 0  0.88 0.06 0  0.9 0.06 0  0.92 0.06 0  0.9399999999999999 0.06 0  0.96 0.06 0  0.98 0.06 0  1 0.06 0  0 0.08 0  0.02 0.08 0  0.04 0.08 0  0.06 0.08 0  0.08 0.08 0  0.1 0.08 0  0.12 0.08 0  0.14 0.08 0  0.16 0.08 0  0.18 0.08 0  0.2 0.08 0  0.22 0.08 0  0.24 0.08 0  0.26 0.08 0  0.28 0.08 0  0.3 0.08 0  0.32 0.08 0  0.34 0.08 0  0.36 0.08 0  0.38 0.08 0  0.4 0.08 0  0.42 0.08 0  0.44 0.08 0  0.46 0.08 0  0.48 0.08 0  0.5 0.08 0  0.52 0.08 0  0.54 0.08 0  0.5600000000000001 0.08 0  0.58 0.08 0  0.6 0.08 0  0.62 0.08 0  0.64 0.08 0  0.66 0.08 0  0.68 0.08 0  0.7 0.08 0  0.72 0.08 0  0.74 0.08 0  0.76 0.08 0  0.78 0.08 0  0.8 0.08 0  0.82 0.08 0  0.84 0.08 0  0.86 0.08 0  0.88 0.08 0  0.9 0.08 0  0.92 0.08 0  0.9399999999999999 0.08 0  0.96 0.08 0  0.98 0.08 0  1 0.08 0  0 0.1 0  0.02 0.1 0  0.04 0.1 0  0.06 0.1 0  0.08 0.1 0  0.1 0.1 0  0.12 0.1 0  0.14 0.1 0  0.16 0.1 0  0.18 0.1 0  0.2 0.1 0  0.22 0.1 0  0.24 0.1 0  0.26 0.1 0  0.28 0.1 0  0.3 0.1 0  0.32 0.1 0  0.34 0.1 0  0.36 0.1 0  0.38 0.1 0  0.4 0.1 0  0.42 0.1 0  0.44 0.1 0  0.46 0.1 0  0.48 0.1 0  0.5 0.1 0  0.52 0.1 0  0.54 0.1 0  0.5600000000000001 0.1 0  0.58 0.1 0  0.6 0.1 0  0.62 0.1 0  0.64 0.1 0  0.66 0.1 0  0.68 0.1 0  0.7 0.1 0  0.72 0.1 0  0.74 0.1 0  0.76 0.1 0  0.78 0.1 0  0.8 0.1 0  0.82 0.1 0  0.84 0.1 0  0.86 0.1 0  0.88 0.1 0  0.9 0.1 0  0.92 0.1 0  0.9399999999999999 0.1 0  0.96 0.1 0  0.98 0.1 0  1 0.1 0  0 0.12 0  0.02 0.12 0  0.04 0.12 0  0.06 0.12 0  0.08 0.12 0  0.1 0.12 0  0.12 0.12 0  0.14 0.12 0  0.16 0.12 0  0.18 0.12 0  0.2 0.12 0  0.22 0.12 0  0.24 0.12 0  0.26 0.12 0  0.28 0.12 0  0.3 0.12 0  0.32 0.12 0  0.34 0.12 0  0.36 0.12 0  0.38 0.12 0  0.4 0.12 0  0.42 0.12 0  0.44 0.12 0  0.46 0.12 0  0.48 0.12 0  0.5 0.12 0  0.52 0.12 0  0.54 0.12 0  0.5600000000000001 0.12 0  0.58 0.12 0  0.6 0.12 0  0.62 0.12 0  0.64 0.12 0  0.66 0.12 0  0.68 0.12 0  0.7 0.12 0  0.72 0.12 0  0.74 0.12 0  0.76 0.12 0  0.78 0.12 0  0.8 0.12 0  0.82 0.12 0  0.84 0.12 0  0.86 0.12 0  0.88 0.12 0  0.9 0.12 0  0.92 0.12 0  0.9399999999999999 0.12 0  0.96 0.12 0  0.98 0.12 0  1 0.12 0  0 0.14 0  0.02 0.14 0  0.04 0.14 0  0.06 0.14 0  0.08 0.14 0  0.1 0.14 0  0.12 0.14 0  0.14 0.14 0  0.16 0.14 0  0.18 0.14 0  0.2 0.14 0  0.22 0.14 0  0.24 0.14 0  0.26 0.14 0  0.28 0.14 0  0.3 0.14 0  0.32 0.14 0  0.34 0.14 0  0.36 0.14 0  0.38 0.14 0  0.4 0.14 0  0.42 0.14 0  0.44 0.14 0  0.46 0.14 0  0.48 0.14 0  0.5 0.14 0  0.52 0.14 0  0.54 0.14 0  0.5600000000000001 0.14 0  0.58 0.14 0  0.6 0.14 0  0.62 0.14 0  0.64 0.14 0  0.66 0.14 0  0.68 0.14 0  0.7 0.14 0  0.72 0.14 0  0.74 0.14 0  0.76 0.14 0  0.78 0.14 0  0.8 0.14 0  0.82 0.14 0  0.84 0.14 0  0.86 0.14 0  0.88 0.14 0  0.9 0.14 0  0.92 0.14 0  0.9399999999999999 0.14 0  0.96 0.14 0  0.98 0.14 0  1 0.14 0  0 0.16 0  0.02 0.16 0  0.04 0.16 0  0.06 0.16 0  0.08 0.16 0  0.1 0.16 0  0.12 0.16 0  0.14 0.16 0  0.16 0.16 0  0.18 0.16 0  0.2 0.16 0  0.22 0.16 0  0.24 0.16 0  0.26 0.16 0  0.28 0.16 0  0.3 0.16 0  0.32 0.16 0  0.34 0.16 0  0.36 0.16 0  0.38 0.16 0  0.4 0.16 0  0.42 0.16 0  0.44 0.16 0  0.46 0.16 0  0.48 0.16 0  0.5 0.16 0  0.52 0.16 0  0.54 0.16 0  0.5600000000000001 0.16 0  0.58 0.16 0  0.6 0.16 0  0.62 0.16 0  0.64 0.16 0  0.66 0.16 0  0.68 0.16 0  0.7 0.16 0  0.72 0.16 0  0.74 0.16 0  0.76 0.16 0  0.78 0.16 0  0.8 0.16 0  0.82 0.16 0  0.84 0.16 0  0.86 0.16 0  0.88 0.16 0  0.9 0.16 0  0.92 0.16 0  0.9399999999999999 0.16 0  0.96 0.16 0  0.98 0.16 0  1 0.16 0  0 0.18 0  0.02 0.18 0  0.04 0.18 0  0.06 0.18 0  0.08 0.18 0  0.1 0.18 0  0.12 0.18 0  0.14 0.18 0  0.16 0.18 0  0.18 0.18 0  0.2 0.18 0  0.22 0.18 0  0.24 0.18 0  0.26 0.18 0  0.28 0.18 0  0.3 0.18 0  0.32 0.18 0  0.34 0.18 0  0.36 0.18 0  0.38 0.18 0  0.4 0.18 0  0.42 0.18 0  0.44 0.18 0  0.46 0.18 0  0.48 0.18 0  0.5 0.18 0  0.52 0.18 0  0.54 0.18 0  0.5600000000000001 0.18 0  0.58 0.18 0  0.6 0.18 0  0.62 0.18 0  0.64 0.18 0  0.66 0.18 0  0.68 0.18 0  0.7 0.18 0  0.72 0.18 0  0.74 0.18 0  0.76 0.18 0  0.78 0.18 0  0.8 0.18 0  0.82 0.18 0  0.84 0.18 0  0.86 0.18 0  0.88 0.18 0  0.9 0.18 0  0.92 0.18 0  0.9399999999999999 0.18 0  0.96 0.18 0  0.98 0.18 0  1 0.18 0  0 0.2 0  0.02 0.2 0  0.04 0.2 0  0.06 0.2 0  0.08 0.2 0  0.1 0.2 0  0.12 0.2 0  0.14 0.2 0  0.16 0.2 0  0.18 0.2 0  0.2 0.2 0  0.22 0.2 0  0.24 0.2 0  0.26 0.2 0  0.28 0.2 0  0.3 0.2 0  0.32 0.2 0  0.34 0.2 0  0.36 0.2 0  0.38 0.2 0  0.4 0.2 0  0.42 0.2 0  0.44 0.2 0  0.46 0.2 0  0.48 0.2 0  0.5 0.2 0  0.52 0.2 0  0.54 0.2 0  0.5600000000000001 0.2 0  0.58 0.2 0  0.6 0.2 0  0.62 0.2 0  0.64 0.2 0  0.66 0.2 0  0.68 0.2 0  0.7 0.2 0  0.72 0.2 0  0.74 0.2 0  0.76 0.2 0  0.78 0.2 0  0.8 0.2 0  0.82 0.2 0  0.84 0.2 0  0.86 0.2 0  0.88 0.2 0  0.9 0.2 0  0.92 0.2 0  0.9399999999999999 0.2 0  0.96 0.2 0  0.98 0.2 0  1 0.2 0  0 0.22 0  0.02 0.22 0  0.04 0.22 0  0.06 0.22 0  0.08 0.22 0  0.1 0.22 0  0.12 0.22 0  0.14 0.22 0  0.16 0.22 0  0.18 0.22 0  0.2 0.22 0  0.22 0.22 0  0.24 0.22 0  0.26 0.22 0  0.28 0.22 0  0.3 0.22 0  0.32 0.22 0  0.34 0.22 0  0.36 0.22 0  0.38 0.22 0  0.4 0.22 0  0.42 0.22 0  0.44 0.22 0  0.46 0.22 0  0.48 0.22 0  0.5 0.22 0  0.52 0.22 0  0.54 0.22 0  0.5600000000000001 0.22 0  0.58 0.22 0  0.6 0.22 0  0.62 0.22 0  0.64 0.22 0  0.66 0.22 0  0.68 0.22 0  0.7 0.22 0  0.72 0.22 0  0.74 0.22 0  0.76 0.22 0  0.78 0.22 0  0.8 0.22 0  0.82 0.22 0  0.84 0.22 0  0.86 0.22 0  0.88 0.22 0  0.9 0.22 0  0.92 0.22 0  0.9399999999999999 0.22 0  0.96 0.22 0  0.98 0.22 0  1 0.22 0  0 0.24 0  0.02 0.24 0  0.04 0.24 0  0.06 0.24 0  0.08 0.24 0  0.1 0.24 0  0.12 0.24 0  0.14 0.24 0  0.16 0.24 0  0.18 0.24 0  0.2 0.24 0  0.22 0.24 0  0.24 0.24 0  0.26 0.24 0  0.28 0.24 0  0.3 0.24 0  0.32 0.24 0  0.34 0.24 0  0.36 0.24 0  0.38 0.24 0  0.4 0.24 0  0.42 0.24 0  0.44 0.24 0  0.46 0.24 0  0.48 0.24 0  0.5 0.24 0  0.52 0.24 0  0.54 0.24 0  0.5600000000000001 0.24 0  0.58 0.24 0  0.6 0.24 0  0.62 0.24 0  0.64 0.24 0  0.66 0.24 0  0.68 0.24 0  0.7 0.24 0  0.72 0.24 0  0.74 0.24 0  0.76 0.24 0  0.78 0.24 0  0.8 0.24 0  0.82 0.24 0  0.84 0.24 0  0.86 0.24 0  0.88 0.24 0  0.9 0.24 0  0.92 0.24 0  0.9399999999999999 0.24 0  0.96 0.24 0  0.98 0.24 0  1 0.24 0  0 0.26 0  0.02 0.26 0  0.04 0.26 0  0.06 0.26 0  0.08 0.26 0  0.1 0.26 0  0.12 0.26 0  0.14 0.26 0  0.16 0.26 0  0.18 0.26 0  0.2 0.26 0  0.22 0.26 0  0.24 0.26 0  0.26 0.26 0  0.28 0.26 0  0.3 0.26 0  0.32 0.26 0  0.34 0.26 0  0.36 0.26 0  0.38 0.26 0  0.4 0.26 0  0.42 0.26 0  0.44 0.26 0  0.46 0.26 0  0.48 0.26 0  0.5 0.26 0  0.52 0.26 0  0.54 0.26 0  0.5600000000000001 0.26 0  0.58 0.26 0  0.6 0.26 0  0.62 0.26 0  0.64 0.26 0  0.66 0.26 0  0.68 0.26 0  0.7 0.26 0  0.72 0.26 0  0.74 0.26 0  0.76 0.26 0  0.78 0.26 0  0.8 0.26 0  0.82 0.26 0  0.84 0.26 0  0.86 0.26 0  0.88 0.26 0  0.9 0.26 0  0.92 0.26 0  0.9399999999999999 0.26 0  0.96 0.26 0  0.98 0.26 0  1 0.26 0  0 0.28 0  0.02 0.28 0  0.04 0.28 0  0.06 0.28 0  0.08 0.28 0  0.1 0.28 0  0.12 0.28 0  0.14 0.28 0  0.16 0.28 0  0.18 0.28 0  0.2 0.28 0  0.22 0.28 0  0.24 0.28 0  0.26 0.28 0  0.28 0.28 0  0.3 0.28 0  0.32 0.28 0  0.34 0.28 0  0.36 0.28 0  0.38 0.28 0  0.4 0.28 0  0.42 0.28 0  0.44 0.28 0  0.46 0.28 0  0.48 0.28 0  0.5 0.28 0  0.52 0.28 0  0.54 0.28 0  0.5600000000000001 0.28 0  0.58 0.28 0  0.6 0.28 0  0.62 0.28 0  0.64 0.28 0  0.66 0.28 0  0.68 0.28 0  0.7 0.28 0  0.72 0.28 0  0.74 0.28 0  0.76 0.28 0  0.78 0.28 0  0.8 0.28 0  0.82 0.28 0  0.84 0.28 0  0.86 0.28
[...]
<PointData  Scalars="Indicator Function"> 
<DataArray  type="Float64"  Name="Indicator Function"  format="ascii">-1.0212107172768623e-37  1.2153858046944384e-21  -2.1004862005789511e-21  4.2532995355224977e-20  1.8943952266754487e-19  -5.6423728839469800e-37  -9.0011855099360920e-22  1.4193585469680267e-19  2.8561736530342113e-20  -9.1243403853528306e-22  2.9890174816727771e-19  8.0249232102564328e-20  -1.9920882582740411e-21  -1.9976223150053513e-21  2.6649964897720465e-19  -2.8536043472223256e-21  -8.4496510580897168e-21  2.8218659906285376e-19  -7.9832683574905304e-22  -5.9300762666325165e-22  -1.0969454997593665e-20  -8.5690227260850657e-21  -4.3581511531637889e-21  1.5552206980213495e-19  -1.6885105634985360e-21  -1.3542010600864396e-21  -1.0644225220157290e-21  -6.0517983488079747e-22  2.9997377270661416e-20  0.0000000000000000e+00  -1.4693679385278594e-38  0.0000000000000000e+00  -4.4081038155835782e-39  -4.4081038155835782e-39  2.6331073458419240e-36  0.0000000000000000e+00  -1.4693679385278594e-39  -8.8162076311671563e-39  0.0000000000000000e+00  -1.9101783200862172e-38  1.0906859028961306e-21  -1.4693679385278594e-39  -1.4693679385278594e-39  -7.3468396926392969e-40  -2.2040519077917891e-39  6.0611427464274200e-39  2.2569491535787920e-36  0.0000000000000000e+00  -4.5917748078995606e-40  0.0000000000000000e+00  7.3468396926392969e-40  0.0000000000000000e+00  1.5619710820883188e-06  1.1040645224625842e-05  1.2697521102461302e-05  2.1067807851902998e-05  5.3026073470776479e-06  2.5620918047892249e-05  2.4844860975251059e-05  3.3620665921573109e-06  3.2873900767580935e-05  3.0480285426294602e-05  5.8084968675416953e-05  7.1772543501216868e-05  6.1482672193617830e-05  5.2446283571314578e-06  1.0281193179850632e-04  8.5772246897934773e-05  1.0932925797752698e-04  8.1065244708369976e-06  1.4381377759997210e-05  3.4919868258753414e-06  5.1889174710434087e-06  1.5701894327530279e-04  5.3714970396059048e-05  1.1982558155030617e-05  2.4426223100817300e-05  1.2182006007951419e-05  1.9174931494059200e-05  3.6528292198502604e-06  1.5973380937398527e-06  9.3199740938658018e-07  7.5075934346615461e-07  6.4310282036760276e-07  5.6021434971468671e-07  4.9864898852424798e-07  4.4021520136711977e-07  3.8634180141450089e-07  3.5284322571197553e-07  3.2467776121253973e-07  3.0756540320821938e-07  3.0526763611409553e-07  2.8853206266710533e-07  2.0238664110653461e-07  1.5210343178441288e-07  1.4730430651793122e-07  1.3379775807877379e-07  1.0922050251325460e-07  8.0983594208357349e-08  5.1816117478422393e-08  2.3598091315608572e-08  -5.4845923922844963e-26  -7.6407132803448688e-38  2.4425712191748161e-07  4.6706645698050858e-07  2.2332586916951596e-05  2.9303256292659760e-05  5.1724288585828467e-05  5.5958307044017302e-05  2.6285113234043266e-05  2.4424007365716732e-05  4.0678962006916509e-05  6.3214759963972565e-05  4.0105844115745512e-05  5.6017123207548868e-05  8.5828473874676402e-05  1.2389601794464294e-04  1.0298103669341447e-04  7.7540262453003862e-05  2.2906692668713135e-04  5.9269592054567764e-05  7.4692360312049086e-06  2.8945608374434544e-05  9.4458823992858946e-06  1.3285218672351155e-04  1.0268750850825184e-04  7.6567453650428787e-05  3.9013770214943589e-05  4.2049532482628625e-05  1.9402057848590411e-05  1.4788585301550655e-05  3.3109363695316246e-06  9.0717941077256343e-07  1.1563372391318523e-06  8.6211953283360471e-07  7.3374435248541797e-07  6.4047543064718957e-07  5.5979867175831087e-07  4.7865569717756286e-07  4.2035111844534950e-07  3.8333096518731852e-07  3.5692074465065275e-07  3.4750879141268962e-07  3.6163286988006154e-07  2.9160829539953905e-07  1.7950942204860931e-07  1.6314324456139523e-07  1.6661428644244887e-07  1.4767814134482811e-07  1.1835147725585810e-07  8.4443423492681289e-08  4.5810692790167126e-08  1.1443519329676476e-23  -2.2816746704030183e-22  6.6974553100038376e-06  7.0513742411994383e-07  1.7961061863900250e-05  2.0609594319879953e-05  5.2278827027208330e-05  3.2031233716429828e-05  3.8222030379825365e-05  6.1687135811656579e-05  2.0800218427829644e-05  5.3132371282088596e-05  5.4955371491964657e-05  1.0248114972842230e-04  1.3357233403622131e-04  1.1019588898732410e-04  1.6961518452336908e-05  1.9825573361303091e-04  1.4501249478842109e-04  2.0430290525867643e-04  4.1948260719051058e-06  2.8512682699390686e-05  1.2109996137699866e-05  3.5520839818880582e-06  2.9633994821745671e-04  1.1148135807148204e-04  1.9362326315336292e-05  4.2934332417045441e-05  2.5097358315498095e-05  3.8099030629579177e-05  5.1055277631039476e-06  2.1335690077922398e-06  1.2286769344018599e-06  1.0455706767212620e-06  8.8484679411025786e-07  7.4330003537985570e-07  6.3652190160406133e-07  5.3701816576677037e-07  4.4754359432813237e-07  3.9934894404522030e-07  3.6213352145278632e-07  3.4691911786369897e-07  3.6054380322126565e-07  3.5654816184639614e-07  2.2156548676023605e-07  1.5269283704578972e-07  1.7156862923151006e-07  1.7137149984977087e-07  1.4886569789662505e-07  1.1640771193064930e-07  7.1482638579426946e-08  -9.9202089014797759e-24  1.6456920911512025e-37  4.1269780808707572e-06  7.2167642131277181e-07  1.5723454185179418e-06  3.3968435479533535e-05  3.7756021646487448e-05  6.5951931820286492e-05  9.1915793867172415e-05  5.5763343615015613e-05  3.3568171124714951e-05  6.9726251912537559e-05  9.3800452374213830e-05  5.9034326121009772e-05  8.4696608321100202e-05  1.3105866252967490e-04  1.8535143460739629e-04  1.5610026028550444e-04  1.1398109660490233e-04  3.3702643714504914e-04  7.5566210733755168e-05  1.8498126764555390e-05  4.4608012478026828e-05  1.4737034523428244e-05  1.8877839713391591e-04  1.4442213410881865e-04  1.1969420814004003e-04  5.6433306840072813e-05  6.0006900834822760e-05  3.1008288467520038e-05  2.1304712135015906e-05  4.3898809303210223e-06  9.7467537207209265e-07  1.5526668684571698e-06  1.1508988255056248e-06  9.3544225146357767e-07  7.7689343264344850e-07  6.4446946191746660e-07  5.1941699112321774e-07  4.3520342499929788e-07  3.8736587776768336e-07  3.5819706506614254e-07  3.5765400784547192e-07  3.9457756930324859e-07  3.0962979523988873e-07  1.6746966821617736e-07  1.6824971457084074e-07  1.9481274531423478e-07  1.8547020380291349e-07  1.5586524976562909e-07  1.0371279570776928e-07  2.5907475092177365e-23  9.4039548065783001e-38  9.4852853308625936e-07  9.9270851052122926e-06  2.1277688780719936e-07  2.5302369737138407e-05  1.8239291788379878e-05  6.5496387472628253e-05  5.3018509220934963e-05  4.7389266966470743e-05  1.0401496596322589e-04  3.7822317667474992e-05  8.3938138468708364e-05  8.7145413538754449e-05  1.4117104859434851e-04  1.9376397335250134e-04  1.7028175635785985e-04  3.6203615734710146e-06  2.7155172842606711e-04  2.1387141179387865e-04  2.6345747801647155e-04  3.0822945871374400e-07  4.3725088039605620e-05  2.3805507984535258e-05  1.4686602277661344e-06  4.0125510337970773e-04  1.7279957404999031e-04  3.2359581604833541e-05  5.5520593467504188e-05  2.8596234253920791e-05  5.3378062093028740e-05  7.2595237957082743e-06  3.1258299446085326e-06  2.1761311940775561e-06  1.6831182546925072e-06  1.3554668292043819e-06  1.0735177313659147e-06  8.5855211496232193e-07  6.7650902905641466e-07  5.2905736439994478e-07  4.5180665155109583e-07  3.9824686644272524e-07  3.8211265979282107e-07  4.1149273485784051e-07  4.1383259889908735e-07  2.4185993237509926e-07  1.7086321736506589e-07  2.1498481090572393e-07  2.2811570602087975e-07  2.0352647518478238e-07  1.4257276239794209e-07  -7.9143781749303628e-24  -8.4125513440502253e-23  8.7267062938507765e-06  4.2429448261545440e-06  1.1261835811918851e-06  2.7804370659915755e-06  4.6196814360406267e-05  5.5494951442852178e-05  8.0055265179098994e-05  1.3144754566659684e-04  9.4639875605858517e-05  5.0899965216338816e-05  1.1781159943783596e-04  1.1711849743358660e-04  5.7527154195187400e-05  9.3805067201574872e-05  1.5974854831389990e-04  2.3365427250295821e-04  2.2646118587140064e-04  1.2675167181710857e-04  4.5005384736742315e-04  7.7215928810126343e-05  3.3659526320795355e-05  6.2944181230123057e-05  2.3836438772163890e-05  2.6647182760170142e-04  1.4951946398596939e-04  1.4965687577805760e-04  6.7066048203955541e-05  7.5499768955240374e-05  5.1275741352036664e-05  2.7623448873570623e-05  8.3809831579037093e-06  2.7215704348065999e-06  3.0795121121445608e-06  2.2617245942493863e-06  1.6827122049001576e-06  1.2765642976747964e-06  9.7291450489496265e-07  7.2758667456671509e-07  5.7225867233122410e-07  4.8470800535077119e-07  4.3743290099896917e-07  4.3866585414895974e-07  4.9271472653275886e-07  3.7801806387809656e-07  2.0722481356880802e-07  2.2813123632748658e-07  2.7189525779338558e-07  2.5793833301386390e-07  1.8717832709871227e-07  -1.0390484422790463e-23  6.7590925172281532e-38  9.3021014311181772e-06  1.5233177022624473e-07  1.8596317847315284e-05  1.0744242225401849e-06  3.9528952295827411e-05  1.4607785906736967e-05  7.1673406895395324e-05  6.7756342276395777e-05  5.2248342853552791e-05  1.7470458476223749e-04  7.3650759860166516e-05  1.4306069717035761e-04  1.5388521551021230e-04  1.8921470782708009e-04  2.8468962258024297e-04  2.6932943124966885e-04  4.3241074168432831e-05  3.6058191269605584e-04  3.1860768269887171e-04  3.0779755360506105e-04  1.4209591547207833e-05  7.3733711498647183e-05  4.8622064434611214e-05  7.3573099930225760e-06  5.1571783835524217e-04  2.7809853568179027e-04  5.1976843570312567e-05  5.9714085689498531e-05  1.8769357634009839e-05  7.6821698761669500e-05  1.4329778183183602e-05  7.6719925386105687e-06  6.0151092209561810e-06  4.1029457566532044e-06  2.9642663105567964e-06  2.1290997846400614e-06  1.5383592982672665e-06  1.1049260184657768e-06  7.9934288618968535e-07  6.3640117873242112e-07  5.3380977391969605e-07  5.0108967561207531e-07  5.4116750935303368e-07  5.3678829791732037e-07  3.1239433759263361e-07  2.4238492222884638e-07  3.0850467929576418e-07  3.1609893391197097e-07  2.3673449896161444e-07  -3.2853511433785516e-23  -2.9442446243666945e-22  5.9127780495202983e-06  7.6623637138905794e-06  1.3459181775947628e-05  1.1511880563259071e-06  1.0087394885582685e-05  5.6951918868951174e-05  8.0480582051050168e-05  1.0988413227515863e-04  1.7089525511967233e-04  1.5722407315136612e-04  5.7957541373286967e-05  2.1966210610103193e-04  1.4672283808045885e-04  2.8332740365503939e-05  8.8322932067930337e-05  1.9740379099663993e-04  2.6913132257948421e-04  3.3426265534553033e-04  1.3534078549347754e-04  5.7547012183577098e-04  4.2721274008877389e-05  8.1207287617469348e-05  1.1477344462884056e-04  6.6224930458133415e-05  3.4428777955196484e-04  9.5689793197561898e-05  2.0237809465577282e-04  5.0353671568432894e-05  7.3498677305734562e-05  9.7685528384334127e-05  4.5087248322368748e-05  2.2535022302251104e-05  1.0728864952970384e-05  8.5321845283955212e-06  5.8721845148216785e-06  3.9374062620528945e-06  2.6600181393105081e-06  1.8143582150037527e-06  1.2355881018682640e-06  8.9378653644845947e-07  7.0371895350468941e-07  6.0728706901658532e-07  5.9773259773637031e-07  6.6379990104905736e-07  4.9775888775099727e-07  2.9024756607356148e-07  3.3144147710793515e-07  3.7219372666735065e-07  2.9000949687243670e-07  8.0493805196932005e-24  -1.9395656788567744e-37  9.0620962012287075e-06  1.2415039971819471e-05  5.3944384132736652e-06  2.5224088255936228e-05  1.4314752255527706e-05  6.4781851905511821e-05  1.0147482447745649e-06  8.8539468381547930e-05  6.8346314280767059e-05  5.6961439856078331e-05  2.5164533695208461e-04  1.7293829172892035e-04  2.3010947856616935e-04  3.0712116041129421e-04  2.1802219644974764e-04  4.1887131587863870e-04  4.1256523527192688e-04  1.5224850840567998e-04  5.1289901048390274e-04  4.2227647694129523e-04  2.8601815875182215e-04  1.0709018985853367e-04  2.0130284147071474e-04  1.7489187174907003e-04  6.7619810834828361e-05  5.7004750141949063e-04  5.1336479226167422e-04  1.5712892735772762e-05  7.7558112045214292e-06  4.3298748044938971e-05  1.3707319596879453e-04  4.4440320312749057e-05  2.6602141414353904e-05  1.9510115344861596e-05  1.2207959761369072e-05  7.7879051732586538e-06  4.9765424767391447e-06  3.2034061188184478e-06  2.0696850288686532e-06  1.3660927009231885e-06  9.9514067895003573e-07  7.8121979431312918e-07  7.0485787847577968e-07  7.4828315556567569e-07  7.2181220964686471e-07  4.2207992605704658e-07  3.4930870423833766e-07  4.1715155885108578e-07  3.4463307345308260e-07  -1.9130978659747270e-23  -3.7241453524939356e-22  4.4815103766297281e-06  5.5901136151703282e-06  1.3620029394838086e-07  2.7042188707462542e-05  3.0476132090423896e-06  1.7830176857478360e-05  8.5883146355442635e-05  9.3429542253404169e-05  1.5956596424924801e-04  2.3403515097850089e-04  2.0694610626416853e-04  1.5307617030139257e-05  3.7251912240194733e-04  2.6185040067557979e-04  9.0791663203008196e-05  2.8698694985600884e-05  3.2859627572653282e-04  1.9580781217034957e-04  5.7449307078344381e-04  2.4677824659070821e-04  5.7348741179180597e-04  2.1179540172045123e-04  3.7678892065580027e-04  4.3458821213170317e-04  3.8371079426610254e-04  1.9790469746957227e-04  2.3073357440090691e-04  4.4555917315533636e-04  1.3224278656806803e-04  4.3421683908224842e-05  2.4000617825457274e-04  1.1791272308177068e-04  7.4503172978723997e-05  4.0965449497409717e-05  2.6352270242664527e-05  1.6419332216302041e-05  9.9547642936083636e-06  6.0173781530349943e-06  3.6718072779578864e-06  2.2670640106000504e-06  1.4976727675564887e-06  1.0875040729314410e-06  8.8825905352100398e-07  8.4706004412578960e-07  9.1586787755859211e-07  6.6724425718536318e-07  4.0426769421139058e-07  4.4352563328791173e-07  3.9569552196572353e-07  -5.4913784903426842e-23  -2.7036370068912613e-37  8.0260200639135898e-06  1.2767313771222354e-05  7.6758574453614173e-06  1.8417752583428776e-05  2.8784272278548003e-05  4.1662409691514331e-05  9.6774565282868100e-05  3.4462273768980111e-05  9.3241163187862526e-05  9.7706735513014022e-05  1.0960394926714956e-04  3.2883473700700926e-04  2.9098457195471866e-04  2.2132173441503621e-04  6.7641522132753972e-04  2.4569134810718807e-04  5.1907277787936875e-04  6.0976136344273967e-04  5.1847778928819236e-04  1.0717913961579718e-03  8.9780297893441412e-05  3.4099308213277914e-04  8.8127862591115666e-04  1.0772491218539709e-03  1.0600765614768143e-03  8.3964243620980800e-04  6.1986509749697696e-06  1.3623266802360950e-03  4.3733392965175096e-04  3.5633936623126055e-04  3.3525698442363059e-04  3.4286828954086922e-04  1.6136200499000737e-04  9.4101398481552794e-05  6.1313151844156552e-05  3.5617217596739138e-05  2.0395109415901097e-05  1.1680473322550982e-05  6.7694747561308196e-06  3.9848196449092366e-06  2.4312658662498671e-06  1.6401279447473322e-06  1.2118675387585372e-06  1.0445866418679928e-06  1.0723421336826661e-06  9.9207517321841109e-07  5.7352911851775350e-07  4.6411248832207185e-07  4.3579766583563058e-07  1.2095815067215004e-23  -2.8233686046070576e-22  1.0680125435043480e-06  2.4884905383030165e-06  3.9585404128645267e-06  1.7049678793565229e-05  3.5309309483558345e-05  2.9107716269495671e-05  3.4451109802936721e-05  1.3373636851210464e-04  1.0589356782480758e-04  2.0830758256724200e-04  3.3008360245593687e-04  2.8945019669595864e-04  1.4069533983040906e-05  4.8595955043565105e-04  4.7775383717099348e-04  7.3013133516054360e-05  5.6697757023335389e-04  1.0076876956023320e-03  3.5783058752369637e-04  1.3666990336644769e-03  1.1703712648919982e-03  7.0023346018189398e-04  2.2313816981973452e-03  2.7401465306749876e-03  2.9276508369888523e-03  2.7961126373508460e-03  1.7537711409427469e-03  2.1182123436475201e-03  1.8032134220619597e-03  1.1325043610003632e-03  6.8835783347042420e-04  7.3175886655900337e-04  3.9004781607191878e-04  2.4388522163206836e-04  1.3378305555478414e-04  7.4830640889173518e-05  4.1967439159836554e-05  2.3342113316004323e-05  1.3040580631971945e-05  7.4159685685109346e-06  4.3305426350614167e-06  2.7181509294365899e-06  1.8710540302167607e-06  1.4510173466276404e-06  1.3115525540516763e-06  1.3354472933621702e-06  9.2901433395536595e-07  5.4314865711331950e-07  4.6273188615130637e-07  -2.5686779711670338e-23  1.4105932209867450e-37  5.0861287182551641e-06  8.4408078018258160e-06  8.2582056473698551e-06  4.5736828490352220e-06  2.2030008417190750e-05  5.1060817241204721e-06  9.0612005624499326e-05  1.1389745995661454e-04  1.2052434257887677e-04  9.6333804481229233e-05  1.3248368007640613e-04  1.5714388414368315e-04  5.0617038342449876e-04  3.6308719422384935e-04  9.6768526218673649e-05  1.2401597132897985e-03  2.4150998642695690e-04  1.1838092607648061e-03  6.1525097642879765e-04  3.4798231845662646e-03  4.8487339153072719e-03  2.7912608574398789e-03  2.4291054566847100e-03  4.6202053734566482e-04  4.0801031702210057e-04  4.0594794283299232e-04  9.1070763325989165e-04  2.8065381539131560e-03  5.0091373510539007e-03  2.8430993136565564e-03  2.0295616083502981e-03  1.4574855936426503e-03  1.0132695852951958e-03  5.2239759497434981e-04  2.8132666180187462e-04  1.6512981353873643e-04  9.1113547911484243e-05  4.9300994751628019e-05  2.6785805326676556e-05  1.4875616112764555e-05  8.5130689166541993e-06  5.0997962775427692e-06  3.3216970569269622e-06  2.3358434258473400e-06  1.8650462202603594e-06  1.7427699619405810e-06  1.4806316031334128e-06  8.0856120998761657e-07  5.0303137778002353e-07  -2.7923850886014903e-23  5.2897245787002938e-37  5.8946490927209632e-06  2.9345501626672774e-06  8.1649505338869060e-07  1.4755436809559413e-05  1.9780547705900582e-05  1.3053758526805113e-05  7.4043777103421240e-05  1.3673622823214444e-05  2.5254737339688459e-04  1.1708201875502829e-04  2.0931956119006666e-04  5.2592773878344667e-04  3.2692371290184120e-04  1.2662314671024557e-04  9.5290485436175048e-04  1.4082809551476373e-04  1.1244659911902376e-03  3.1672291854497052e-03  4.1039381266640071e-03  1.6467007601210179e-03  5.3615835878692542e-04  4.6693343229365649e-04  9.3800642848615066e-04  1.6723507565700524e-03  1.7924985048159926e-03  1.8083657146186619e-03  1.9849749512531717e-03  1.3147731759386556e-03  1.4282672264754792e-03  1.6792482587544067e-04  4.7526516761084124e-03  2.9737081284925966e-03  2.1838685110864967e-03  1.1920304945495896e-03  7.1579953606874585e-04  3.8945045210312529e-04  2.0454334000057707e-04  1.0816423735347371e-04  5.7972392824929364e-05  3.1788952149378257e-05  1.7958773936963853e-05  1.0484531300378480e-05  6.4674145083538529e-06  4.2422951125505147e-06  3.0279720132369364e-06  2.4379042327533402e-06  2.1799000127881617e-06  1.3853893991005101e-06  6.4140873959509957e-07  5.6129403024950380e-22  -5.2957340863407874e-22  4.7861523273549631e-06  9.8854413691817795e-07  6.0285852568720688e-06  1.0827459855297196e-05  1.7656943317979619e-05  1.0987851160171673e-05  2.0040505849271289e-05  9.6920657744988900e-05  5.5488444601038502e-05  2.5535623590321497e-04  8.9834359093242044e-06  2.1544806427210373e-04  1.1104870273690519e-04  1.0810754178312385e-03  1.4913150013919551e-04  1.2389677143057332e-03  4.1520742937126128e-03  1.6166728826947638e-03  1.0281972124299239e-03  8.8084770956358273e-04  1.6070957359971738e-03  1.9652681007480892e-03  1.7610307004339056e-03  1.3651865066105424e-03  1.8874148317607057e-03  1.8091856185900171e-03  2.0623609517198649e-03  2.4577355824343234e-03  2.4503123240923424e-03  2.6434393793575563e-03  1.6395474939790795e-03  8.2178436950841572e-04  5.3620051087242462e-03  3.3093484386287567e-03  1.7104718997731723e-03  8.5140970009033837e-04  4.5083976182469445e-04  2.3820033243735332e-04  1.2615137964938145e-04  6.7729968503544780e-05  3.7238664738762737e-05  2.1048276269343058e-05  1.2329069632384050e-05  7.6319913690842555e-06  4.9909230529335439e-06  3.5949656651524979e-06  2.9637590043362186e-06  2.2320130814385474e-06  9.9806281415461826e-07  -5.5403615814831801e-23  -2.2301136188678943e-22  9.5399464231590383e-06  1.8191221545755475e-05  2.1862925678925278e-05  1.5292852337545336e-05  8.4184784894785619e-06  1.9937476457737419e-05  4.7022139490891892e-05  1.1540163096585135e-04  5.2444602302222319e-05  3.521531163111