<?xml version="1.0"?>
<VTKFile type="UnstructuredGrid"  version="0.1"  >
<UnstructuredGrid>
<Piece  NumberOfPoints="676" NumberOfCells="1250">
<Points>
<DataArray  type="Float64"  NumberOfComponents="3"  format="ascii">0 0 0  0.04 0 0  0.08 0 0  0.12 0 0  0.16 0 0  0.2 0 0  0.24 0 0  0.28 0 0  0.32 0 0  0.36 0 0  0.4 0 0  0.44 0 0  0.48 0 0  0.52 0 0  0.5600000000000001 0 0  0.6 0 0  0.64 0 0  0.68 0 0  0.72 0 0  0.76 0 0  0.8 0 0  0.84 0 0  0.88 0 0  0.92 0 0  0.96 0 0  1 0 0  0 0.04 0  0.04 0.04 0  0.08 0.04 0  0.12 0.04 0  0.16 0.04 0  0.2 0.04 0  0.24 0.04 0  0.28 0.04 0  0.32 0.04 0  0.36 0.04 0  0.4 0.04 0  0.44 0.04 0  0.48 0.04 0  0.52 0.04 0  0.5600000000000001 0.04 0  0.6 0.04 0  0.64 0.04 0  0.68 0.04 0  0.72 0.04 0  0.76 0.04 0  0.8 0.04 0  0.84 0.04 0  0.88 0.04 0  0.92 0.04 0  0.96 0.04 0  1 0.04 0  0 0.08 0  0.04 0.08 0  0.08 0.08 0  0.12 0.08 0  0.16 0.08 0  0.2 0.08 0  0.24 0.08 0  0.28 0.08 0  0.32 0.08 0  0.36 0.08 0  0.4 0.08 0  0.44 0.08 0  0.48 0.08 0  0.52 0.08 0  0.5600000000000001 0.08 0  0.6 0.08 0  0.64 0.08 0  0.68 0.08 0  0.72 0.08 0  0.76 0.08 0  0.8 0.08 0  0.84 0.08 0  0.88 0.08 0  0.92 0.08 0  0.96 0.08 0  1 0.08 0  0 0.12 0  0.04 0.12 0  0.08 0.12 0  0.12 0.12 0  0.16 0.12 0  0.2 0.12 0  0.24 0.12 0  0.28 0.12 0  0.32 0.12 0  0.36 0.12 0  0.4 0.12 0  0.44 0.12 0  0.48 0.12 0  0.52 0.12 0  0.5600000000000001 0.12 0  0.6 0.12 0  0.64 0.12 0  0.68 0.12 0  0.72 0.12 0  0.76 0.12 0  0.8 0.12 0  0.84 0.12 0  0.88 0.12 0  0.92 0.12 0  0.96 0.12 0  1 0.12 0  0 0.16 0  0.04 0.16 0  0.08 0.16 0  0.12 0.16 0  0.16 0.16 0  0.2 0.16 0  0.24 0.16 0  0.28 0.16 0  0.32 0.16 0  0.36 0.16 0  0.4 0.16 0  0.44 0.16 0  0.48 0.16 0  0.52 0.16 0  0.5600000000000001 0.16 0  0.6 0.16 0  0.64 0.16 0  0.68 0.16 0  0.72 0.16 0  0.76 0.16 0  0.8 0.16 0  0.84 0.16 0  0.88 0.16 0  0.92 0.16 0  0.96 0.16 0  1 0.16 0  0 0.2 0  0.04 0.2 0  0.08 0.2 0  0.12 0.2 0  0.16 0.2 0  0.2 0.2 0  0.24 0.2 0  0.28 0.2 0  0.32 0.2 0  0.36 0.2 0  0.4 0.2 0  0.44 0.2 0  0.48 0.2 0  0.52 0.2 0  0.5600000000000001 0.2 0  0.6 0.2 0  0.64 0.2 0  0.68 0.2 0  0.72 0.2 0  0.76 0.2 0  0.8 0.2 0  0.84 0.2 0  0.88 0.2 0  0.92 0.2 0  0.96 0.2 0  1 0.2 0  0 0.24 0  0.04 0.24 0  0.08 0.24 0  0.12 0.24 0  0.16 0.24 0  0.2 0.24 0  0.24 0.24 0  0.28 0.24 0  0.32 0.24 0  0.36 0.24 0  0.4 0.24 0  0.44 0.24 0  0.48 0.24 0  0.52 0.24 0  0.5600000000000001 0.24 0  0.6 0.24 0  0.64 0.24 0  0.68 0.24 0  0.72 0.24 0  0.76 0.24 0  0.8 0.24 0  0.84 0.24 0  0.88 0.24 0  0.92 0.24 0  0.96 0.24 0  1 0.24 0  0 0.28 0  0.04 0.28 0  0.08 0.28 0  0.12 0.28 0  0.16 0.28 0  0.2 0.28 0  0.24 0.28 0  0.28 0.28 0  0.32 0.28 0  0.36 0.28 0  0.4 0.28 0  0.44 0.28 0  0.48 0.28 0  0.52 0.28 0  0.5600000000000001 0.28 0  0.6 0.28 0  0.64 0.28 0  0.68 0.28 0  0.72 0.28 0  0.76 0.28 0  0.8 0.28 0  0.84 0.28 0  0.88 0.28 0  0.92 0.28 0  0.96 0.28 0  1 0.28 0  0 0.32 0  0.04 0.32 0  0.08 0.32 0  0.12 0.32 0  0.16 0.32 0  0.2 0.32 0  0.24 0.32 0  0.28 0.32 0  0.32 0.32 0  0.36 0.32 0  0.4 0.32 0  0.44 0.32 0  0.48 0.32 0  0.52 0.32 0  0.5600000000000001 0.32 0  0.6 0.32 0  0.64 0.32 0  0.68 0.32 0  0.72 0.32 0  0.76 0.32 0  0.8 0.32 0  0.84 0.32 0  0.88 0.32 0  0.92 0.32 0  0.96 0.32 0  1 0.32 0  0 0.36 0  0.04 0.36 0  0.08 0.36 0  0.12 0.36 0  0.16 0.36 0  0.2 0.36 0  0.24 0.36 0  0.28 0.36 0  0.32 0.36 0  0.36 0.36 0  0.4 0.36 0  0.44 0.36 0  0.48 0.36 0  0.52 0.36 0  0.5600000000000001 0.36 0  0.6 0.36 0  0.64 0.36 0  0.68 0.36 0  0.72 0.36 0  0.76 0.36 0  0.8 0.36 0  0.84 0.36 0  0.88 0.36 0  0.92 0.36 0  0.96 0.36 0  1 0.36 0  0 0.4 0  0.04 0.4 0  0.08 0.4 0  0.12 0.4 0  0.16 0.4 0  0.2 0.4 0  0.24 0.4 0  0.28 0.4 0  0.32 0.4 0  0.36 0.4 0  0.4 0.4 0  0.44 0.4 0  0.48 0.4 0  0.52 0.4 0  0.5600000000000001 0.4 0  0.6 0.4 0  0.64 0.4 0  0.68 0.4 0  0.72 0.4 0  0.76 0.4 0  0.8 0.4 0  0.84 0.4 0  0.88 0.4 0  0.92 0.4 0  0.96 0.4 0  1 0.4 0  0 0.44 0  0.04 0.44 0  0.08 0.44 0  0.12 0.44 0  0.16 0.44 0  0.2 0.44 0  0.24 0.44 0  0.28 0.44 0  0.32 0.44 0  0.36 0.44 0  0.4 0.44 0  0.44 0.44 0  0.48 0.44 0  0.52 0.44 0  0.5600000000000001 0.44 0  0.6 0.44 0  0.64 0.44 0  0.68 0.44 0  0.72 0.44 0  0.76 0.44 0  0.8 0.44 0  0.84 0.44 0  0.88 0.44 0  0.92 0.44 0  0.96 0.44 0  1 0.44 0  0 0.48 0  0.04 0.48 0  0.08 0.48 0  0.12 0.48 0  0.16 0.48 0  0.2 0.48 0  0.24 0.48 0  0.28 0.48 0  0.32 0.48 0  0.36 0.48 0  0.4 0.48 0  0.44 0.48 0  0.48 0.48 0  0.52 0.48 0  0.5600000000000001 0.48 0  0.6 0.48 0  0.64 0.48 0  0.68 0.48 0  0.72 0.48 0  0.76 0.48 0  0.8 0.48 0  0.84 0.48 0  0.88 0.48 0  0.92 0.48 0  0.96 0.48 0  1 0.48 0  0 0.52 0  0.04 0.52 0  0.08 0.52 0  0.12 0.52 0  0.16 0.52 0  0.2 0.52 0  0.24 0.52 0  0.28 0.52 0  0.32 0.52 0  0.36 0.52 0  0.4 0.52 0  0.44 0.52 0  0.48 0.52 0  0.52 0.52 0  0.5600000000000001 0.52 0  0.6 0.52 0  0.64 0.52 0  0.68 0.52 0  0.72 0.52 0  0.76 0.52 0  0.8 0.52 0  0.84 0.52 0  0.88 0.52 0  0.92 0.52 0  0.96 0.52 0  1 0.52 0  0 0.5600000000000001 0  0.04 0.5600000000000001 0  0.08 0.5600000000000001 0  0.12 0.5600000000000001 0  0.16 0.5600000000000001 0  0.2 0.5600000000000001 0  0.24 0.5600000000000001 0  0.28 0.5600000000000001 0  0.32 0.5600000000000001 0  0.36 0.5600000000000001 0  0.4 0.5600000000000001 0  0.44 0.5600000000000001 0  0.48 0.5600000000000001 0  0.52 0.5600000000000001 0  0.5600000000000001 0.5600000000000001 0  0.6 0.5600000000000001 0  0.64 0.5600000000000001 0  0.68 0.5600000000000001 0  0.72 0.5600000000000001 0  0.76 0.5600000000000001 0  0.8 0.5600000000000001 0  0.84 0.5600000000000001 0  0.88 0.5600000000000001 0  0.92 0.5600000000000001 0  0.96 0.5600000000000001 0  1 0.5600000000000001 0  0 0.6 0  0.04 0.6 0  0.08 0.6 0  0.12 0.6 0  0.16 0.6 0  0.2 0.6 0  0.24 0.6 0  0.28 0.6 0  0.32 0.6 0  0.36 0.6 0  0.4 0.6 0  0.44 0.6 0  0.48 0.6 0  0.52 0.6 0  0.5600000000000001 0.6 0  0.6 0.6 0  0.64 0.6 0  0.68 0.6 0  0.72 0.6 0  0.76 0.6 0  0.8 0.6 0  0.84 0.6 0  0.88 0.6 0  0.92 0.6 0  0.96 0.6 0  1 0.6 0  0 0.64 0  0.04 0.64 0  0.08 0.64 0  0.12 0.64 0  0.16 0.64 0  0.2 0.64 0  0.24 0.64 0  0.28 0.64 0  0.32 0.64 0  0.36 0.64 0  0.4 0.64 0  0.44 0.64 0  0.48 0.64 0  0.52 0.64 0  0.5600000000000001 0.64 0  0.6 0.64 0  0.64 0.64 0  0.68 0.64 0  0.72 0.64 0  0.76 0.64 0  0.8 0.64 0  0.84 0.64 0  0.88 0.64 0  0.92 0.64 0  0.96 0.64 0  1 0.64 0  0 0.68 0  0.04 0.68 0  0.08 0.68 0  0.12 0.68 0  0.16 0.68 0  0.2 0.68 0  0.24 0.68 0  0.28 0.68 0  0.32 0.68 0  0.36 0.68 0  0.4 0.68 0  0.44 0.68 0  0.48 0.68 0  0.52 0.68 0  0.5600000000000001 0.68 0  0.6 0.68 0  0.64 0.68 0  0.68 0.68 0  0.72 0.68 0  0.76 0.68 0  0.8 0.68 0  0.84 0.68 0  0.88 0.68 0  0.92 0.68 0  0.96 0.68 0  1 0.68 0  0 0.72 0  0.04 0.72 0  0.08 0.72 0  0.12 0.72 0  0.16 0.72 0  0.2 0.72 0  0.24 0.72 0  0.28 0.72 0  0.32 0.72 0  0.36 0.72 0  0.4 0.72 0  0.44 0.72 0  0.48 0.72 0  0.52 0.72 0  0.5600000000000001 0.72 0  0.6 0.72 0  0.64 0.72 0  0.68 0.72 0  0.72 0.72 0  0.76 0.72 0  0.8 0.72 0  0.84 0.72 0  0.88 0.72 0  0.92 0.72 0  0.96 0.72 0  1 0.72 0  0 0.76 0  0.04 0.76 0  0.08 0.76 0  0.12 0.76 0  0.16 0.76 0  0.2 0.76 0  0.24 0.76 0  0.28 0.76 0  0.32 0.76 0  0.36 0.76 0  0.4 0.76 0  0.44 0.76 0  0.48 0.76 0  0.52 0.76 0  0.5600000000000001 0.76 0  0.6 0.76 0  0.64 0.76 0  0.68 0.76 0  0.72 0.76 0  0.76 0.76 0  0.8 0.76 0  0.84 0.76 0  0.88 0.76 0  0.92 0.76 0  0.96 0.76 0  1 0.76 0  0 0.8 0  0.04 0.8 0  0.08 0.8 0  0.12 0.8 0  0.16 0.8 0  0.2 0.8 0  0.24 0.8 0  0.28 0.8 0  0.32 0.8 0  0.36 0.8 0  0.4 0.8 0  0.44 0.8 0  0.48 0.8 0  0.52 0.8 0  0.5600000000000001 0.8 0  0.6 0.8 0  0.64 0.8 0  0.68 0.8 0  0.72 0.8 0  0.76 0.8 0  0.8 0.8 0  0.84 0.8 0  0.88 0.8 0  0.92 0.8 0  0.96 0.8 0  1 0.8 0  0 0.84 0  0.04 0.84 0  0.08 0.84 0  0.12 0.84 0  0.16 0.84 0  0.2 0.84 0  0.24 0.84 0  0.28 0.84 0  0.32 0.84 0  0.36 0.84 0  0.4 0.84 0  0.44 0.84 0  0.48 0.84 0  0.52 0.84 0  0.5600000000000001 0.84 0  0.6 0.84 0  0.64 0.84 0  0.68 0.84 0  0.72 0.84 0  0.76 0.84 0  0.8 0.84 0  0.84 0.84 0  0.88 0.84 0  0.92 0.84 0  0.96 0.84 0  1 0.84 0  0 0.88 0  0.04 0.88 0  0.08 0.88 0  0.12 0.88 0  0.16 0.88 0  0.2 0.88 0  0.24 0.88 0  0.28 0.88 0  0.32 0.88 0  0.36 0.88 0  0.4 0.88 0  0.44 0.88 0  0.48 0.88 0  0.52 0.88 0  0.5600000000000001 0.88 0  0.6 0.88 0  0.64 0.88 0  0.68 0.88 0  0.72 0.88 0  0.76 0.88 0  0.8 0.88 0  0.84 0.88 0  0.88 0.88 0  0.92 0.88 0  0.96 0.88 0  1 0.88 0  0 0.92 0  0.04 0.92 0  0.08 0.92 0  0.12 0.92 0  0.16 0.92 0  0.2 0.92 0  0.24 0.92 0  0.28 0.92 0  0.32 0.92 0  0.36 0.92 0  0.4 0.92 0  0.44 0.92 0  0.48 0.92 0  0.52 0.92 0  0.5600000000000001 0.92 0  0.6 0.92 0  0.64 0.92 0  0.68 0.92 0  0.72 0.92 0  0.76 0.92 0  0.8 0.92 0  0.84 0.92 0  0.88 0.92 0  0.92 0.92 0  0.96 0.92 0  1 0.92 0  0 0.96 0  0.04 0.96 0  0.08 0.96 0  0.12 0.96 0  0.16 0.96 0  0.2 0.96 0  0.24 0.96 0  0.28 0.96 0  0.32 0.96 0  0.36 0.96 0  0.4 0.96 0  0.44 0.96 0  0.48 0.96 0  0.52 0.96 0  0.5600000000000001 0.96 0  0.6 0.96 0  0.64 0.96 0  0.68 0.96 0  0.72 0.96 0  0.76 0.96 0  0.8 0.96 0  0.84 0.96 0  0.88 0.96 0  0.92 0.96 0  0.96 0.96 0  1 0.96 0  0 1 0  0.04 1 0  0.08 1 0  0.12 1 0  0.16 1 0  0.2 1 0  0.24 1 0  0.28 1 0  0.32 1 0  0.36 1 0  0.4 1 0  0.44 1 0  0.48 1 0  0.52 1 0  0.5600000000000001 1 0  0.6 1 0  0.64 1 0  0.68 1 0  0.72 1 0  0.76 1 0  0.8 1 0  0.84 1 0  0.88 1 0  0.92 1 0  0.96 1 0  1 1 0  </DataArray>
</Points>
<Cells>
[...]
<PointData  Scalars="Indicator Function"> 
<DataArray  type="Float64"  Name="Indicator Function"  format="ascii">-2.7795949023129004e-20  -8.7097921357638355e-19  1.6881204427251378e-17  1.5953322079383647e-17  -4.9498464406976228e-19  -1.2638455254729109e-19  -7.4335301940489438e-20  -9.5779678232593627e-19  -9.1918035844089563e-18  -5.3931321716680050e-19  5.1854878387847175e-17  8.1734188207641293e-18  3.6577350774049861e-35  -4.0235085851454844e-34  2.5636704808081291e-17  -2.2860844233781163e-36  1.8288675387024930e-35  4.4537110173109444e-18  6.8582532701343482e-36  1.1430422116890581e-36  5.4744440868701389e-19  -4.5346483913405439e-21  -9.0920773286363775e-21  2.9708520524969272e-19  -2.3388209803680551e-21  -2.2860844233781163e-36  -2.5820392124356149e-21  5.0072730265189266e-04  3.4109867291893976e-03  1.5138604891974279e-02  3.2779443111363065e-04  4.5534833900589362e-03  2.6782115049571336e-03  1.2962878119833160e-02  8.1038505377966762e-03  1.5742197803543492e-02  1.8443043137017572e-03  1.5151994858735666e-02  8.1233859384358190e-03  2.0635577578264563e-03  1.6858148370308651e-03  1.5221527372859835e-03  9.5981731386915198e-04  7.4805523238631578e-04  3.4953529875219122e-04  2.7755801042605202e-04  1.8406294281506934e-04  1.0965691589914636e-04  1.6584197522173823e-04  8.0867316666212333e-05  8.4264906365374889e-05  2.3388209803680687e-21  -2.6148428664065103e-19  4.6513883339922042e-05  1.5999131477266768e-04  4.4541769051993398e-03  2.4221248649356215e-02  4.8772098457704289e-03  2.6632323661331069e-02  2.5313513099349400e-02  4.8054668615324724e-02  1.3244928533792479e-03  2.2919945468290966e-02  1.0969607266558636e-02  3.1493311917628233e-02  4.1875941965077804e-04  4.8198904633490356e-03  4.4948148974416693e-03  3.1101596679154225e-03  2.0850354821807635e-03  1.1893630634673756e-03  6.6005130451659959e-04  5.6159289536583136e-04  3.3832389880460292e-04  4.3101238231459430e-04  3.4669053282891096e-04  4.7129534788722206e-05  -5.0687060616169416e-20  -9.2766278348280298e-20  4.7104821435123047e-03  6.4269815425364732e-03  7.2708817476170454e-03  4.0402819050883935e-02  3.7689247049224831e-03  9.0684021988327295e-03  2.1646139915237545e-04  2.7791391969328495e-02  2.6660202359166808e-02  4.3465723377333461e-02  1.0280925426484216e-02  4.7342082497591552e-02  2.9110797770887258e-02  9.9025617096570682e-03  1.0643601572906596e-02  8.5283209933469401e-03  4.8108858989050953e-03  3.1027319121887018e-03  1.4652405826190915e-03  1.0172029869844122e-03  6.6750192826592596e-04  3.9791792853727541e-04  5.9575424286283432e-04  4.0364466620491934e-04  -5.6016950273479666e-20  -4.6569808233856008e-19  3.9777089647687457e-03  3.7682565070107639e-03  2.0660921421894649e-03  1.1452581778056025e-04  5.7842679689091764e-02  5.6112466425210896e-03  6.6179256982478438e-02  4.7616056001068892e-02  1.2296569884002495e-01  2.0619732956028043e-02  7.2713796815439088e-02  5.0203670198554415e-02  1.0117476010350451e-01  2.9144807908170232e-02  2.4022823709186455e-02  2.0441498864675774e-02  1.3472207142948545e-02  7.3362685642108846e-03  3.7126953294276169e-03  1.6336953870684859e-03  1.0961363302872671e-03  5.3200407867216187e-04  4.3547352151091184e-04  4.2531346548347801e-04  1.0329426464334816e-19  -1.8288675387024929e-34  9.6000815170288328e-03  8.3605384796776368e-03  5.3488664362638582e-03  6.6465795748119616e-03  7.9573398494425060e-02  2.6201372261990246e-02  2.1093767884385786e-02  1.9514593663833599e-02  9.5305500957920938e-02  1.0852402940091713e-01  1.8509258919028809e-01  1.0230292083000479e-01  1.6387763210362249e-01  1.1715130992210572e-01  6.4462418776208966e-02  4.6186636070842613e-02  3.0849499577034131e-02  1.6110653957462990e-02  8.2580463802212362e-03  3.5196793632362045e-03  1.7029189367058536e-03  8.4519216618375809e-04  3.1360816493807898e-04  3.0995968775364462e-04  -1.7206219102485988e-20  -8.6871208088368415e-35  1.4516437072779826e-02  9.3596702340926503e-03  7.9338743234140252e-03  6.2184489705939998e-03  3.0806414094751777e-02  1.7407387049700074e-01  2.1912185305755345e-02  1.9749837388821095e-01  1.5754444905585117e-02  3.6577389342622185e-01  1.1994919319211179e-01  2.1003278561438896e-01  2.2135705249019233e-01  2.7472992107790678e-01  1.2226621255958706e-01  6.6934461889825519e-02  4.8408623240938246e-02  3.2658831832757237e-02  1.7545556163318557e-02  8.0472184190127655e-03  3.1391091605433023e-03  1.5702809878977580e-03  5.0648980870216984e-04  2.0682889591304863e-04  -1.1481310120023296e-20  4.9665184097889576e-34  9.9154358174493636e-03  3.3871656111313098e-03  2.1274293521325129e-02  3.7521342365671013e-02  3.0289113808007175e-02  1.3766831168439617e-01  1.4436445899255743e-03  1.7110094343226789e-01  1.2998415746835409e-01  6.7526153551623988e-02  3.6798686155936615e-02  4.0332751787675025e-01  3.8966312804003876e-03  3.8700094250932005e-01  4.9987512585746591e-01  7.7337094035155509e-03  4.9300297552730105e-02  5.7106953127097272e-02  3.4644053040389117e-02  1.7112805035787063e-02  6.8642420561669474e-03  2.8161208983985596e-03  1.1842679223295102e-03  2.6260470137245994e-04  -1.2573464328579639e-34  -2.1946410464429914e-34  1.8634063645242616e-02  1.7426674777399048e-02  5.7051209493584774e-03  1.4744686917644379e-02  5.6360643374864364e-02  9.3102222122913608e-02  1.4241209031335603e-01  2.0077290617663507e-01  3.0402480973998541e-01  1.1304732381514510e-01  1.9371386132441740e-01  3.6839124298505617e-02  1.2493641172066131e-01  1.0208694189938482e-02  8.5187320844556408e-02  7.3113066778510788e-02  1.4247561703668431e-02  7.4375771352033604e-02  5.3439488875342056e-02  3.0860499729395890e-02  1.3910281304095932e-02  5.2612642232834038e-03  2.2630263467943168e-03  6.7391151587393452e-04  -3.2919615696644874e-34  -1.0582132734409067e-19  3.0278218042893517e-03  1.3613652296507298e-02  3.9520421499899192e-02  8.6293252820244443e-02  7.6015996499783883e-02  4.4761298561815328e-02  2.2518916432783900e-01  4.4157245595574746e-01  8.6377625411234810e-02  4.0571140076199594e-02  7.0297138957229732e-03  1.1346429316725494e-01  1.0324237465652679e-01  6.0396182130036016e-02  5.4821899037835457e-02  1.1430972797299481e-01  7.2156300114881430e-02  2.1170830298360914e-02  6.1859484982624231e-02  4.2595950345948853e-02  2.3453248483960021e-02  9.5331152064523795e-03  3.7654708947733578e-03  1.3435898586076963e-03  0.0000000000000000e+00  2.1946410464429914e-34  2.7699344438647236e-03  4.5096436719371594e-03  3.8541647141295651e-03  2.9750566776253831e-02  1.2345506292876209e-01  3.8038752320116104e-01  1.1643897858838140e-01  1.5273076350014622e-01  4.6498280222685810e-02  5.7642864596659148e-02  1.7011866339445531e-02  8.7231866532891056e-02  7.9542660857626499e-02  9.8068419880386101e-02  5.6139260172149645e-02  1.3784794508030204e-01  1.1562790478257259e-01  6.5121309492069693e-02  4.6444301868846433e-02  4.1542028071808165e-02  2.9114397938229605e-02  1.5074896156281090e-02  6.0153107076378401e-03  2.2736688972282621e-03  4.0006477409117035e-34  -6.4010363854587248e-35  3.5248358387777799e-03  5.8899687069908591e-04  2.4441336070934957e-02  5.0723533946353427e-02  1.0417186799638851e-01  6.9916559672116602e-02  4.8827867239923406e-01  6.1973127045961064e-02  1.9823390911797228e-02  2.9333255642167641e-02  2.7810511003541205e-02  2.2115115275108791e-02  1.0850414994119451e-01  1.0031433543875595e-01  3.4189845083849910e-02  8.5734495529894025e-02  2.5942414432033023e-01  2.7190389425489236e-01  4.7070037414561193e-02  9.7373555732141615e-03  2.2827424621629750e-02  1.8336442762929991e-02  8.8124532153673503e-03  3.4983144123510090e-03  -5.8523761238479777e-34  -2.7348416073738183e-19  1.1663422084688993e-02  9.1536602258985578e-03  8.0273117465065619e-03  3.6953644817532522e-02  1.2863449531650017e-01  1.7355383738368160e-01  3.3617510474160943e-02  1.5808953572131249e-01  6.2439142458537898e-02  1.6180813223521631e-02  4.4318640007089564e-02  2.4921588724194477e-02  8.9464828426730786e-02  8.1688687428632070e-02  1.2443699594759723e-01  6.0136524513482170e-02  1.7473242235736469e-01  1.9692692538728718e-01  4.8235982987446158e-01  4.0979389089117448e-02  1.0432573587160748e-03  1.4959501250712309e-02  1.0850100009053398e-02  4.8643744690106136e-03  7.3154701548099721e-35  -5.4866026161074786e-35  4.9266526575544251e-03  1.5768398249884030e-02  3.2160753683503900e-02  6.6399105039474077e-02  9.6306238214924081e-02  1.3601365438156807e-01  2.5845694121933310e-01  8.1968302189357162e-02  9.8391236742314481e-02  3.2707535183965582e-02  4.6887352024410295e-03  2.0269849822745985e-02  2.3376032864491803e-02  1.2070700811430023e-01  1.1001636018252038e-01  6.5608038981077249e-04  2.3123435986937257e-01  4.9408749585545286e-01  3.9889738046937580e-02  6.5807663653406817e-02  4.5276439144209764e-02  7.3691981590510438e-04  1.0423621937975832e-02  5.8160849853065993e-03  2.9261880619239889e-34  -2.8031899972434851e-20  1.5406912594746025e-03  5.5781258040572216e-03  1.3472433029796933e-02  4.8566193086224368e-02  1.3756711808000174e-01  2.0483449538146320e-01  1.3232806054793175e-01  1.1301418715460665e-01  1.3599158176280290e-01  6.7605016059672965e-02  6.0229074189691770e-02  2.0445981019658433e-02  5.0221944425079441e-03  1.2199730293101411e-01  3.2369256221908199e-02  1.1355698722901644e-01  5.6616593962139347e-02  2.4904615591195595e-01  7.8126612783724780e-01  8.2899622091591310e-02  2.6869243659983236e-02  3.7420646631633921e-02  5.1392956103015527e-03  6.3916686920201405e-03  5.5597573176555786e-33  -4.7522179159509585e-20  8.0590545196254654e-03  7.2711029384799532e-03  1.8327474587124491e-02  3.1454648297797476e-02  5.9872091238476810e-02  8.5774000325474456e-02  2.8491311247517404e-01  1.3365487137659895e-01  9.7888451160527037e-02  1.2685471098113840e-01  7.4759019636495880e-02  8.3816575462373435e-02  2.1003764412084572e-02  7.5027175687706477e-03  3.1816730542242994e-01  2.4034557209258303e-01  1.4217175983728139e-01  1.2266425709074152e-01  1.2013096422207265e-02  1.2514518124908652e-01  3.5099906044828572e-02  4.1206758844736839e-02  2.5364689385324993e-02  8.0165295364759172e-03  -4.4500678344916042e-19  -1.8288675387024930e-35  8.5608347341840463e-04  7.3982211092722136e-03  1.5612397806050640e-02  3.7458897334685784e-02  7.4238779150332043e-02  1.0125279923968991e-01  1.4235693861483652e-03  1.9176539636771270e-01  5.7927647770749470e-02  1.9663046166693601e-01  6.3254334514390748e-02  1.3761752337485961e-01  1.1807989143487834e-02  6.7967415254120297e-02  2.3041973993317427e-01  1.0794447804482177e-01  5.6161955498202853e-01  3.8331456205989234e-01  1.9230268824911881e-01  7.0639035328978805e-02  5.0667009994010567e-02  1.3057555482410391e-02  2.8411761405284269e-02  1.0529685721912119e-02  1.1704752247695955e-33  -1.5514423644473740e-20  4.3807775318536487e-04  3.2016640966162553e-03  5.6954875849431754e-03  2.0320807292344246e-02  4.7996124371217315e-02  9.2575807547959049e-02  1.3870421939408953e-01  3.9128760416081657e-03  2.2643592904737236e-01  2.3737452132997927e-01  2.8031519561048884e-01  1.6809268792298110e-01  1.4953398633663784e-01  5.6139263785984779e-02  1.8692254164740563e-01  5.1732859990229041e-01  1.4293965710526296e-01  1.1187374194850104e-01  5.6701506544224234e-02  7.1149703374953036e-02  6.6590912643787636e-02  4.2511126804368367e-02  2.0197378971796423e-02  1.1964735255845179e-02  -3.8040444805011854e-32  -6.5209836992650306e-20  1.4410536945429436e-03  1.7320575781338432e-04  6.7188255209310252e-03  1.0254264694052925e-02  2.6541832326415358e-02  4.7314597503222040e-02  6.3803278295735205e-02  6.5233109969345893e-02  2.7856899289603559e-01  8.5267936689686546e-02  3.4814304728312823e-01  1.7753029816640617e-01  5.4859643664018432e-01  2.0534506333269764e-01  8.3471326239636739e-02  7.2309236915006248e-01  2.4770318628253016e-01  1.2870493505380240e-01  3.9166512681525135e-02  3.7340919862269027e-02  5.4277614663819661e-02  5.3888157101166921e-02  2.4956507303463073e-02  9.6785010045979183e-03  2.3409504495391911e-33  -8.5281798927279357e-20  1.3460781602554384e-03  1.6621549616517794e-03  2.9863895386556720e-03  8.4741271064460652e-03  1.7509704096535780e-02  3.3741716277245398e-02  4.6376343951797142e-02  4.4591220197463748e-02  7.3272086275325124e-02  1.7455379457337491e-02  4.2170479512688472e-02  5.3621575487130357e-01  3.0615540362652901e-02  6.2817908801621547e-01  4.7173822026858092e-01  7.4109204757910774e-02  8.6099343694368391e-02  8.6360585977139318e-02  8.0131832657373531e-02  2.6333530767182662e-02  5.1907678494062082e-02  4.7505087190945233e-02  4.3471629141595296e-02  8.7610062583499970e-05  3.5114256743087863e-33  -8.3085728761151905e-20  1.5363003114815235e-03  2.4478215147126976e-03  1.4961977619906822e-03  6.5571132470727041e-03  1.0452404082370160e-02  2.2970091589795304e-02  3.6394563883363797e-02  4.1816458117466038e-02  1.0694127205688745e-02  2.4277117307799134e-02  2.4498062471154283e-02  1.4948309140290011e-01  2.4322203595053292e-02  1.3196062846129308e-01  2.1229177587732545e-02  1.1291631154029963e-01  3.0523466118913201e-02  7.5910690529460007e-02  7.2497934007313677e-02  4.7017587106290143e-02  3.4011834655886752e-02  3.4710229258768661e-02  3.2090049208777685e-02  2.5685046444676857e-02  4.1469585995605685e-18  -3.5450746246616182e-20  1.4967394283541212e-03  2.2161964344944592e-03  3.0772718039680075e-03  3.0684064076438541e-03  8.4366693368757122e-03  1.3717235271547496e-02  2.5374572654047359e-02  3.5363301300783682e-02  4.3470105133769234e-02  2.8861839848094848e-02  3.7133440533270202e-02  2.5810815492696339e-02  7.8616511235845427e-02  2.0726807011836778e-02  7.1433143129434773e-02  2.7988594949547703e-02  2.7293998883305630e-02  6.9141379302351137e-03  6.8586006656140799e-02  5.2632232197420296e-02  2.3256531436887728e-02  2.6906938348804314e-02  1.5211046066400318e-02  9.2152762220435013e-03  2.3409504495391911e-33  -1.0403753264462912e-20  6.3862387034506691e-04  1.6203014359498444e-03  2.2307704836761091e-03  2.5059556694137261e-03  5.5981236647619781e-03  9.5381215535224918e-03  1.7523295010743248e-02  2.7025220678994294e-02  3.4901648937931004e-02  1.6620834960044732e-02  2.3512530973872191e-02  3.4791879076561914e-02  2.3232469818943266e-02  2.6125242222618471e-03  9.9986966291928485e-03  1.8106891144934342e-02  1.6890519438376713e-02  1.6918048869514252e-03  5.5624349540563944e-02  4.1250216820868567e-02  3.2902683707615572e-02  8.8101867891879652e-04  9.0263976206118694e-03  5.2852922729707767e-03  3.5114256743087863e-33  -8.0092747351104422e-21  1.8741735730035911e-04  7.9327653087593218e-04  1.1996831768678739e-03  1.8562740588551007e-03  2.1293103870491633e-03  6.0940048037640892e-03  1.0308178913607951e-02  1.9774952547696626e-02  3.1038351933078023e-02  4.2461942842724566e-02  4.2768519637311027e-03  1.3664393519385315e-02  2.5163780836608331e-02  2.3931327280763044e-02  2.6834909938366954e-02  2.1537716720496365e-03  1.7699096409534909e-03  6.7843819169036805e-03  2.2794126151534188e-03  3.1534809354795641e-02  1.8578317105423979e-02  1.7727149306090512e-02  6.2516138225889948e-03  5.5210483950239944e-05  -4.6819008990783819e-32  -1.4288027646113226e-36  1.9751665300796884e-04  3.3129338399318141e-04  6.5909528011945731e-04  8.1278386186739980e-04  1.1699423036524092e-03  2.3746119987505874e-03  4.5488892494577890e-03  8.7757915066980288e-03  1.6620106274446232e-02  3.1777319530349561e-02  2.8075662147622825e-02  5.5427824542605567e-03  7.8150216277585310e-03  1.4512795092118025e-02  1.3172762098480371e-02  2.3947992025661655e-02  1.0869929678314077e-02  2.6720593530911276e-03  7.1203186324396150e-03  4.9870192844062855e-03  3.6241597662132344e-03  2.2688475564668202e-03  6.7366323883196102e-03  8.9331888604075385e-03  -4.9589159780746929e-19  -1.1430422116890581e-36  5.4821883979085614e-21  8.2757147133423504e-20  -9.1467844426298491e-20  2.0303355543501153e-19  -7.6150445194148929e-21  -1.3181744577820323e-19  -5.9438195007831017e-35  1.6825581356062936e-33  -4.1091218893330074e-19  -4.0632196036769048e-18  7.7925616369713819e-19  -3.0768623506041984e-19  0.0000000000000000e+00  1.4777764313512214e-17  -7.3123518898212363e-19  -1.3293806070214629e-18  3.0170115512288437e-19  -1.4832909084834169e-19  -2.3409504495391911e-33  3.7041286404298367e-17  -2.0118128086849954e-19  2.3409504495391911e-33  -2.3409504495391909e-32  -4.9589159780746813e-19  6.1330214072682858e-18  </DataArray> 
</PointData> 
</Piece>
</UnstructuredGrid>
</VTKFile>