<?xml version="1.0"?>
<VTKFile type="UnstructuredGrid"  version="0.1"  >
<UnstructuredGrid>
<Piece  NumberOfPoints="40401" NumberOfCells="80000">
<Points>
<DataArray  type="Float64"  NumberOfComponents="3"  format="ascii">0 0 0  0.005 0 0  0.01 0 0  0.015 0 0  0.02 0 0  0.025 0 0  0.03 0 0  0.035 0 0  0.04 0 0  0.045 0 0  0.05 0 0  0.055 0 0  0.06 0 0  0.065 0 0  0.07000000000000001 0 0  0.075 0 0  0.08 0 0  0.08500000000000001 0 0  0.09 0 0  0.095 0 0  0.1 0 0  0.105 0 0  0.11 0 0  0.115 0 0  0.12 0 0  0.125 0 0  0.13 0 0  0.135 0 0  0.14 0 0  0.145 0 0  0.15 0 0  0.155 0 0  0.16 0 0  0.165 0 0  0.17 0 0  0.175 0 0  0.18 0 0  0.185 0 0  0.19 0 0  0.195 0 0  0.2 0 0  0.205 0 0  0.21 0 0  0.215 0 0  0.22 0 0  0.225 0 0  0.23 0 0  0.235 0 0  0.24 0 0  0.245 0 0  0.25 0 0  0.255 0 0  0.26 0 0  0.265 0 0  0.27 0 0  0.275 0 0  0.28 0 0  0.285 0 0  0.29 0 0  0.295 0 0  0.3 0 0  0.305 0 0  0.31 0 0  0.315 0 0  0.32 0 0  0.325 0 0  0.33 0 0  0.335 0 0  0.34 0 0  0.345 0 0  0.35 0 0  0.355 0 0  0.36 0 0  0.365 0 0  0.37 0 0  0.375 0 0  0.38 0 0  0.385 0 0  0.39 0 0  0.395 0 0  0.4 0 0  0.405 0 0  0.41 0 0  0.415 0 0  0.42 0 0  0.425 0 0  0.43 0 0  0.435 0 0  0.44 0 0  0.445 0 0  0.45 0 0  0.455 0 0  0.46 0 0  0.465 0 0  0.47 0 0  0.475 0 0  0.48 0 0  0.485 0 0  0.49 0 0  0.495 0 0  0.5 0 0  0.505 0 0  0.51 0 0  0.515 0 0  0.52 0 0  0.525 0 0  0.53 0 0  0.535 0 0  0.54 0 0  0.545 0 0  0.55 0 0  0.555 0 0  0.5600000000000001 0 0  0.5649999999999999 0 0  0.57 0 0  0.575 0 0  0.58 0 0  0.585 0 0  0.59 0 0  0.595 0 0  0.6 0 0  0.605 0 0  0.61 0 0  0.615 0 0  0.62 0 0  0.625 0 0  0.63 0 0  0.635 0 0  0.64 0 0  0.645 0 0  0.65 0 0  0.655 0 0  0.66 0 0  0.665 0 0  0.67 0 0  0.675 0 0  0.68 0 0  0.6850000000000001 0 0  0.6899999999999999 0 0  0.695 0 0  0.7 0 0  0.705 0 0  0.71 0 0  0.715 0 0  0.72 0 0  0.725 0 0  0.73 0 0  0.735 0 0  0.74 0 0  0.745 0 0  0.75 0 0  0.755 0 0  0.76 0 0  0.765 0 0  0.77 0 0  0.775 0 0  0.78 0 0  0.785 0 0  0.79 0 0  0.795 0 0  0.8 0 0  0.805 0 0  0.8100000000000001 0 0  0.8149999999999999 0 0  0.82 0 0  0.825 0 0  0.83 0 0  0.835 0 0  0.84 0 0  0.845 0 0  0.85 0 0  0.855 0 0  0.86 0 0  0.865 0 0  0.87 0 0  0.875 0 0  0.88 0 0  0.885 0 0  0.89 0 0  0.895 0 0  0.9 0 0  0.905 0 0  0.91 0 0  0.915 0 0  0.92 0 0  0.925 0 0  0.93 0 0  0.9350000000000001 0 0  0.9399999999999999 0 0  0.945 0 0  0.95 0 0  0.955 0 0  0.96 0 0  0.965 0 0  0.97 0 0  0.975 0 0  0.98 0 0  0.985 0 0  0.99 0 0  0.995 0 0  1 0 0  0 0.005 0  0.005 0.005 0  0.01 0.005 0  0.015 0.005 0  0.02 0.005 0  0.025 0.005 0  0.03 0.005 0  0.035 0.005 0  0.04 0.005 0  0.045 0.005 0  0.05 0.005 0  0.055 0.005 0  0.06 0.005 0  0.065 0.005 0  0.07000000000000001 0.005 0  0.075 0.005 0  0.08 0.005 0  0.08500000000000001 0.005 0  0.09 0.005 0  0.095 0.005 0  0.1 0.005 0  0.105 0.005 0  0.11 0.005 0  0.115 0.005 0  0.12 0.005 0  0.125 0.005 0  0.13 0.005 0  0.135 0.005 0  0.14 0.005 0  0.145 0.005 0  0.15 0.005 0  0.155 0.005 0  0.16 0.005 0  0.165 0.005 0  0.17 0.005 0  0.175 0.005 0  0.18 0.005 0  0.185 0.005 0  0.19 0.005 0  0.195 0.005 0  0.2 0.005 0  0.205 0.005 0  0.21 0.005 0  0.215 0.005 0  0.22 0.005 0  0.225 0.005 0  0.23 0.005 0  0.235 0.005 0  0.24 0.005 0  0.245 0.005 0  0.25 0.005 0  0.255 0.005 0  0.26 0.005 0  0.265 0.005 0  0.27 0.005 0  0.275 0.005 0  0.28 0.005 0  0.285 0.005 0  0.29 0.005 0  0.295 0.005 0  0.3 0.005 0  0.305 0.005 0  0.31 0.005 0  0.315 0.005 0  0.32 0.005 0  0.325 0.005 0  0.33 0.005 0  0.335 0.005 0  0.34 0.005 0  0.345 0.005 0  0.35 0.005 0  0.355 0.005 0  0.36 0.005 0  0.365 0.005 0  0.37 0.005 0  0.375 0.005 0  0.38 0.005 0  0.385 0.005 0  0.39 0.005 0  0.395 0.005 0  0.4 0.005 0  0.405 0.005 0  0.41 0.005 0  0.415 0.005 0  0.42 0.005 0  0.425 0.005 0  0.43 0.005 0  0.435 0.005 0  0.44 0.005 0  0.445 0.005 0  0.45 0.005 0  0.455 0.005 0  0.46 0.005 0  0.465 0.005 0  0.47 0.005 0  0.475 0.005 0  0.48 0.005 0  0.485 0.005 0  0.49 0.005 0  0.495 0.005 0  0.5 0.005 0  0.505 0.005 0  0.51 0.005 0  0.515 0.005 0  0.52 0.005 0  0.525 0.005 0  0.53 0.005 0  0.535 0.005 0  0.54 0.005 0  0.545 0.005 0  0.55 0.005 0  0.555 0.005 0  0.5600000000000001 0.005 0  0.5649999999999999 0.005 0  0.57 0.005 0  0.575 0.005 0  0.58 0.005 0  0.585 0.005 0  0.59 0.005 0  0.595 0.005 0  0.6 0.005 0  0.605 0.005 0  0.61 0.005 0  0.615 0.005 0  0.62 0.005 0  0.625 0.005 0  0.63 0.005 0  0.635 0.005 0  0.64 0.005 0  0.645 0.005 0  0.65 0.005 0  0.655 0.005 0  0.66 0.005 0  0.665 0.005 0  0.67 0.005 0  0.675 0.005 0  0.68 0.005 0  0.6850000000000001 0.005 0  0.6899999999999999 0.005 0  0.695 0.005 0  0.7 0.005 0  0.705 0.005 0  0.71 0.005 0  0.715 0.005 0  0.72 0.005 0  0.725 0.005 0  0.73 0.005 0  0.735 0.005 0  0.74 0.005 0  0.745 0.005 0  0.75 0.005 0  0.755 0.005 0  0.76 0.005 0  0.765 0.005 0  0.77 0.005 0  0.775 0.005 0  0.78 0.005 0  0.785 0.005 0  0.79 0.005 0  0.795 0.005 0  0.8 0.005 0  0.805 0.005 0  0.8100000000000001 0.005 0  0.8149999999999999 0.005 0  0.82 0.005 0  0.825 0.005 0  0.83 0.005 0  0.835 0.005 0  0.84 0.005 0  0.845 0.005 0  0.85 0.005 0  0.855 0.005 0  0.86 0.005 0  0.865 0.005 0  0.87 0.005 0  0.875 0.005 0  0.88 0.005 0  0.885 0.005 0  0.89 0.005 0  0.895 0.005 0  0.9 0.005 0  0.905 0.005 0  0.91 0.005 0  0.915 0.005 0  0.92 0.005 0  0.925 0.005 0  0.93 0.005 0  0.9350000000000001 0.005 0  0.9399999999999999 0.005 0  0.945 0.005 0  0.95 0.005 0  0.955 0.005 0  0.96 0.005 0  0.965 0.005 0  0.97 0.005 0  0.975 0.005 0  0.98 0.005 0  0.985 0.005 0  0.99 0.005 0  0.995 0.005 0  1 0.005 0  0 0.01 0  0.005 0.01 0  0.01 0.01 0  0.015 0.01 0  0.02 0.01 0  0.025 0.01 0  0.03 0.01 0  0.035 0.01 0  0.04 0.01 0  0.045 0.01 0  0.05 0.01 0  0.055 0.01 0  0.06 0.01 0  0.065 0.01 0  0.07000000000000001 0.01 0  0.075 0.01 0  0.08 0.01 0  0.08500000000000001 0.01 0  0.09 0.01 0  0.095 0.01 0  0.1 0.01 0  0.105 0.01 0  0.11 0.01 0  0.115 0.01 0  0.12 0.01 0  0.125 0.01 0  0.13 0.01 0  0.135 0.01 0  0.14 0.01 0  0.145 0.01 0  0.15 0.01 0  0.155 0.01 0  0.16 0.01 0  0.165 0.01 0  0.17 0.01 0  0.175 0.01 0  0.18 0.01 0  0.185 0.01 0  0.19 0.01 0  0.195 0.01 0  0.2 0.01 0  0.205 0.01 0  0.21 0.01 0  0.215 0.01 0  0.22 0.01 0  0.225 0.01 0  0.23 0.01 0  0.235 0.01 0  0.24 0.01 0  0.245 0.01 0  0.25 0.01 0  0.255 0.01 0  0.26 0.01 0  0.265 0.01 0  0.27 0.01 0  0.275 0.01 0  0.28 0.01 0  0.285 0.01 0  0.29 0.01 0  0.295 0.01 0  0.3 0.01 0  0.305 0.01 0  0.31 0.01 0  0.315 0.01 0  0.32 0.01 0  0.325 0.01 0  0.33 0.01 0  0.335 0.01 0  0.34 0.01 0  0.345 0.01 0  0.35 0.01 0  0.355 0.01 0  0.36 0.01 0  0.365 0.01 0  0.37 0.01 0  0.375 0.01 0  0.38 0.01 0  0.385 0.01 0  0.39 0.01 0  0.395 0.01 0  0.4 0.01 0  0.405 0.01 0  0.41 0.01 0  0.415 0.01 0  0.42 0.01 0  0.425 0.01 0  0.43 0.01 0  0.435 0.01 0  0.44 0.01 0  0.445 0.01 0  0.45 0.01 0  0.455 0.01 0  0.46 0.01 0  0.465 0.01 0  0.47 0.01 0  0.475 0.01 0  0.48 0.01 0  0.485 0.01 0  0.49 0.01 0  0.495 0.01 0  0.5 0.01 0  0.505 0.01 0  0.51 0.01 0  0.515 0.01 0  0.52 0.01 0  0.525 0.01 0  0.53 0.01 0  0.535 0.01 0  0.54 0.01 0  0.545 0.01 0  0.55 0.01 0  0.555 0.01 0  0.5600000000000001 0.01 0  0.5649999999999999 0.01 0  0.57 0.01 0  0.575 0.01 0  0.58 0.01 0  0.585 0.01 0  0.59 0.01 0  0.595 0.01 0  0.6 0.01 0  0.605 0.01 0  0.61 0.01 0  0.615 0.01 0  0.62 0.01 0  0.625 0.01 0  0.63 0.01 0  0.635 0.01 0  0.64 0.01 0  0.645 0.01 0  0.65 0.01 0  0.655 0.01 0  0.66 0.01 0  0.665 0.01 0  0.67 0.01 0  0.675 0.01 0  0.68 0.01 0  0.6850000000000001 0.01 0  0.6899999999999999 0.01 0  0.695 0.01 0  0.7 0.01 0  0.705 0.01 0  0.71 0.01 0  0.715 0.01 0  0.72 0.01 0  0.725 0.01 0  0.73 0.01 0  0.735 0.01 0  0.74 0.01 0  0.745 0.01 0  0.75 0.01 0  0.755 0.01 0  0.76 0.01 0  0.765 0.01 0  0.77 0.01 0  0.775 0.01 0  0.78 0.01 0  0.785 0.01 0  0.79 0.01 0  0.795 0.01 0  0.8 0.01 0  0.805 0.01 0  0.8100000000000001 0.01 0  0.8149999999999999 0.01 0  0.82 0.01 0  0.825 0.01 0  0.83 0.01 0  0.835 0.01 0  0.84 0.01 0  0.845 0.01 0  0.85 0.01 0  0.855 0.01 0  0.86 0.01 0  0.865 0.01 0  0.87 0.01 0  0.875 0.01 0  0.88 0.01 0  0.885 0.01 0  0.89 0.01 0  0.895 0.01 0  0.9 0.01 0  0.905 0.01 0  0.91 0.01 0  0.915 0.01 0  0.92 0.01 0  0.925 0.01 0  0.93 0.01 0  0.9350000000000001 0.01 0  0.9399999999999999 0.01 0  0.945 0.01 0  0.95 0.01 0  0.955 0.01 0  0.96 0.01 0  0.965 0.01 0  0.97 0.01 0  0.975 0.01 0  0.98 0.01 0  0.985 0.01 0  0.99 0.01 0  0.995 0.01 0  1 0.01 0  0 0.015 0  0.005 0.015 0  0.01 0.015 0  0.015 0.015 0  0.02 0.015 0  0.025 0.015 0  0.03 0.015 0  0.035 0.015 0  0.04 0.015 0  0.045 0.015 0  0.05 0.015 0  0.055 0.015 0  0.06 0.015 0  0.065 0.015 0  0.07000000000000001 0.015 0  0.075 0.015 0  0.08 0.015 0  0.08500000000000001 0.015 0  0.09 0.015 0  0.095 0.015 0  0.1 0.015 0  0.105 0.015 0  0.11 0.015 0  0.115 0.015 0  0.12 0.015 0  0.125 0.015 0  0.13 0.015 0  0.135 0.015 0  0.14 0.015 0  0.145 0.015 0  0.15 0.015 0  0.155 0.015 0  0.16 0.015 0  0.165 0.015 0  0.17 0.015 0  0.175 0.015 0  0.18 0.015 0  0.185 0.015 0  0.19 0.015 0  0.195 0.015 0  0.2 0.015 0  0.205 0.015 0  0.21 0.015 0  0.215 0.015 0  0.22 0.015 0  0.225 0.015 0  0.23 0.015 0  0.235 0.015 0  0.24 0.015 0  0.245 0.015 0  0.25 0.015 0  0.255 0.015 0  0.26 0.015 0  0.265 0.015 0  0.27 0.015 0  0.275 0.015 0  0.28 0.015 0  0.285 0.015 0  0.29 0.015 0  0.295 0.015 0  0.3 0.015 0  0.305 0.015 0  0.31 0.015 0  0.315 0.015 0  0.32 0.015 0  0.325 0.015 0  0.33 0.015 0  0.335 0.015 0  0.34 0.015 0  0.345 0.015 0  0.35 0.015 0  0.355 0.015 0  0.36 0.015 0  0.365 0.015 0  0.37 0.015 0  0.375 0.015 0  0.38 0.015 0  0.385 0.015 0  0.39 0.015 0  0.395 0.015 0  0.4 0.015 0  0.405 0.015 0  0.41 0.015 0  0.415 0.015 0  0.42 0.015 0  0.425 0.015 0  0.43 0.015 0  0.435 0.015 0  0.44 0.015 0  0.445 0.015 0  0.45 0.015 0  0.455 0.015 0  0.46 0.015 0  0.465 0.015 0  0.47 0.015 0  0.475 0.015 0  0.48 0.015 0  0.485 0.015 0  0.49 0.015 0  0.495 0.015 0  0.5 0.015 0  0.505 0.015 0  0.51 0.015 0  0.515 0.015 0  0.52 0.015 0  0.525 0.015 0  0.53 0.015 0  0.535 0.015 0  0.54 0.015 0  0.545 0.015 0  0.55 0.015 0  0.555 0.015 0  0.5600000000000001 0.015 0  0.
[...]
<PointData  Scalars="Indicator Function"> 
<DataArray  type="Float64"  Name="Indicator Function"  format="ascii">1.4444474582904269e-34  1.8253748466060788e-18  9.2269074673338361e-19  1.8951833608364475e-17  1.0294068958519578e-17  -1.4421357832573184e-19  -9.1910608698133620e-20  9.8084412704441897e-19  5.9314068791344623e-17  -3.4161373629001261e-20  2.9177684229819197e-18  8.0683284686181948e-17  9.0277966143151681e-36  -3.4185256512873436e-33  6.5971166334826129e-17  -2.3874986619504513e-19  -1.4135111410075006e-19  6.9262045909369557e-18  -1.2130256958622449e-19  -2.9851914138002156e-33  -1.5875727238912442e-17  -1.4355892963138130e-19  -3.3780182748764901e-19  1.2535135343678584e-17  -1.6212418492272298e-19  -8.5948999149317930e-20  -5.3448633645731864e-19  -6.2242880436702486e-19  -7.8464325686237948e-18  0.0000000000000000e+00  -6.3862021486034182e-19  -6.9612482211078795e-19  1.4444474582904269e-34  -3.1082684319177215e-19  4.2884576729454219e-16  -3.2943670563414648e-19  -5.1188653445764819e-19  -7.4238528047198449e-19  -4.4945003611509426e-20  -4.6222318665293660e-33  -1.3513399473780547e-17  0.0000000000000000e+00  -1.5677646860406120e-19  -2.8986889205703849e-19  -2.4909442356964896e-19  -1.8083737860065987e-19  6.3614169030020556e-16  -3.6417147911322351e-19  -6.1273782417678003e-19  -3.0636891208839016e-19  -5.2202844319548269e-19  -5.5316756747915909e-19  -5.5984822713872164e-19  -8.7620853518507617e-19  -4.3810426759253847e-19  -5.1084888861687575e-19  2.0493993647244618e-15  -2.7901341507451882e-19  -4.7986237144811518e-19  -7.4416572535783770e-19  -4.3746140732168641e-19  -1.0264576422304957e-18  -3.5376143240385700e-19  -8.0591516964018379e-19  -4.8976891206539506e-19  -9.2304155572139244e-19  -1.0387804536096976e-18  -2.1504152700159471e-19  6.1237722408583447e-17  -1.2531981364827340e-18  -1.3194433341976691e-18  -5.9725650762072322e-19  -5.9482306984513138e-19  -1.4100241620411233e-18  -2.1919599359631381e-18  -2.7195355957019831e-18  -2.9696650184898286e-18  -3.0174776227845641e-18  -2.7304266800590500e-18  -2.2037513817545335e-18  -1.0955723396909730e-18  7.0810706011573824e-16  -8.1862780973138116e-19  -1.2080585305481470e-18  -8.3075347037789891e-19  -6.9454918413379763e-19  -4.0742914363098934e-19  -6.5525287698489863e-19  -3.6524551227877803e-19  -5.7922185386792578e-19  -2.8961092693396318e-19  -4.3483235545203532e-19  -2.8565020518120940e-19  6.8778793552368448e-16  -1.4549950174785810e-19  -4.0317370589635509e-20  1.2037062152420224e-35  -1.9558325293688007e-20  -6.2055539928548945e-20  -1.6726079687451714e-19  3.2680922669154904e-16  8.2690966505678213e-16  9.2827477015612516e-17  -3.9290651072352893e-17  3.7935028485148627e-16  1.8691071541077623e-16  3.0675161985623484e-16  2.8351117005075056e-16  3.4891892132951516e-17  1.3808270959245020e-16  4.8071211411905407e-31  6.4412201082663755e-18  -5.3413475296977307e-21  1.5804287891738395e-18  3.2167396520918841e-18  9.4719689302495519e-18  -1.2130647885565351e-17  -3.3981391563930163e-18  3.9845468117085832e-18  1.4989536156218682e-17  -8.7643085323438781e-18  5.9856019078078033e-18  1.7040284981388787e-18  2.9449007376519907e-17  1.3876559304476575e-17  3.6796704291440269e-18  1.3125601563170883e-20  4.5425707179586125e-19  7.5119795437060956e-18  1.7922673333987149e-18  7.5221659172635036e-19  -5.5599664062673911e-20  1.3530068695953159e-18  1.4938493902523851e-18  5.9814988401334562e-19  -3.5619554810997226e-21  7.1489240534376796e-19  -2.0511812655515051e-22  1.3205122021425894e-18  4.8774587281895854e-19  1.0312541722430926e-18  1.1336280951750352e-18  1.0046804576428918e-19  1.5206117252230213e-18  5.6311709941457230e-19  4.0057314859502018e-18  3.2780475545674414e-19  3.7888735039243270e-18  9.8175433607973981e-18  8.0889834348175684e-19  1.4394706287291811e-18  2.1233429217076032e-17  1.1489277748432985e-17  1.0389457096580958e-18  -4.1955366588943731e-19  1.2248499026960335e-18  2.2109882031786139e-19  6.4855461540372642e-19  2.5799457936410718e-19  -2.1951137160515741e-19  3.7451671047209530e-19  -4.4535125857633193e-20  -2.5072860854997478e-21  1.6295454565118634e-18  6.5460307704077466e-19  4.5155587121868405e-18  2.9833194962666055e-19  1.7581552075717952e-19  3.8004474263358460e-18  4.0415474159667295e-19  2.2437177380212420e-18  3.0727243528751842e-19  1.2850380186860611e-18  9.9156949696241756e-20  6.0504920690486510e-20  6.7409341779565413e-20  1.1212021275686513e-18  1.8022490076259864e-19  9.7647485617545161e-19  1.9869062562690183e-19  -2.6240795492276088e-33  5.0981715882728680e-20  1.2811105995066830e-19  7.3589623955925918e-20  1.7539182475615122e-20  7.1875461575044159e-21  1.6951113775117290e-19  -8.5413566837403796e-23  7.5940963193831930e-21  8.1245890698301541e-20  2.2628900862267765e-20  2.1826120860757369e-20  4.5514013886981181e-20  1.2769292643401510e-21  1.8313716243748557e-20  8.4287752158952088e-22  -1.4422849388314513e-21  2.1118048327726339e-20  5.2574728747152621e-21  2.5113793997660587e-20  -7.9933615855915551e-37  7.2222372914521344e-35  1.0321485478941980e-03  1.6096124366346676e-04  2.0239735680754644e-03  2.6108099062125047e-03  2.3400952386916211e-03  2.5979208704381266e-03  1.6557143323372306e-03  2.1960846774704197e-03  1.7673494726395311e-03  7.7501168962002987e-05  1.0525393097813301e-03  2.3042105913699315e-04  4.9717166881428079e-04  7.9202313917689834e-03  6.6304959506055519e-03  4.3009352337230423e-03  2.5463552991702157e-03  4.3703856575008325e-03  2.8677409659066413e-03  5.4214925724691025e-03  5.1722555359487651e-03  3.9939198325550426e-03  6.0852967375938389e-03  5.8411393504457631e-03  2.3776560667662102e-04  6.6494078601570909e-03  1.3373867504359713e-02  5.8878283540503822e-03  5.3943776710426300e-03  2.0339275273157539e-02  1.3347214101264333e-03  1.1872909252782773e-02  1.1198717241402185e-02  6.1367752421749838e-03  1.1869208197888843e-02  1.8442656046715505e-02  5.6794867101237594e-03  1.3373624289995882e-02  8.0965720606783714e-04  3.7578053960039500e-03  2.2779450479536102e-03  5.6484675646857026e-03  1.0443627474035010e-02  8.9745724253467232e-03  1.3038425595917687e-03  2.6057553237266266e-03  6.1240024563870483e-04  6.5603301505331021e-03  1.1038103346553418e-02  1.8808056818015811e-02  1.9929962006180683e-02  1.3795234671880832e-02  3.1877117325634940e-03  1.5784369730233425e-02  1.8405270915341602e-02  6.9175882176254347e-03  1.0052517697287773e-02  1.7288863977942829e-02  2.0391700464065000e-03  1.5761208248023347e-02  1.1490836358053858e-02  1.2745598841216498e-02  9.1038414342320007e-03  9.9661563136190460e-03  3.8398142026919413e-03  2.1930635056395361e-02  7.7476875269878731e-03  4.9933135388137619e-03  1.0644688411925450e-02  1.7253266435977434e-02  1.5142344814927711e-02  3.1880443331973158e-03  1.0715379822823631e-02  2.0043047251595378e-02  2.9465316177460892e-02  3.4258139892966548e-02  3.6367659136260666e-02  3.6174214822155146e-02  3.1099886904428012e-02  2.4149312154533729e-02  7.6614206458918595e-03  3.4800468796506202e-03  1.3007064155620182e-02  1.5258915714263443e-02  7.3360662213908827e-03  1.2511885787421812e-02  1.0836480640347142e-03  1.1803986450490540e-02  6.7768498674453408e-04  1.0434333300977752e-02  1.5666486671859364e-02  1.0291633260898716e-02  6.7342885428774346e-03  3.9792545364790684e-03  2.6210860074169858e-03  7.2629318065616324e-04  7.0466293203715437e-04  2.2357864519879033e-03  2.4710229053940243e-03  1.7775911972141977e-03  2.4815981054688197e-03  4.2104655083217476e-03  1.7717082505994911e-03  1.2699558302902267e-03  5.0817795661202422e-06  6.9424316009939206e-04  2.2032059467352337e-04  1.6568679062376232e-03  7.4954824624546139e-05  8.5021693409110266e-05  1.0135099167763033e-05  4.8652053106552787e-05  7.1895136424344086e-05  2.8637733855411100e-04  4.3088844186603599e-04  8.5554399773912890e-04  3.0815875476999710e-04  5.0306837027607756e-04  6.8188757017781875e-04  7.1530383340884826e-04  3.1970033721284621e-04  4.7498536109326201e-05  7.6742621092453433e-05  3.9015123854720167e-04  1.5985766708599225e-04  6.4598841070253164e-05  6.5109217062010838e-05  4.4426562293119182e-05  2.5371898696953527e-05  7.1645164424839191e-06  2.3258396637754254e-07  2.5215203797367821e-06  8.5983678488179729e-06  1.3878895687442526e-05  1.3302008430455360e-05  1.3463417740924399e-05  7.3901593465660887e-06  2.6472825797603316e-06  2.1855577679142670e-05  4.3794379517833841e-05  5.8648173036972254e-05  5.8595143702424943e-05  5.4030494281366606e-05  5.0108649102355567e-05  2.4619288369265616e-05  1.3906485086687178e-06  2.9441381115066983e-05  1.1984747930572454e-04  2.1508305785592350e-04  2.5124374681645531e-04  1.8603821991838672e-04  7.0302961129857741e-05  1.7433743719783086e-05  6.4201906648879322e-05  8.3143147657731474e-05  8.3275504769126011e-05  7.3221603746617068e-05  5.9790211047539649e-05  4.8079693290590848e-05  3.8133680360332724e-05  3.0600145230237902e-05  2.8556211286527522e-05  3.0889145078207899e-05  4.1181555647983494e-05  7.0610780441788767e-05  1.0795494947150296e-04  1.2125568235637792e-04  1.1326499833062633e-04  9.7304757344376952e-05  7.8992637432127283e-05  6.1891181337210785e-05  4.7978160646246516e-05  3.6956992410479204e-05  3.2470605327818997e-05  3.2269127757022022e-05  2.9223798151156910e-05  2.1950864594725127e-05  1.3793051025990216e-05  7.1787008157927446e-06  2.7924295960485574e-06  6.2686598739047054e-08  5.9329277737487047e-07  6.4326581420687078e-07  2.0386574800278229e-06  2.8260037147935134e-06  2.4975306702799117e-06  1.9100965765291800e-06  1.2991243983920297e-06  9.5457641074910759e-07  5.3275040044607018e-07  1.5801606727950029e-07  1.4979226438015825e-08  1.3078704669357530e-07  1.8813134447584761e-07  2.1298839232582652e-07  2.5068198575691046e-07  3.1444304151796284e-07  2.9394118766327838e-07  5.5423627543951526e-08  1.5383146851883924e-24  1.3240768367662246e-34  3.1600023320669979e-03  4.4249594074185069e-03  1.4270431053952505e-03  3.3532282196865031e-03  4.7714622814987156e-03  3.5801613954856927e-04  9.1737879198241206e-03  3.0355853663499279e-04  7.4433541815257043e-03  5.4026536567832314e-03  5.6352884820563189e-03  1.2243437909030527e-02  5.8128254738438962e-03  2.9369446647265437e-03  8.7699782799733287e-03  1.1153592935660876e-02  2.0697336774531960e-02  7.0234874008681695e-03  3.0869884806961393e-03  8.3378729134480356e-03  2.4290206923621500e-02  8.8368530340194613e-03  1.4580770489932541e-02  7.0512723050870857e-03  1.2911656793613854e-02  4.3327094690599971e-04  8.2456930777787263e-03  2.5833263077384818e-03  2.9433408452009646e-02  1.5448127961219702e-03  1.5796684441554496e-02  2.7985879539666782e-02  1.0573338663112140e-02  2.7366653736600410e-02  1.6112577529101033e-02  1.8836066666541617e-03  2.6864430679566945e-04  2.3706539078168054e-02  1.0703970516045205e-02  1.7149299565509958e-02  3.2281357622946920e-02  2.6526422512625023e-02  3.0327997276491821e-02  3.8427515486395690e-02  3.7826895127685750e-02  2.6148224767922324e-02  2.3388330250916002e-02  3.8370418649635883e-02  3.6814282571342859e-02  2.1694102413029687e-02  9.2682839134836780e-03  3.6642839389707180e-02  5.2618145849974388e-02  4.3560733316149514e-02  2.2153859976951063e-02  8.1016891186500243e-03  2.9188443007666799e-02  1.8876263314672882e-02  1.5552294928600566e-02  1.8212482975601321e-02  1.9333788243788608e-02  4.3599237213122317e-02  7.8675496890170983e-03  1.3817336620221934e-02  1.9482266887381864e-02  2.2046968974497060e-02  3.1820019922294912e-02  7.9608274870564006e-03  1.8786097771962867e-02  1.5610978482059917e-02  2.2089837574101993e-02  1.0263251282095445e-02  6.6829988849909311e-03  2.3026813996551224e-02  3.9734538514484163e-02  4.1283879959083176e-02  5.1597323782649453e-02  4.6894370853136962e-02  5.0195305891391262e-02  3.4951290039645672e-02  2.0595900715023686e-02  1.3951164907563586e-03  1.1746801181420047e-02  1.9298301741748448e-02  2.0450998802972912e-02  1.1332995935717729e-02  1.7085963277422182e-02  2.1362189230100161e-02  9.5944707623286489e-03  1.8225263068012823e-02  1.2368790381270331e-02  1.4517780748400815e-04  1.9591686387716175e-03  5.8238088940363768e-03  7.8237209362461198e-03  5.6673933976897845e-03  3.8031738045249033e-03  2.8835166129231741e-03  4.7807294755872198e-03  9.3535571519950175e-03  5.7201597921308434e-03  2.7804208922387530e-03  3.4484929238761523e-03  3.6696470634565571e-03  3.8444536012625249e-03  1.7594642791902923e-03  2.5144298556168680e-03  2.4180575190843388e-03  1.2636535171768992e-03  6.7927246865315326e-04  3.8093496607786325e-04  8.3047874139728924e-05  2.6778165844774726e-04  1.1750604744421105e-04  7.9940955415124893e-04  3.9220542219010657e-04  1.4225637199973956e-03  2.0167587687707598e-04  1.4233273770744492e-03  2.9182479038142816e-04  1.1496649491031324e-03  1.8180944336114124e-04  3.0387606064039909e-05  4.0444360331616405e-04  4.3989015433613753e-04  8.9362701145989727e-05  1.3405062984001530e-04  4.3554506713157873e-05  3.4721641232539054e-05  1.9218275709106168e-05  6.5257179600721773e-06  8.8392911470121598e-07  3.9604895596635711e-06  2.0758971210072424e-05  1.7153209136739034e-05  1.8144947015179872e-05  1.3353792678721613e-05  2.1402372365876116e-06  1.8768792344410010e-05  5.0114090628874653e-05  7.5621900301757312e-05  8.2727954450574384e-05  7.2917450809546235e-05  7.1272452506951294e-05  5.4765668009914875e-05  8.3688451180161298e-06  1.2215144767540304e-05  1.1725830175211790e-04  2.5634853627030046e-04  3.4164979215829005e-04  2.9952319786138380e-04  1.4447921740007861e-04  6.3318123523934866e-06  6.4711188790737883e-05  1.0036858072332750e-04  1.1318692505374358e-04  1.0673103901155446e-04  9.0904112517331832e-05  7.3276437202871787e-05  5.9945234846928393e-05  4.6870127227392586e-05  4.1589736031362341e-05  4.3078024327701186e-05  5.1929980032201358e-05  7.8583358298955260e-05  1.3259075424567376e-04  1.6725658976934256e-04  1.6059260371184783e-04  1.4066351519470416e-04  1.1817924739228164e-04  9.4621610350315740e-05  7.4236771975749627e-05  5.7161058082805544e-05  4.6196190421208955e-05  4.5070506665381966e-05  4.3219668033988438e-05  3.4126745763454651e-05  2.2237805321492947e-05  1.2580570798865588e-05  5.7891754058151981e-06  1.4119960882741511e-06  1.0464802421747867e-06  7.3731317813515191e-07  2.0655550572976327e-06  4.1970468901835532e-06  4.0397403541537510e-06  3.1082065776555927e-06  2.2422397164088094e-06  1.6617757555387669e-06  1.2161119455923104e-06  5.6006410214487075e-07  1.7946599068668539e-07  7.3298760299703876e-09  1.6336894666969943e-07  2.0652973541550002e-07  2.5921972432138819e-07  3.7906954089418467e-07  5.4634557940706489e-07  4.7805095151530518e-07  1.1941721399616310e-22  -1.7442847187244467e-20  1.0853938662760865e-03  1.1669789517594388e-03  6.3835938432932817e-05  2.8887652062070963e-03  1.0770245620830473e-02  5.0272744515623448e-04  9.8754626305453171e-03  9.7905436610166811e-03  5.3730662003943436e-03  9.3616374550731397e-03  3.0495198820589711e-03  6.8374698429538540e-03  7.6414680229785047e-03  5.8789915622530089e-05  1.0197700413392258e-02  1.8652758342337355e-02  2.2611277297078437e-02  1.5286633077393979e-02  1.0046557574387643e-02  9.9936849237794688e-03  2.3732143093240315e-04  5.1588728520696710e-03  1.1461323302636675e-02  2.0884422148846137e-02  1.9017004495829430e-03  1.4454582459106956e-03  1.3266388187527857e-02  3.3827480625670626e-02  3.5633409026331387e-03  1.6692916604304796e-02  3.2654392522594743e-02  1.2362428468021533e-02  3.4251130515169745e-02  5.7256588057847582e-03  8.2326856188262350e-03  2.1180630066450500e-02  4.3204570809258359e-02  2.9621617261227785e-02  3.8484646291854226e-02  1.7610131370192961e-02  4.0839555551748308e-03  1.5224059425968687e-02  6.5397581422130101e-03  7.2378224775926404e-03  6.9429839912142511e-03  7.8897858095799221e-03  1.8266159519277222e-02  1.8275220176528991e-02  3.2122345416680388e-02  4.2834479109688885e-02  5.1865588859607868e-02  4.3884027870584472e-02  2.0786068751128109e-02  2.1943644880236843e-02  5.4355866724609757e-02  5.7352904058444544e-02  2.0241338241767406e-02  2.9912869053493774e-02  4.8469065717324719e-02  9.6130806757652749e-03  3.4246268119026257e-02  2.4255136986682330e-02  3.2469675772793929e-02  3.2572895899901068e-02  1.2923182838401081e-02  4.8032232653969203e-03  4.9323223762376169e-02  6.1333451728654885e-03  2.0176971779239859e-02  1.9642228668618433e-02  2.4138042124553605e-02  1.9147343897254612e-02  3.8588655611986743e-03  2.2848526786622154e-02  3.1511443841181215e-02  4.8669736844727474e-02  5.0906396108231507e-02  5.6195304491216694e-02  5.2273754689849634e-02  4.6266497965208410e-02  3.3203450423354659e-02  4.8930481531897071e-03  9.2400402220221070e-03  1.9967624019143860e-02  1.9742825780186674e-02  9.0454291789015071e-03  3.0932300131383067e-02  2.6405049639393629e-03  3.3481903970641901e-02  4.6833026948752549e-03  3.0582642493952556e-02  4.5081002469543788e-02  3.1967845607814196e-02  2.1318013411050725e-02  1.4930760598945022e-02  1.1505562152007525e-02  5.7700669622628110e-03  7.7908775408733265e-04  3.2921386197610515e-03  3.6219054523085460e-03  5.7277309632799032e-03  9.1809448903379144e-03  1.0837115420435070e-02  4.7338912763266331e-03  1.5933043431185484e-03  1.0711920843034016e-03  1.9163911099967095e-04  1.0690865861868407e-03  4.1338276039889921e-03  8.4043163480325021e-04  3.9556811693275537e-04  3.2413208366213736e-04  1.5726035705529779e-04  2.2925996917353396e-04  5.4843551351172653e-04  8.7003282978048214e-04  2.0355284135084983e-03  4.3043758760977262e-04  3.0468823626674191e-04  1.4596775784409641e-03  1.8506014174342173e-03  3.7869275305386202e-04  4.4561102551158286e-04  1.1261738108851599e-04  6.8901251835737593e-04  1.0228467246776309e-04  3.0856011255385435e-04  8.7211110074853924e-05  2.0837049427257323e-06  1.6613555307682963e-05  9.4673103500760462e-06  5.3506373797024735e-06  1.3841715467878467e-06  1.8046464265805484e-05  2.4341735593027587e-05  1.6553515650817736e-05  1.7963861573623312e-05  6.7634863948494090e-06  8.7460695603846899e-06  4.1135873294211764e-05  7.5294236311153928e-05  9.2991234649175082e-05  8.4574463246244025e-05  7.4475877862058783e-05  7.5089498212576540e-05  3.2161755849430658e-05  8.9664395872982995e-06  6.6990611870502569e-05  2.3434098441494369e-04  3.6696554685284433e-04  3.7793107922054811e-04  2.2630842606496105e-04  3.5482202104053996e-05  5.7657406791201751e-05  9.0266774633806379e-05  1.1120229512013163e-04  1.1642938515753560e-04  1.0584545670234508e-04  8.8539438011940927e-05  7.2996989774189031e-05  5.9756829035135106e-05  4.8439906710631972e-05  4.8240805990754646e-05  5.4405390453872744e-05  7.2057721975097279e-05  1.2117699503083204e-04  1.8142463189956852e-04  1.8752591571413049e-04  1.6163175411890396e-04  1.3770347573518010e-04  1.1462438337971721e-04  9.1640300806046220e-05  7.2420478696647156e-05  5.5944352096102530e-05  5.0541350051098137e-05  5.1720073325361299e-05  4.4274689407428555e-05  2.9617291608832772e-05  1.6992715220904036e-05  8.8622813925520284e-06  3.7169777470202797e-06  4.2886353087717403e-08  9.5157811933721330e-07  8.4950206871026335e-07  4.0179252701946427e-06  5.3403949892699512e-06  4.0355101443395095e-06  2.9585104099180661e-06  2.1488660694945634e-06  1.8318180775689548e-06  1.1673184921742478e-06  5.0690569612628190e-07  2.8918797437528649e-07  1.0705723992292354e-07  4.0128090338172176e-08  1.1260177540152495e-07  2.1142165616755232e-07  3.6032063074129512e-07  3.8549831350016896e-07  -3.3589751074746866e-36  -3.1296361596292583e-34  3.1422240037102015e-04  2.2911183118911331e-03  8.9116216246463899e-03  2.7268578235801788e-04  6.7294389737183240e-04  3.1164827568787297e-03  5.1558758638808305e-03  8.0615263545504804e-03  2.6501517987823648e-03  7.0847468653927551e-03  7.6678131216844957e-03  5.9626061798618100e-03  1.5180439415748141e-02  1.1223178810790576e-02  1.6460902633526925e-03  2.0747889160761340e-02  1.4340887289187448e-03  2.4983868035132171e-02  1.3707647700597686e-02  1.0252508795300