<?xml version="1.0"?>
<VTKFile type="UnstructuredGrid"  version="0.1"  >
<UnstructuredGrid>
<Piece  NumberOfPoints="676" NumberOfCells="1250">
<Points>
<DataArray  type="Float64"  NumberOfComponents="3"  format="ascii">0 0 0  0.04 0 0  0.08 0 0  0.12 0 0  0.16 0 0  0.2 0 0  0.24 0 0  0.28 0 0  0.32 0 0  0.36 0 0  0.4 0 0  0.44 0 0  0.48 0 0  0.52 0 0  0.5600000000000001 0 0  0.6 0 0  0.64 0 0  0.68 0 0  0.72 0 0  0.76 0 0  0.8 0 0  0.84 0 0  0.88 0 0  0.92 0 0  0.96 0 0  1 0 0  0 0.04 0  0.04 0.04 0  0.08 0.04 0  0.12 0.04 0  0.16 0.04 0  0.2 0.04 0  0.24 0.04 0  0.28 0.04 0  0.32 0.04 0  0.36 0.04 0  0.4 0.04 0  0.44 0.04 0  0.48 0.04 0  0.52 0.04 0  0.5600000000000001 0.04 0  0.6 0.04 0  0.64 0.04 0  0.68 0.04 0  0.72 0.04 0  0.76 0.04 0  0.8 0.04 0  0.84 0.04 0  0.88 0.04 0  0.92 0.04 0  0.96 0.04 0  1 0.04 0  0 0.08 0  0.04 0.08 0  0.08 0.08 0  0.12 0.08 0  0.16 0.08 0  0.2 0.08 0  0.24 0.08 0  0.28 0.08 0  0.32 0.08 0  0.36 0.08 0  0.4 0.08 0  0.44 0.08 0  0.48 0.08 0  0.52 0.08 0  0.5600000000000001 0.08 0  0.6 0.08 0  0.64 0.08 0  0.68 0.08 0  0.72 0.08 0  0.76 0.08 0  0.8 0.08 0  0.84 0.08 0  0.88 0.08 0  0.92 0.08 0  0.96 0.08 0  1 0.08 0  0 0.12 0  0.04 0.12 0  0.08 0.12 0  0.12 0.12 0  0.16 0.12 0  0.2 0.12 0  0.24 0.12 0  0.28 0.12 0  0.32 0.12 0  0.36 0.12 0  0.4 0.12 0  0.44 0.12 0  0.48 0.12 0  0.52 0.12 0  0.5600000000000001 0.12 0  0.6 0.12 0  0.64 0.12 0  0.68 0.12 0  0.72 0.12 0  0.76 0.12 0  0.8 0.12 0  0.84 0.12 0  0.88 0.12 0  0.92 0.12 0  0.96 0.12 0  1 0.12 0  0 0.16 0  0.04 0.16 0  0.08 0.16 0  0.12 0.16 0  0.16 0.16 0  0.2 0.16 0  0.24 0.16 0  0.28 0.16 0  0.32 0.16 0  0.36 0.16 0  0.4 0.16 0  0.44 0.16 0  0.48 0.16 0  0.52 0.16 0  0.5600000000000001 0.16 0  0.6 0.16 0  0.64 0.16 0  0.68 0.16 0  0.72 0.16 0  0.76 0.16 0  0.8 0.16 0  0.84 0.16 0  0.88 0.16 0  0.92 0.16 0  0.96 0.16 0  1 0.16 0  0 0.2 0  0.04 0.2 0  0.08 0.2 0  0.12 0.2 0  0.16 0.2 0  0.2 0.2 0  0.24 0.2 0  0.28 0.2 0  0.32 0.2 0  0.36 0.2 0  0.4 0.2 0  0.44 0.2 0  0.48 0.2 0  0.52 0.2 0  0.5600000000000001 0.2 0  0.6 0.2 0  0.64 0.2 0  0.68 0.2 0  0.72 0.2 0  0.76 0.2 0  0.8 0.2 0  0.84 0.2 0  0.88 0.2 0  0.92 0.2 0  0.96 0.2 0  1 0.2 0  0 0.24 0  0.04 0.24 0  0.08 0.24 0  0.12 0.24 0  0.16 0.24 0  0.2 0.24 0  0.24 0.24 0  0.28 0.24 0  0.32 0.24 0  0.36 0.24 0  0.4 0.24 0  0.44 0.24 0  0.48 0.24 0  0.52 0.24 0  0.5600000000000001 0.24 0  0.6 0.24 0  0.64 0.24 0  0.68 0.24 0  0.72 0.24 0  0.76 0.24 0  0.8 0.24 0  0.84 0.24 0  0.88 0.24 0  0.92 0.24 0  0.96 0.24 0  1 0.24 0  0 0.28 0  0.04 0.28 0  0.08 0.28 0  0.12 0.28 0  0.16 0.28 0  0.2 0.28 0  0.24 0.28 0  0.28 0.28 0  0.32 0.28 0  0.36 0.28 0  0.4 0.28 0  0.44 0.28 0  0.48 0.28 0  0.52 0.28 0  0.5600000000000001 0.28 0  0.6 0.28 0  0.64 0.28 0  0.68 0.28 0  0.72 0.28 0  0.76 0.28 0  0.8 0.28 0  0.84 0.28 0  0.88 0.28 0  0.92 0.28 0  0.96 0.28 0  1 0.28 0  0 0.32 0  0.04 0.32 0  0.08 0.32 0  0.12 0.32 0  0.16 0.32 0  0.2 0.32 0  0.24 0.32 0  0.28 0.32 0  0.32 0.32 0  0.36 0.32 0  0.4 0.32 0  0.44 0.32 0  0.48 0.32 0  0.52 0.32 0  0.5600000000000001 0.32 0  0.6 0.32 0  0.64 0.32 0  0.68 0.32 0  0.72 0.32 0  0.76 0.32 0  0.8 0.32 0  0.84 0.32 0  0.88 0.32 0  0.92 0.32 0  0.96 0.32 0  1 0.32 0  0 0.36 0  0.04 0.36 0  0.08 0.36 0  0.12 0.36 0  0.16 0.36 0  0.2 0.36 0  0.24 0.36 0  0.28 0.36 0  0.32 0.36 0  0.36 0.36 0  0.4 0.36 0  0.44 0.36 0  0.48 0.36 0  0.52 0.36 0  0.5600000000000001 0.36 0  0.6 0.36 0  0.64 0.36 0  0.68 0.36 0  0.72 0.36 0  0.76 0.36 0  0.8 0.36 0  0.84 0.36 0  0.88 0.36 0  0.92 0.36 0  0.96 0.36 0  1 0.36 0  0 0.4 0  0.04 0.4 0  0.08 0.4 0  0.12 0.4 0  0.16 0.4 0  0.2 0.4 0  0.24 0.4 0  0.28 0.4 0  0.32 0.4 0  0.36 0.4 0  0.4 0.4 0  0.44 0.4 0  0.48 0.4 0  0.52 0.4 0  0.5600000000000001 0.4 0  0.6 0.4 0  0.64 0.4 0  0.68 0.4 0  0.72 0.4 0  0.76 0.4 0  0.8 0.4 0  0.84 0.4 0  0.88 0.4 0  0.92 0.4 0  0.96 0.4 0  1 0.4 0  0 0.44 0  0.04 0.44 0  0.08 0.44 0  0.12 0.44 0  0.16 0.44 0  0.2 0.44 0  0.24 0.44 0  0.28 0.44 0  0.32 0.44 0  0.36 0.44 0  0.4 0.44 0  0.44 0.44 0  0.48 0.44 0  0.52 0.44 0  0.5600000000000001 0.44 0  0.6 0.44 0  0.64 0.44 0  0.68 0.44 0  0.72 0.44 0  0.76 0.44 0  0.8 0.44 0  0.84 0.44 0  0.88 0.44 0  0.92 0.44 0  0.96 0.44 0  1 0.44 0  0 0.48 0  0.04 0.48 0  0.08 0.48 0  0.12 0.48 0  0.16 0.48 0  0.2 0.48 0  0.24 0.48 0  0.28 0.48 0  0.32 0.48 0  0.36 0.48 0  0.4 0.48 0  0.44 0.48 0  0.48 0.48 0  0.52 0.48 0  0.5600000000000001 0.48 0  0.6 0.48 0  0.64 0.48 0  0.68 0.48 0  0.72 0.48 0  0.76 0.48 0  0.8 0.48 0  0.84 0.48 0  0.88 0.48 0  0.92 0.48 0  0.96 0.48 0  1 0.48 0  0 0.52 0  0.04 0.52 0  0.08 0.52 0  0.12 0.52 0  0.16 0.52 0  0.2 0.52 0  0.24 0.52 0  0.28 0.52 0  0.32 0.52 0  0.36 0.52 0  0.4 0.52 0  0.44 0.52 0  0.48 0.52 0  0.52 0.52 0  0.5600000000000001 0.52 0  0.6 0.52 0  0.64 0.52 0  0.68 0.52 0  0.72 0.52 0  0.76 0.52 0  0.8 0.52 0  0.84 0.52 0  0.88 0.52 0  0.92 0.52 0  0.96 0.52 0  1 0.52 0  0 0.5600000000000001 0  0.04 0.5600000000000001 0  0.08 0.5600000000000001 0  0.12 0.5600000000000001 0  0.16 0.5600000000000001 0  0.2 0.5600000000000001 0  0.24 0.5600000000000001 0  0.28 0.5600000000000001 0  0.32 0.5600000000000001 0  0.36 0.5600000000000001 0  0.4 0.5600000000000001 0  0.44 0.5600000000000001 0  0.48 0.5600000000000001 0  0.52 0.5600000000000001 0  0.5600000000000001 0.5600000000000001 0  0.6 0.5600000000000001 0  0.64 0.5600000000000001 0  0.68 0.5600000000000001 0  0.72 0.5600000000000001 0  0.76 0.5600000000000001 0  0.8 0.5600000000000001 0  0.84 0.5600000000000001 0  0.88 0.5600000000000001 0  0.92 0.5600000000000001 0  0.96 0.5600000000000001 0  1 0.5600000000000001 0  0 0.6 0  0.04 0.6 0  0.08 0.6 0  0.12 0.6 0  0.16 0.6 0  0.2 0.6 0  0.24 0.6 0  0.28 0.6 0  0.32 0.6 0  0.36 0.6 0  0.4 0.6 0  0.44 0.6 0  0.48 0.6 0  0.52 0.6 0  0.5600000000000001 0.6 0  0.6 0.6 0  0.64 0.6 0  0.68 0.6 0  0.72 0.6 0  0.76 0.6 0  0.8 0.6 0  0.84 0.6 0  0.88 0.6 0  0.92 0.6 0  0.96 0.6 0  1 0.6 0  0 0.64 0  0.04 0.64 0  0.08 0.64 0  0.12 0.64 0  0.16 0.64 0  0.2 0.64 0  0.24 0.64 0  0.28 0.64 0  0.32 0.64 0  0.36 0.64 0  0.4 0.64 0  0.44 0.64 0  0.48 0.64 0  0.52 0.64 0  0.5600000000000001 0.64 0  0.6 0.64 0  0.64 0.64 0  0.68 0.64 0  0.72 0.64 0  0.76 0.64 0  0.8 0.64 0  0.84 0.64 0  0.88 0.64 0  0.92 0.64 0  0.96 0.64 0  1 0.64 0  0 0.68 0  0.04 0.68 0  0.08 0.68 0  0.12 0.68 0  0.16 0.68 0  0.2 0.68 0  0.24 0.68 0  0.28 0.68 0  0.32 0.68 0  0.36 0.68 0  0.4 0.68 0  0.44 0.68 0  0.48 0.68 0  0.52 0.68 0  0.5600000000000001 0.68 0  0.6 0.68 0  0.64 0.68 0  0.68 0.68 0  0.72 0.68 0  0.76 0.68 0  0.8 0.68 0  0.84 0.68 0  0.88 0.68 0  0.92 0.68 0  0.96 0.68 0  1 0.68 0  0 0.72 0  0.04 0.72 0  0.08 0.72 0  0.12 0.72 0  0.16 0.72 0  0.2 0.72 0  0.24 0.72 0  0.28 0.72 0  0.32 0.72 0  0.36 0.72 0  0.4 0.72 0  0.44 0.72 0  0.48 0.72 0  0.52 0.72 0  0.5600000000000001 0.72 0  0.6 0.72 0  0.64 0.72 0  0.68 0.72 0  0.72 0.72 0  0.76 0.72 0  0.8 0.72 0  0.84 0.72 0  0.88 0.72 0  0.92 0.72 0  0.96 0.72 0  1 0.72 0  0 0.76 0  0.04 0.76 0  0.08 0.76 0  0.12 0.76 0  0.16 0.76 0  0.2 0.76 0  0.24 0.76 0  0.28 0.76 0  0.32 0.76 0  0.36 0.76 0  0.4 0.76 0  0.44 0.76 0  0.48 0.76 0  0.52 0.76 0  0.5600000000000001 0.76 0  0.6 0.76 0  0.64 0.76 0  0.68 0.76 0  0.72 0.76 0  0.76 0.76 0  0.8 0.76 0  0.84 0.76 0  0.88 0.76 0  0.92 0.76 0  0.96 0.76 0  1 0.76 0  0 0.8 0  0.04 0.8 0  0.08 0.8 0  0.12 0.8 0  0.16 0.8 0  0.2 0.8 0  0.24 0.8 0  0.28 0.8 0  0.32 0.8 0  0.36 0.8 0  0.4 0.8 0  0.44 0.8 0  0.48 0.8 0  0.52 0.8 0  0.5600000000000001 0.8 0  0.6 0.8 0  0.64 0.8 0  0.68 0.8 0  0.72 0.8 0  0.76 0.8 0  0.8 0.8 0  0.84 0.8 0  0.88 0.8 0  0.92 0.8 0  0.96 0.8 0  1 0.8 0  0 0.84 0  0.04 0.84 0  0.08 0.84 0  0.12 0.84 0  0.16 0.84 0  0.2 0.84 0  0.24 0.84 0  0.28 0.84 0  0.32 0.84 0  0.36 0.84 0  0.4 0.84 0  0.44 0.84 0  0.48 0.84 0  0.52 0.84 0  0.5600000000000001 0.84 0  0.6 0.84 0  0.64 0.84 0  0.68 0.84 0  0.72 0.84 0  0.76 0.84 0  0.8 0.84 0  0.84 0.84 0  0.88 0.84 0  0.92 0.84 0  0.96 0.84 0  1 0.84 0  0 0.88 0  0.04 0.88 0  0.08 0.88 0  0.12 0.88 0  0.16 0.88 0  0.2 0.88 0  0.24 0.88 0  0.28 0.88 0  0.32 0.88 0  0.36 0.88 0  0.4 0.88 0  0.44 0.88 0  0.48 0.88 0  0.52 0.88 0  0.5600000000000001 0.88 0  0.6 0.88 0  0.64 0.88 0  0.68 0.88 0  0.72 0.88 0  0.76 0.88 0  0.8 0.88 0  0.84 0.88 0  0.88 0.88 0  0.92 0.88 0  0.96 0.88 0  1 0.88 0  0 0.92 0  0.04 0.92 0  0.08 0.92 0  0.12 0.92 0  0.16 0.92 0  0.2 0.92 0  0.24 0.92 0  0.28 0.92 0  0.32 0.92 0  0.36 0.92 0  0.4 0.92 0  0.44 0.92 0  0.48 0.92 0  0.52 0.92 0  0.5600000000000001 0.92 0  0.6 0.92 0  0.64 0.92 0  0.68 0.92 0  0.72 0.92 0  0.76 0.92 0  0.8 0.92 0  0.84 0.92 0  0.88 0.92 0  0.92 0.92 0  0.96 0.92 0  1 0.92 0  0 0.96 0  0.04 0.96 0  0.08 0.96 0  0.12 0.96 0  0.16 0.96 0  0.2 0.96 0  0.24 0.96 0  0.28 0.96 0  0.32 0.96 0  0.36 0.96 0  0.4 0.96 0  0.44 0.96 0  0.48 0.96 0  0.52 0.96 0  0.5600000000000001 0.96 0  0.6 0.96 0  0.64 0.96 0  0.68 0.96 0  0.72 0.96 0  0.76 0.96 0  0.8 0.96 0  0.84 0.96 0  0.88 0.96 0  0.92 0.96 0  0.96 0.96 0  1 0.96 0  0 1 0  0.04 1 0  0.08 1 0  0.12 1 0  0.16 1 0  0.2 1 0  0.24 1 0  0.28 1 0  0.32 1 0  0.36 1 0  0.4 1 0  0.44 1 0  0.48 1 0  0.52 1 0  0.5600000000000001 1 0  0.6 1 0  0.64 1 0  0.68 1 0  0.72 1 0  0.76 1 0  0.8 1 0  0.84 1 0  0.88 1 0  0.92 1 0  0.96 1 0  1 1 0  </DataArray>
</Points>
<Cells>
[...]
<PointData  Scalars="Indicator Function"> 
<DataArray  type="Float64"  Name="Indicator Function"  format="ascii">-1.2345891422681175e-21  1.3414727465789391e-20  3.1680053414894148e-19  3.7235643713685678e-19  5.2774056123944864e-19  -4.6340453107973708e-20  -1.0741361263890094e-21  1.6526274241681264e-18  1.7598817545671378e-18  -7.6896431438115104e-20  7.7737344675254818e-19  1.9583951216600883e-18  3.0092655381050560e-36  -9.5922677515086077e-21  4.6844023694510751e-19  2.8211864419734900e-37  9.4039548065783001e-37  1.7390730940877467e-20  -4.7019774032891500e-38  3.5264830524668625e-38  6.0185310762101120e-36  -1.1754943508222875e-38  1.4105932209867450e-37  -3.0092655381050560e-36  -5.1427877848475078e-39  -8.8162076311671563e-39  -3.0092655381050560e-36  1.5180194886949065e-04  1.0490023298882329e-04  8.1169229780485828e-04  1.5967901218025878e-04  1.3041687738611461e-04  8.3479538939700124e-04  1.9349916234202505e-05  1.1109883076645683e-03  1.6567876748276016e-03  1.3048016501754085e-03  1.7337884049005122e-03  2.0021555935463280e-04  4.1146849290427573e-04  1.6088269695855762e-04  5.4833364391340745e-05  6.2285150642472445e-05  3.4761273896943674e-05  2.2190203693548746e-05  1.4233047133603833e-05  8.9591732355601659e-06  3.9699387082855315e-06  1.2556726378535319e-06  9.9485748653952265e-07  5.2552532316026694e-07  3.5264830524668625e-38  -1.0164783353118969e-20  7.5963384530726004e-05  2.1708182476652595e-04  6.4966563818377160e-05  1.7186027911677841e-03  2.3598446765094751e-05  1.6371688084992205e-03  1.3816271541220177e-03  2.5862196216204091e-03  1.2832438690553018e-03  2.8897009087592170e-03  1.3186798039386705e-03  2.8499846238401712e-03  2.1134192223087880e-04  5.6920994726268874e-04  2.9796036931195997e-04  1.2152817543697062e-04  9.0363342532314933e-05  6.2644865581779204e-05  3.8107567396519457e-05  2.2220651542277257e-05  1.2034259214977764e-05  4.1893301802080335e-06  2.0161959526044156e-06  1.2390928663022284e-06  1.5281426560689738e-37  -1.1846253089247586e-21  1.8311245808563367e-04  3.9517654631951422e-04  1.6455306628861401e-04  2.0270359015371786e-03  9.0993009103242941e-05  2.0511478871729222e-04  1.8191271654676602e-03  4.4284593695602278e-04  2.1761827624490449e-03  4.1424299971321438e-03  2.7313668168755961e-03  4.0069616896571290e-03  8.5387864607540680e-04  1.3117690259037804e-03  5.9784632395554790e-04  2.7749575318743023e-04  2.5799293147898625e-04  1.5310450865272748e-04  8.5906699848165762e-05  4.7234964685400974e-05  2.6051765186057412e-05  1.1215490313174854e-05  3.7312622441296680e-06  2.0963672782928799e-06  3.5264830524668625e-37  -2.6657794431046052e-21  4.3477336945817497e-05  1.9763256030721945e-04  6.1288298810425372e-04  4.0687565939543296e-04  4.0739419443263760e-03  1.3877868130830463e-05  4.3587063857337171e-03  3.1799726829283212e-03  8.0211042627995662e-03  2.6867710571450267e-03  6.1713909857202577e-03  3.6699882814513062e-03  7.5010232191972635e-03  8.2270689950421968e-04  1.4351957494503180e-03  1.1035202893286960e-03  6.1120682888085587e-04  3.2957594162999590e-04  1.8326037457545827e-04  9.8914655391176763e-05  5.2050561283330521e-05  2.5558932442010836e-05  8.4156196291207466e-06  3.2105515882913403e-06  -5.1134004260769507e-37  3.6675423745655370e-36  9.9175618501885150e-05  2.6957928905409548e-05  1.2592633105402633e-05  5.8379849125053294e-04  4.7036325171325314e-03  1.5659329051044319e-03  2.4680224015673929e-04  3.5183481684689590e-03  4.6282955965337783e-03  6.9020921851551120e-03  1.4650604174830396e-02  8.5577900675941985e-03  1.1313919414454371e-02  4.7663843749925546e-03  5.0812309346899729e-03  2.6513370346476686e-03  1.0992096065343079e-03  6.9565184453291152e-04  3.9337298301433135e-04  2.0668158167870063e-04  1.0426915825542053e-04  5.2575129981749143e-05  2.0839463687350247e-05  5.7346891943726334e-06  3.7615819226313200e-37  -7.5249875643718426e-21  5.5628612206382692e-05  3.5015977128319688e-04  3.0446033084318504e-04  5.4780972874232333e-04  1.9356622130278292e-03  1.3851787257972491e-02  1.0044507344999065e-03  1.4797952444126076e-02  2.3036540094318642e-03  2.8594369877451620e-02  1.4531275853840403e-02  2.5456076631763674e-02  2.3803824051853769e-02  2.8954603417009912e-02  7.7207267021899718e-03  3.2569884728592740e-03  2.3510513377292689e-03  1.5834194215657198e-03  8.5896725141874116e-04  4.4066926363715928e-04  2.1932365607306694e-04  1.0751266380818360e-04  4.8827043478302608e-05  1.3727509205543322e-05  7.5231638452626401e-37  -7.6730229838288615e-22  1.3555812476349078e-04  3.0203362121378679e-04  1.2911537060444091e-03  2.0169576148760747e-03  1.0880925305735765e-03  1.0033547870325852e-02  1.4821296768858479e-03  1.6428452491320397e-02  3.4241229405309959e-03  1.2731650651719006e-02  3.9020197834164477e-03  2.3724398948412644e-02  1.7635252424926145e-03  2.1802781121406344e-02  3.5324568645726105e-02  6.0570733682154942e-03  6.8422701607966903e-03  3.7333947532149406e-03  1.9895633137303101e-03  1.0017299207812841e-03  4.8026594511659594e-04  2.2115614919976048e-04  1.0031973587710064e-04  3.3174330052594451e-05  1.4354522799387414e-22  -6.7251204072246584e-21  4.5213845224386078e-04  3.3826308190290866e-04  6.7712396833961375e-04  1.9008357429576106e-04  5.4325171639974150e-03  5.4711849765118389e-03  1.4115392705841718e-02  2.1365553254002082e-02  3.1089845746427033e-02  6.7676170657320111e-03  7.2483029316936240e-03  1.5007045890595675e-04  6.2667641957439490e-03  3.3800817577130928e-03  5.4182974867467070e-03  4.5540655042506121e-03  1.7676777275736213e-02  9.4879055186536769e-03  4.7780872508521944e-03  2.1955171229528724e-03  9.5530066582375428e-04  4.0401254074853686e-04  1.7015234118004883e-04  6.2988600151423079e-05  -7.1897068665924783e-22  -1.9655318384750418e-20  2.8944620286195809e-04  8.4809135888894822e-04  2.0904671587364176e-03  4.6728735075401507e-03  4.5065013502047745e-03  3.0252973294002308e-03  9.5669676843411489e-03  4.0722411045698667e-02  1.1281599808614857e-03  4.9445824699098379e-03  2.4723562822055586e-03  5.8572479633334359e-03  5.2178363304903322e-03  4.8349176676948944e-03  6.8620955064019112e-03  1.1962776501012988e-02  1.3105099095714582e-02  2.0812821089932629e-02  9.1995340069311454e-03  3.6994610829347678e-03  1.4560073024361170e-03  5.7399968590615073e-04  2.2590779301534468e-04  8.6580876996310616e-05  3.0092655381050560e-36  -1.2634922679254461e-20  9.1752025339765400e-04  1.2447451266979380e-03  7.9159187640428510e-04  2.9840591611105705e-03  8.9043281843172208e-03  2.9425767501921659e-02  1.5062528780889369e-02  8.0474043854372422e-03  4.8847764604231297e-03  3.7332295745637766e-03  4.3136005407123316e-03  3.2510379489930348e-03  3.4132120638061809e-03  4.6973510732116735e-03  3.9620187286034522e-03  1.1872559395491941e-02  1.4617201013249984e-02  2.1518635695790198e-02  1.1004134196090965e-02  4.2221592559989179e-03  1.6251244303622258e-03  6.2745829297481564e-04  2.3938892435235087e-04  8.8025805203862067e-05  3.7615819226313200e-36  -3.6043077226474756e-20  6.5964499529758906e-04  9.4095962762652714e-04  2.6595717748845323e-03  4.6433891105618292e-03  7.7844521198902391e-03  1.1177640689657879e-02  3.6637556988862119e-02  5.5592452236150882e-03  4.0408377506132289e-03  5.3398899335095461e-03  4.1824145637065656e-03  2.0698193998424023e-03  4.9750363509013787e-03  3.4657362449492680e-03  7.1105866406610081e-04  4.2275639146993815e-03  1.8255486228780791e-02  2.6870046631724428e-02  6.5433359148693174e-03  4.6694401859930842e-03  1.8535166296868523e-03  6.9336427772789626e-04  2.5447538771892358e-04  8.3201479096004722e-05  1.5046327690525280e-35  3.0092655381050560e-36  9.8616812147056987e-04  1.8608336062734289e-03  2.0741117018046105e-03  2.5329010847745712e-03  1.1227013557178131e-02  2.7721403553740722e-02  6.8779859159522295e-03  9.5680118335726705e-03  4.9317911009006113e-03  4.8362564803755550e-03  3.3292245350326644e-03  3.7315842389452412e-03  3.9262957942927312e-03  3.8429910767380413e-03  6.6477423206299366e-03  4.4525951367253787e-04  9.6684344666176907e-03  1.4711040269289500e-02  2.7184587363084187e-02  8.8686485389578382e-03  2.8716223984249179e-03  9.8421261177588162e-04  3.3947769436296066e-04  1.0364977310882500e-04  3.0092655381050560e-36  3.7615819226313200e-36  1.3894477073488304e-04  3.3818374716078310e-04  2.0672540934513761e-03  5.7691733541804522e-03  8.4647551791078822e-03  1.8377581412000493e-02  1.4244217027046976e-02  7.2619179559134939e-03  6.0829136950242410e-03  3.3637043252452291e-03  5.2791325389871090e-03  3.9383546699239330e-03  1.3575698039669130e-05  8.2499515208168915e-03  5.5675147327657040e-03  1.9451300465993862e-03  1.6217014527213316e-02  3.9607745239654629e-02  1.1349979195711566e-02  7.1011502656308312e-03  3.5779713688146634e-03  1.2875187451936478e-03  4.4478640516836692e-04  1.3977020950679559e-04  4.5138983071575840e-36  -4.1440433563974678e-21  2.3825411610009660e-04  2.5389265581102400e-04  2.1735163294216725e-04  8.4630949263576438e-04  5.9956278168263972e-03  2.5638903095235154e-02  1.0345839135915115e-02  9.4698107502013632e-03  9.9654159394216690e-03  3.4594917980438318e-03  6.6571298607526050e-03  3.4825271844861057e-03  5.4956621402822902e-03  6.4123887468977674e-03  1.4685138822958161e-03  7.9582327185553758e-03  7.1452272599859560e-03  2.2351042437104441e-02  5.3929956034826719e-02  6.6447720543325733e-03  4.0274988890007584e-03  1.3924929157748077e-03  4.7636100535743700e-04  1.5258189380776803e-04  1.5284294276977847e-20  -1.3223292735605544e-21  1.9681296587864951e-04  4.7639955290923209e-04  1.0487493347459721e-03  2.0539486583280304e-03  3.6236718764471191e-03  6.1107506014316994e-03  1.6194767854458669e-02  1.4890384633469594e-02  8.4791189005964159e-03  7.5575794794002782e-03  4.0917767533747967e-03  8.8533539708826586e-03  6.0957253249280521e-03  8.0020271271601681e-05  2.3755070876512820e-02  1.4001977546636280e-02  1.4503163700646844e-02  1.9842636315509584e-02  7.6864701806466920e-03  2.6524041891397847e-03  2.7779469967483279e-03  1.2419216757949341e-03  4.2858033579493040e-04  1.3539027918174436e-04  3.0092655381050560e-36  -3.7615819226313200e-37  7.5179147225659608e-05  2.3376773828339217e-04  6.0289304400813737e-04  1.5346251441598600e-03  3.7171143058945155e-03  8.6101234420072250e-03  2.0865192166604356e-02  1.8931646738247154e-02  6.3278777739625616e-03  1.3720878321347397e-02  1.4539790776562484e-03  1.0079701152870211e-02  1.9501000651667079e-03  9.5070740678381803e-03  1.5079231972880244e-02  8.2399216151942106e-03  4.9397019975396951e-02  2.9020695062042620e-02  5.3486909429477396e-03  2.8321145865047408e-03  1.3079675162297284e-03  8.9013266775535337e-04  3.4548669614174027e-04  1.1128341829603682e-04  2.2569491535787920e-36  -1.4105932209867450e-37  3.4428214128917061e-05  1.0673590915350568e-04  2.9457394804769218e-04  7.8834728448835345e-04  2.0753877997624283e-03  5.2500441683403726e-03  1.1854598361697243e-02  1.0729110082068836e-02  1.9323670246036120e-02  1.7249334973150489e-02  1.7874491390219134e-02  9.7018314769745408e-03  1.1260174154754060e-02  3.1546211501117687e-03  1.6422560448578212e-02  4.6072932936435891e-02  1.6054324092479769e-02  9.0399935456723698e-03  3.6630571790817654e-03  1.2294397681833205e-03  1.4737361960011110e-03  7.1728361886499125e-04  3.0660174023316040e-04  9.9041204589744820e-05  5.0405197763259688e-35  -1.8807909613156600e-37  2.1597799560877841e-05  6.0338206444961621e-05  1.5011734879134532e-04  3.6865961034903658e-04  9.0470785446460902e-04  2.2256589633106055e-03  5.5745828081951903e-03  1.4499704069927106e-02  2.3600117845190161e-02  1.7372294108082009e-02  3.1955770076111549e-02  1.1803605095994795e-02  4.2651144255108672e-02  1.9056805758379064e-02  1.6227959300183479e-02  5.7774371508214274e-02  1.3650369128195993e-02  1.2652658105106859e-03  2.9914547619727242e-03  1.2940838259333498e-03  9.3004828133002974e-04  4.7814039425280792e-04  2.3287779825232699e-04  8.3511845905999131e-05  7.5231638452626401e-37  0.0000000000000000e+00  1.5106496418493806e-05  3.9944493799666090e-05  9.4883143112136378e-05  2.2011978141700349e-04  4.9831898183027125e-04  1.0912782796870970e-03  2.2698156227412376e-03  4.3672219384548253e-03  7.7292035296874740e-03  3.1342161769894904e-04  1.1467425774064779e-02  2.9142510956559127e-02  4.0037351245309867e-03  4.5261412642657352e-02  2.7012481847313353e-02  7.1254069896276679e-03  6.1515966138741005e-03  2.3992550858620144e-03  1.9764139818556716e-03  1.3476527370305056e-03  7.4914684789495641e-04  4.0463825349366700e-04  1.6228903836193521e-04  6.0521933326212694e-05  1.1284745767893960e-36  -3.5264830524668625e-38  9.3503733267567717e-06  2.3949649886294164e-05  5.4519920203308271e-05  1.2162312400688751e-04  2.6609809416926688e-04  5.6517552906260721e-04  1.1521760412997373e-03  2.2279253215051744e-03  4.0226255132644727e-03  6.3373515907862348e-03  4.3567321584340249e-03  5.9407294791172967e-03  8.0551711141627058e-04  2.0588937853224173e-03  3.3761899103038740e-04  3.7699926988438832e-03  2.0825424670330101e-03  1.8236402404637022e-03  1.2423290546734157e-03  9.3172692929879809e-04  4.8456139960579089e-04  2.4361582240413048e-04  1.1827185837885986e-04  4.4396062839123844e-05  6.2555048094968380e-21  5.8774717541114375e-39  5.6957593517783405e-06  1.3966667987308211e-05  3.0218650508595271e-05  6.3996757374192389e-05  1.3263571824300747e-04  2.6638173412765287e-04  5.1310240626062321e-04  9.3938980351971127e-04  1.6207826259001842e-03  2.5801435237612358e-03  3.0761995937611838e-03  2.4198127087420871e-03  3.2334918130695893e-03  1.2556309800346480e-03  2.4738150692306632e-03  1.3768981873420979e-03  1.2691623952515798e-03  1.2422891170800225e-03  8.5817025011990678e-04  4.9410535867811379e-04  2.9136883682831315e-04  1.5107549185341330e-04  7.1547974574569142e-05  2.7327478808185260e-05  9.4039548065783001e-37  -1.4693679385278594e-38  3.3583170156181558e-06  7.8934784562085959e-06  1.6264812859169971e-05  3.2764457535826310e-05  6.4681393780406841e-05  1.2395018241328820e-04  2.2824082913024609e-04  4.0007562004915547e-04  6.6140346914012342e-04  1.0236317969114844e-03  1.4865989699512064e-03  1.6530813817556369e-03  1.6028982611302519e-03  1.4038720402236447e-03  1.0965382371461228e-03  1.2246305281965425e-03  8.5776748226013921e-04  6.1434747419984801e-04  4.5422326307010988e-04  2.8582784694008794e-04  1.6998998846380839e-04  8.5666231380247687e-05  4.1975320833768871e-05  1.7453811765340305e-05  3.7615819226313200e-37  -1.1754943508222875e-38  1.8500763767670673e-06  4.2518363997096596e-06  8.3904896076466221e-06  1.6106438115970143e-05  3.0278429146204799e-05  5.5355358293592625e-05  9.7539316452430099e-05  1.6418496019951788e-04  2.6185716061773271e-04  3.9292035226861375e-04  5.5092835102882689e-04  7.1465010559194941e-04  7.6763403102231558e-04  7.9256071894550164e-04  6.4552592581402265e-04  5.3614243329695407e-04  4.7650312701145000e-04  3.3380879953730697e-04  2.2711323876770291e-04  1.4887610297353377e-04  8.2408343602595433e-05  4.8153704884848073e-05  2.3625264470764938e-05  9.5459538448206627e-06  4.8665466124042703e-36  -2.9387358770557188e-39  7.9756392288530623e-07  1.8810860494162957e-06  3.6461299304623835e-06  6.7684256614341240e-06  1.2237497892997600e-05  2.1513866110349746e-05  3.6531486203957418e-05  5.9448661152981278e-05  9.2052978680830461e-05  1.3493879212306853e-04  1.8684853698925895e-04  2.4372207109897706e-04  2.8594955356985919e-04  2.9518926556801100e-04  2.8478395822992763e-04  2.3826188406094403e-04  1.9384112740773892e-04  1.4271141066003799e-04  9.8894640707084330e-05  6.2977205262081329e-05  3.8502241991519988e-05  2.0581145343632859e-05  1.0664459635447377e-05  4.9312229449963197e-06  -2.4821526369639480e-22  0.0000000000000000e+00  3.5264830524668625e-38  1.8807909613156600e-37  3.5264830524668625e-37  3.8097237095602266e-22  4.7019774032891500e-37  1.3165536729209620e-36  5.2662146916838480e-36  -3.7615819226313200e-36  1.5046327690525280e-36  1.4294011305999016e-35  -3.0092655381050560e-36  9.0277966143151681e-36  9.0277966143151681e-36  2.3440156484189689e-20  1.0532429383367696e-35  6.0185310762101120e-36  7.6736271221678929e-35  3.0092655381050560e-36  4.1377401148944520e-36  6.6670911966310266e-21  7.5231638452626401e-37  4.7019774032891500e-37  6.1243255677841179e-36  -2.4821526369639480e-22  -1.0377536523112303e-22  </DataArray> 
</PointData> 
</Piece>
</UnstructuredGrid>
</VTKFile>