<?xml version="1.0"?>
<VTKFile type="UnstructuredGrid"  version="0.1"  >
<UnstructuredGrid>
<Piece  NumberOfPoints="10201" NumberOfCells="20000">
<Points>
<DataArray  type="Float64"  NumberOfComponents="3"  format="ascii">0 0 0  0.01 0 0  0.02 0 0  0.03 0 0  0.04 0 0  0.05 0 0  0.06 0 0  0.07000000000000001 0 0  0.08 0 0  0.09 0 0  0.1 0 0  0.11 0 0  0.12 0 0  0.13 0 0  0.14 0 0  0.15 0 0  0.16 0 0  0.17 0 0  0.18 0 0  0.19 0 0  0.2 0 0  0.21 0 0  0.22 0 0  0.23 0 0  0.24 0 0  0.25 0 0  0.26 0 0  0.27 0 0  0.28 0 0  0.29 0 0  0.3 0 0  0.31 0 0  0.32 0 0  0.33 0 0  0.34 0 0  0.35 0 0  0.36 0 0  0.37 0 0  0.38 0 0  0.39 0 0  0.4 0 0  0.41 0 0  0.42 0 0  0.43 0 0  0.44 0 0  0.45 0 0  0.46 0 0  0.47 0 0  0.48 0 0  0.49 0 0  0.5 0 0  0.51 0 0  0.52 0 0  0.53 0 0  0.54 0 0  0.55 0 0  0.5600000000000001 0 0  0.57 0 0  0.58 0 0  0.59 0 0  0.6 0 0  0.61 0 0  0.62 0 0  0.63 0 0  0.64 0 0  0.65 0 0  0.66 0 0  0.67 0 0  0.68 0 0  0.6899999999999999 0 0  0.7 0 0  0.71 0 0  0.72 0 0  0.73 0 0  0.74 0 0  0.75 0 0  0.76 0 0  0.77 0 0  0.78 0 0  0.79 0 0  0.8 0 0  0.8100000000000001 0 0  0.82 0 0  0.83 0 0  0.84 0 0  0.85 0 0  0.86 0 0  0.87 0 0  0.88 0 0  0.89 0 0  0.9 0 0  0.91 0 0  0.92 0 0  0.93 0 0  0.9399999999999999 0 0  0.95 0 0  0.96 0 0  0.97 0 0  0.98 0 0  0.99 0 0  1 0 0  0 0.01 0  0.01 0.01 0  0.02 0.01 0  0.03 0.01 0  0.04 0.01 0  0.05 0.01 0  0.06 0.01 0  0.07000000000000001 0.01 0  0.08 0.01 0  0.09 0.01 0  0.1 0.01 0  0.11 0.01 0  0.12 0.01 0  0.13 0.01 0  0.14 0.01 0  0.15 0.01 0  0.16 0.01 0  0.17 0.01 0  0.18 0.01 0  0.19 0.01 0  0.2 0.01 0  0.21 0.01 0  0.22 0.01 0  0.23 0.01 0  0.24 0.01 0  0.25 0.01 0  0.26 0.01 0  0.27 0.01 0  0.28 0.01 0  0.29 0.01 0  0.3 0.01 0  0.31 0.01 0  0.32 0.01 0  0.33 0.01 0  0.34 0.01 0  0.35 0.01 0  0.36 0.01 0  0.37 0.01 0  0.38 0.01 0  0.39 0.01 0  0.4 0.01 0  0.41 0.01 0  0.42 0.01 0  0.43 0.01 0  0.44 0.01 0  0.45 0.01 0  0.46 0.01 0  0.47 0.01 0  0.48 0.01 0  0.49 0.01 0  0.5 0.01 0  0.51 0.01 0  0.52 0.01 0  0.53 0.01 0  0.54 0.01 0  0.55 0.01 0  0.5600000000000001 0.01 0  0.57 0.01 0  0.58 0.01 0  0.59 0.01 0  0.6 0.01 0  0.61 0.01 0  0.62 0.01 0  0.63 0.01 0  0.64 0.01 0  0.65 0.01 0  0.66 0.01 0  0.67 0.01 0  0.68 0.01 0  0.6899999999999999 0.01 0  0.7 0.01 0  0.71 0.01 0  0.72 0.01 0  0.73 0.01 0  0.74 0.01 0  0.75 0.01 0  0.76 0.01 0  0.77 0.01 0  0.78 0.01 0  0.79 0.01 0  0.8 0.01 0  0.8100000000000001 0.01 0  0.82 0.01 0  0.83 0.01 0  0.84 0.01 0  0.85 0.01 0  0.86 0.01 0  0.87 0.01 0  0.88 0.01 0  0.89 0.01 0  0.9 0.01 0  0.91 0.01 0  0.92 0.01 0  0.93 0.01 0  0.9399999999999999 0.01 0  0.95 0.01 0  0.96 0.01 0  0.97 0.01 0  0.98 0.01 0  0.99 0.01 0  1 0.01 0  0 0.02 0  0.01 0.02 0  0.02 0.02 0  0.03 0.02 0  0.04 0.02 0  0.05 0.02 0  0.06 0.02 0  0.07000000000000001 0.02 0  0.08 0.02 0  0.09 0.02 0  0.1 0.02 0  0.11 0.02 0  0.12 0.02 0  0.13 0.02 0  0.14 0.02 0  0.15 0.02 0  0.16 0.02 0  0.17 0.02 0  0.18 0.02 0  0.19 0.02 0  0.2 0.02 0  0.21 0.02 0  0.22 0.02 0  0.23 0.02 0  0.24 0.02 0  0.25 0.02 0  0.26 0.02 0  0.27 0.02 0  0.28 0.02 0  0.29 0.02 0  0.3 0.02 0  0.31 0.02 0  0.32 0.02 0  0.33 0.02 0  0.34 0.02 0  0.35 0.02 0  0.36 0.02 0  0.37 0.02 0  0.38 0.02 0  0.39 0.02 0  0.4 0.02 0  0.41 0.02 0  0.42 0.02 0  0.43 0.02 0  0.44 0.02 0  0.45 0.02 0  0.46 0.02 0  0.47 0.02 0  0.48 0.02 0  0.49 0.02 0  0.5 0.02 0  0.51 0.02 0  0.52 0.02 0  0.53 0.02 0  0.54 0.02 0  0.55 0.02 0  0.5600000000000001 0.02 0  0.57 0.02 0  0.58 0.02 0  0.59 0.02 0  0.6 0.02 0  0.61 0.02 0  0.62 0.02 0  0.63 0.02 0  0.64 0.02 0  0.65 0.02 0  0.66 0.02 0  0.67 0.02 0  0.68 0.02 0  0.6899999999999999 0.02 0  0.7 0.02 0  0.71 0.02 0  0.72 0.02 0  0.73 0.02 0  0.74 0.02 0  0.75 0.02 0  0.76 0.02 0  0.77 0.02 0  0.78 0.02 0  0.79 0.02 0  0.8 0.02 0  0.8100000000000001 0.02 0  0.82 0.02 0  0.83 0.02 0  0.84 0.02 0  0.85 0.02 0  0.86 0.02 0  0.87 0.02 0  0.88 0.02 0  0.89 0.02 0  0.9 0.02 0  0.91 0.02 0  0.92 0.02 0  0.93 0.02 0  0.9399999999999999 0.02 0  0.95 0.02 0  0.96 0.02 0  0.97 0.02 0  0.98 0.02 0  0.99 0.02 0  1 0.02 0  0 0.03 0  0.01 0.03 0  0.02 0.03 0  0.03 0.03 0  0.04 0.03 0  0.05 0.03 0  0.06 0.03 0  0.07000000000000001 0.03 0  0.08 0.03 0  0.09 0.03 0  0.1 0.03 0  0.11 0.03 0  0.12 0.03 0  0.13 0.03 0  0.14 0.03 0  0.15 0.03 0  0.16 0.03 0  0.17 0.03 0  0.18 0.03 0  0.19 0.03 0  0.2 0.03 0  0.21 0.03 0  0.22 0.03 0  0.23 0.03 0  0.24 0.03 0  0.25 0.03 0  0.26 0.03 0  0.27 0.03 0  0.28 0.03 0  0.29 0.03 0  0.3 0.03 0  0.31 0.03 0  0.32 0.03 0  0.33 0.03 0  0.34 0.03 0  0.35 0.03 0  0.36 0.03 0  0.37 0.03 0  0.38 0.03 0  0.39 0.03 0  0.4 0.03 0  0.41 0.03 0  0.42 0.03 0  0.43 0.03 0  0.44 0.03 0  0.45 0.03 0  0.46 0.03 0  0.47 0.03 0  0.48 0.03 0  0.49 0.03 0  0.5 0.03 0  0.51 0.03 0  0.52 0.03 0  0.53 0.03 0  0.54 0.03 0  0.55 0.03 0  0.5600000000000001 0.03 0  0.57 0.03 0  0.58 0.03 0  0.59 0.03 0  0.6 0.03 0  0.61 0.03 0  0.62 0.03 0  0.63 0.03 0  0.64 0.03 0  0.65 0.03 0  0.66 0.03 0  0.67 0.03 0  0.68 0.03 0  0.6899999999999999 0.03 0  0.7 0.03 0  0.71 0.03 0  0.72 0.03 0  0.73 0.03 0  0.74 0.03 0  0.75 0.03 0  0.76 0.03 0  0.77 0.03 0  0.78 0.03 0  0.79 0.03 0  0.8 0.03 0  0.8100000000000001 0.03 0  0.82 0.03 0  0.83 0.03 0  0.84 0.03 0  0.85 0.03 0  0.86 0.03 0  0.87 0.03 0  0.88 0.03 0  0.89 0.03 0  0.9 0.03 0  0.91 0.03 0  0.92 0.03 0  0.93 0.03 0  0.9399999999999999 0.03 0  0.95 0.03 0  0.96 0.03 0  0.97 0.03 0  0.98 0.03 0  0.99 0.03 0  1 0.03 0  0 0.04 0  0.01 0.04 0  0.02 0.04 0  0.03 0.04 0  0.04 0.04 0  0.05 0.04 0  0.06 0.04 0  0.07000000000000001 0.04 0  0.08 0.04 0  0.09 0.04 0  0.1 0.04 0  0.11 0.04 0  0.12 0.04 0  0.13 0.04 0  0.14 0.04 0  0.15 0.04 0  0.16 0.04 0  0.17 0.04 0  0.18 0.04 0  0.19 0.04 0  0.2 0.04 0  0.21 0.04 0  0.22 0.04 0  0.23 0.04 0  0.24 0.04 0  0.25 0.04 0  0.26 0.04 0  0.27 0.04 0  0.28 0.04 0  0.29 0.04 0  0.3 0.04 0  0.31 0.04 0  0.32 0.04 0  0.33 0.04 0  0.34 0.04 0  0.35 0.04 0  0.36 0.04 0  0.37 0.04 0  0.38 0.04 0  0.39 0.04 0  0.4 0.04 0  0.41 0.04 0  0.42 0.04 0  0.43 0.04 0  0.44 0.04 0  0.45 0.04 0  0.46 0.04 0  0.47 0.04 0  0.48 0.04 0  0.49 0.04 0  0.5 0.04 0  0.51 0.04 0  0.52 0.04 0  0.53 0.04 0  0.54 0.04 0  0.55 0.04 0  0.5600000000000001 0.04 0  0.57 0.04 0  0.58 0.04 0  0.59 0.04 0  0.6 0.04 0  0.61 0.04 0  0.62 0.04 0  0.63 0.04 0  0.64 0.04 0  0.65 0.04 0  0.66 0.04 0  0.67 0.04 0  0.68 0.04 0  0.6899999999999999 0.04 0  0.7 0.04 0  0.71 0.04 0  0.72 0.04 0  0.73 0.04 0  0.74 0.04 0  0.75 0.04 0  0.76 0.04 0  0.77 0.04 0  0.78 0.04 0  0.79 0.04 0  0.8 0.04 0  0.8100000000000001 0.04 0  0.82 0.04 0  0.83 0.04 0  0.84 0.04 0  0.85 0.04 0  0.86 0.04 0  0.87 0.04 0  0.88 0.04 0  0.89 0.04 0  0.9 0.04 0  0.91 0.04 0  0.92 0.04 0  0.93 0.04 0  0.9399999999999999 0.04 0  0.95 0.04 0  0.96 0.04 0  0.97 0.04 0  0.98 0.04 0  0.99 0.04 0  1 0.04 0  0 0.05 0  0.01 0.05 0  0.02 0.05 0  0.03 0.05 0  0.04 0.05 0  0.05 0.05 0  0.06 0.05 0  0.07000000000000001 0.05 0  0.08 0.05 0  0.09 0.05 0  0.1 0.05 0  0.11 0.05 0  0.12 0.05 0  0.13 0.05 0  0.14 0.05 0  0.15 0.05 0  0.16 0.05 0  0.17 0.05 0  0.18 0.05 0  0.19 0.05 0  0.2 0.05 0  0.21 0.05 0  0.22 0.05 0  0.23 0.05 0  0.24 0.05 0  0.25 0.05 0  0.26 0.05 0  0.27 0.05 0  0.28 0.05 0  0.29 0.05 0  0.3 0.05 0  0.31 0.05 0  0.32 0.05 0  0.33 0.05 0  0.34 0.05 0  0.35 0.05 0  0.36 0.05 0  0.37 0.05 0  0.38 0.05 0  0.39 0.05 0  0.4 0.05 0  0.41 0.05 0  0.42 0.05 0  0.43 0.05 0  0.44 0.05 0  0.45 0.05 0  0.46 0.05 0  0.47 0.05 0  0.48 0.05 0  0.49 0.05 0  0.5 0.05 0  0.51 0.05 0  0.52 0.05 0  0.53 0.05 0  0.54 0.05 0  0.55 0.05 0  0.5600000000000001 0.05 0  0.57 0.05 0  0.58 0.05 0  0.59 0.05 0  0.6 0.05 0  0.61 0.05 0  0.62 0.05 0  0.63 0.05 0  0.64 0.05 0  0.65 0.05 0  0.66 0.05 0  0.67 0.05 0  0.68 0.05 0  0.6899999999999999 0.05 0  0.7 0.05 0  0.71 0.05 0  0.72 0.05 0  0.73 0.05 0  0.74 0.05 0  0.75 0.05 0  0.76 0.05 0  0.77 0.05 0  0.78 0.05 0  0.79 0.05 0  0.8 0.05 0  0.8100000000000001 0.05 0  0.82 0.05 0  0.83 0.05 0  0.84 0.05 0  0.85 0.05 0  0.86 0.05 0  0.87 0.05 0  0.88 0.05 0  0.89 0.05 0  0.9 0.05 0  0.91 0.05 0  0.92 0.05 0  0.93 0.05 0  0.9399999999999999 0.05 0  0.95 0.05 0  0.96 0.05 0  0.97 0.05 0  0.98 0.05 0  0.99 0.05 0  1 0.05 0  0 0.06 0  0.01 0.06 0  0.02 0.06 0  0.03 0.06 0  0.04 0.06 0  0.05 0.06 0  0.06 0.06 0  0.07000000000000001 0.06 0  0.08 0.06 0  0.09 0.06 0  0.1 0.06 0  0.11 0.06 0  0.12 0.06 0  0.13 0.06 0  0.14 0.06 0  0.15 0.06 0  0.16 0.06 0  0.17 0.06 0  0.18 0.06 0  0.19 0.06 0  0.2 0.06 0  0.21 0.06 0  0.22 0.06 0  0.23 0.06 0  0.24 0.06 0  0.25 0.06 0  0.26 0.06 0  0.27 0.06 0  0.28 0.06 0  0.29 0.06 0  0.3 0.06 0  0.31 0.06 0  0.32 0.06 0  0.33 0.06 0  0.34 0.06 0  0.35 0.06 0  0.36 0.06 0  0.37 0.06 0  0.38 0.06 0  0.39 0.06 0  0.4 0.06 0  0.41 0.06 0  0.42 0.06 0  0.43 0.06 0  0.44 0.06 0  0.45 0.06 0  0.46 0.06 0  0.47 0.06 0  0.48 0.06 0  0.49 0.06 0  0.5 0.06 0  0.51 0.06 0  0.52 0.06 0  0.53 0.06 0  0.54 0.06 0  0.55 0.06 0  0.5600000000000001 0.06 0  0.57 0.06 0  0.58 0.06 0  0.59 0.06 0  0.6 0.06 0  0.61 0.06 0  0.62 0.06 0  0.63 0.06 0  0.64 0.06 0  0.65 0.06 0  0.66 0.06 0  0.67 0.06 0  0.68 0.06 0  0.6899999999999999 0.06 0  0.7 0.06 0  0.71 0.06 0  0.72 0.06 0  0.73 0.06 0  0.74 0.06 0  0.75 0.06 0  0.76 0.06 0  0.77 0.06 0  0.78 0.06 0  0.79 0.06 0  0.8 0.06 0  0.8100000000000001 0.06 0  0.82 0.06 0  0.83 0.06 0  0.84 0.06 0  0.85 0.06 0  0.86 0.06 0  0.87 0.06 0  0.88 0.06 0  0.89 0.06 0  0.9 0.06 0  0.91 0.06 0  0.92 0.06 0  0.93 0.06 0  0.9399999999999999 0.06 0  0.95 0.06 0  0.96 0.06 0  0.97 0.06 0  0.98 0.06 0  0.99 0.06 0  1 0.06 0  0 0.07000000000000001 0  0.01 0.07000000000000001 0  0.02 0.07000000000000001 0  0.03 0.07000000000000001 0  0.04 0.07000000000000001 0  0.05 0.07000000000000001 0  0.06 0.07000000000000001 0  0.07000000000000001 0.07000000000000001 0  0.08 0.07000000000000001 0  0.09 0.07000000000000001 0  0.1 0.07000000000000001 0  0.11 0.07000000000000001 0  0.12 0.07000000000000001 0  0.13 0.07000000000000001 0  0.14 0.07000000000000001 0  0.15 0.07000000000000001 0  0.16 0.07000000000000001 0  0.17 0.0700
[...]
<PointData  Scalars="u"> 
<DataArray  type="Float64"  Name="u"  format="ascii">0.0000000000000000e+00  0.0000000000000000e+00  0.0000000000000000e+00  0.0000000000000000e+00  0.0000000000000000e+00  0.0000000000000000e+00  0.0000000000000000e+00  0.0000000000000000e+00  0.0000000000000000e+00  0.0000000000000000e+00  0.0000000000000000e+00  0.0000000000000000e+00  0.0000000000000000e+00  0.0000000000000000e+00  0.0000000000000000e+00  0.0000000000000000e+00  0.0000000000000000e+00  0.0000000000000000e+00  0.0000000000000000e+00  0.0000000000000000e+00  0.0000000000000000e+00  0.0000000000000000e+00  0.0000000000000000e+00  0.0000000000000000e+00  0.0000000000000000e+00  0.0000000000000000e+00  0.0000000000000000e+00  0.0000000000000000e+00  0.0000000000000000e+00  0.0000000000000000e+00  0.0000000000000000e+00  0.0000000000000000e+00  0.0000000000000000e+00  0.0000000000000000e+00  0.0000000000000000e+00  0.0000000000000000e+00  0.0000000000000000e+00  0.0000000000000000e+00  0.0000000000000000e+00  0.0000000000000000e+00  0.0000000000000000e+00  0.0000000000000000e+00  0.0000000000000000e+00  0.0000000000000000e+00  0.0000000000000000e+00  0.0000000000000000e+00  0.0000000000000000e+00  0.0000000000000000e+00  0.0000000000000000e+00  0.0000000000000000e+00  0.0000000000000000e+00  0.0000000000000000e+00  0.0000000000000000e+00  0.0000000000000000e+00  0.0000000000000000e+00  0.0000000000000000e+00  0.0000000000000000e+00  0.0000000000000000e+00  0.0000000000000000e+00  0.0000000000000000e+00  0.0000000000000000e+00  0.0000000000000000e+00  0.0000000000000000e+00  0.0000000000000000e+00  0.0000000000000000e+00  0.0000000000000000e+00  0.0000000000000000e+00  0.0000000000000000e+00  0.0000000000000000e+00  0.0000000000000000e+00  0.0000000000000000e+00  0.0000000000000000e+00  0.0000000000000000e+00  0.0000000000000000e+00  0.0000000000000000e+00  0.0000000000000000e+00  0.0000000000000000e+00  0.0000000000000000e+00  0.0000000000000000e+00  0.0000000000000000e+00  0.0000000000000000e+00  0.0000000000000000e+00  0.0000000000000000e+00  0.0000000000000000e+00  0.0000000000000000e+00  0.0000000000000000e+00  0.0000000000000000e+00  0.0000000000000000e+00  0.0000000000000000e+00  0.0000000000000000e+00  0.0000000000000000e+00  0.0000000000000000e+00  0.0000000000000000e+00  0.0000000000000000e+00  0.0000000000000000e+00  0.0000000000000000e+00  0.0000000000000000e+00  0.0000000000000000e+00  0.0000000000000000e+00  0.0000000000000000e+00  0.0000000000000000e+00  0.0000000000000000e+00  1.3031598743665604e-09  2.6917984253271368e-09  4.1857906957325807e-09  5.8060854817911697e-09  7.5753459290587650e-09  9.5181160882404135e-09  1.1660991637071788e-08  1.4032787015053394e-08  1.6664694895393571e-08  1.9590434031660425e-08  2.2846381030586112e-08  2.6471680987427031e-08  3.0508331279059875e-08  3.5001232183281563e-08  3.9998197412150104e-08  4.5549917145924286e-08  5.1709865769628811e-08  5.8534146288304585e-08  6.6081263375260989e-08  7.4411817238437342e-08  8.3588111022551749e-08  9.3673665346857541e-08  1.0473263485347487e-07  1.1682912334496009e-07  1.3002639624566574e-07  1.4438599173693568e-07  1.5996673497797893e-07  1.7682366329408364e-07  1.9500687402467498e-07  2.1456031077718089e-07  2.3552050799770973e-07  2.5791531788326613e-07  2.8176264753109270e-07  3.0706923763444133e-07  3.3382951676259325e-07  3.6202456707610014e-07  3.9162123800801420e-07  4.2257144379852946e-07  4.5481167865922513e-07  4.8826277968064765e-07  5.2282996237555964e-07  5.5840314704868831e-07  5.9485758617283961e-07  6.3205479389297344e-07  6.6984376901959577e-07  7.0806249282434235e-07  7.4653967307393612e-07  7.8509669651286711e-07  8.2354974389750241e-07  8.6171201511876504e-07  8.9939600727748475e-07  9.3641578604765654e-07  9.7258919041273033e-07  1.0077399128962433e-06  1.0416994016113202e-06  1.0743085365873761e-06  1.1054190405611211e-06  1.1348945933335922e-06  1.1626116284418837e-06  1.1884598008072692e-06  1.2123421237518582e-06  1.2341747829193623e-06  1.2538866428536318e-06  1.2714184690238620e-06  1.2867218937687665e-06  1.2997581588843249e-06  1.3104966704057709e-06  1.3189134026133286e-06  1.3249891885621234e-06  1.3287079336839674e-06  1.3300547874449868e-06  1.3290143058946722e-06  1.3255686354342373e-06  1.3196957454791921e-06  1.3113677350857189e-06  1.3005492362191202e-06  1.2871959343011048e-06  1.2712532250849996e-06  1.2526550258463811e-06  1.2313227583835460e-06  1.2071645214123960e-06  1.1800744706037872e-06  1.1499324257164509e-06  1.1166037259745297e-06  1.0799393569581762e-06  1.0397763747363313e-06  9.9593865567672977e-07  9.4823800321054495e-07  8.9647564568517614e-07  8.4044416217180373e-07  7.7992987554949758e-07  7.1471575418565299e-07  6.4458486484981903e-07  5.6932441980824631e-07  4.8873045970688969e-07  4.0261320901601683e-07  3.1080312511719247e-07  2.1315759827791445e-07  1.0956801213358180e-07  0.0000000000000000e+00  0.0000000000000000e+00  2.8732389320365669e-09  5.9354791249536282e-09  9.2301478005751103e-09  1.2803558863036842e-08  1.6705797387548638e-08  2.0991108528324777e-08  2.5718280331836912e-08  3.0951016162750481e-08  3.6758289917255923e-08  4.3214675649403490e-08  5.0400641836656381e-08  5.8402799070885794e-08  6.7314088508822013e-08  7.7233897003998180e-08  8.8268083532237828e-08  1.0052890038662040e-07  1.1413479173844684e-07  1.2921005163131621e-07  1.4588432339834879e-07  1.6429192297652995e-07  1.8457096974824449e-07  2.0686231047670329e-07  2.3130822471823131e-07  2.5805090387211497e-07  2.8723070082351609e-07  3.1898415296635415e-07  3.5344178823422567e-07  3.9072573153545127e-07  4.3094713753555402e-07  4.7420348483802468e-07  5.2057577598905967e-07  5.7012569700826057e-07  6.2289279889317816e-07  6.7889177127672077e-07  7.3810988461553105e-07  8.0050468143114532e-07  8.6600199871681592e-07  9.3449440222699745e-07  1.0058401086508842e-06  1.0798624634420931e-06  1.1563500303125942e-06  1.2350573332757301e-06  1.3157062740272152e-06  1.3979882269797963e-06  1.4815667922035363e-06  1.5660811638129766e-06  1.6511500490343780e-06  1.7363760523739373e-06  1.8213504210566505e-06  1.9056580331798843e-06  1.9888824996204866e-06  2.0706112452160355e-06  2.1504404344064031e-06  2.2279796113760915e-06  2.3028559344948816e-06  2.3747178989612259e-06  2.4432384592309749e-06  2.5081174831209002e-06  2.5690834913711546e-06  2.6258946588694688e-06  2.6783390756626320e-06  2.7262342863954817e-06  2.7694261451658520e-06  2.8077870383958238e-06  2.8412135408292774e-06  2.8696235790118260e-06  2.8929531826213972e-06  2.9111529069927872e-06  2.9241840104475071e-06  2.9320144680303513e-06  2.9346148994557929e-06  2.9319544839964807e-06  2.9239969292135642e-06  2.9106965543151915e-06  2.8919945429664205e-06  2.8678154149296603e-06  2.8380637612881713e-06  2.8026212844221906e-06  2.7613441815225234e-06  2.7140609093280224e-06  2.6605703679870934e-06  2.6006405434422041e-06  2.5340076504441110e-06  2.4603758221031228e-06  2.3794173966252298e-06  2.2907738573774176e-06  2.1940574884652517e-06  2.0888538143460138e-06  1.9747248983723432e-06  1.8512135812653138e-06  1.7178487460170001e-06  1.5741517002422201e-06  1.4196437700941755e-06  1.2538552009766253e-06  1.0763354586603637e-06  8.8666501892121510e-07  6.8446872377578171e-07  4.6943078104470694e-07  2.4131174026528722e-07  0.0000000000000000e+00  0.0000000000000000e+00  4.7559467436021717e-09  9.8251813642069951e-09  1.5279564400972852e-08  2.1196011394803698e-08  2.7657719767396509e-08  3.4754818018649214e-08  4.2585008337398372e-08  5.1254192341925494e-08  6.0877068630524303e-08  7.1577688342679236e-08  8.3489952479799933e-08  9.6758032255293595e-08  1.1153669126194206e-07  1.2799148583063220e-07  1.4629881770537794e-07  1.6664581119379002e-07  1.8922998540855624e-07  2.1425869125185974e-07  2.4194828258498010e-07  2.7252299175542396e-07  3.0621348151495047e-07  3.4325504854157116e-07  3.8388545845028575e-07  4.2834239848625356e-07  4.7686054214213356e-07  5.2966822976979375e-07  5.8698378082838232e-07  6.4901146659315445e-07  7.1593718669841689e-07  7.8792390843647991e-07  8.6510694378630108e-07  9.4758915507646292e-07  1.0354361952564828e-06  1.1286719021225278e-06  1.2272739766221369e-06  1.3311700826362075e-06  1.4402345085353738e-06  1.5542855285678618e-06  1.6730835941666852e-06  1.7963304712165831e-06  1.9236694191463512e-06  2.0546864817070734e-06  2.1889129281278967e-06  2.3258288480442112e-06  2.4648678655417565e-06  2.6054228985051492e-06  2.7468528510382559e-06  2.8884900909509298e-06  3.0296485330443150e-06  3.1696321238570557e-06  3.3077435060349280e-06  3.4432926315276725e-06  3.5756050928896141e-06  3.7040299510388864e-06  3.8279468553742976e-06  3.9467722771519011e-06  4.0599647080877640e-06  4.1670287116015651e-06  4.2675177521105872e-06  4.3610357664609449e-06  4.4472374791715789e-06  4.5258274980973651e-06  4.5965582581043004e-06  4.6592269064443190e-06  4.7136712441346356e-06  4.7597648525599181e-06  4.7974115438296866e-06  4.8265392775270412e-06  4.8470936859914169e-06  4.8590313459615104e-06  4.8623129271324666e-06  4.8568963388556491e-06  4.8427299857120414e-06  4.8197462318429217e-06  4.7878551634515334e-06  4.7469387294120210e-06  4.6968453319272782e-06  4.6373849330301918e-06  4.5683247386649358e-06  4.4893855202456130e-06  4.4002386339948128e-06  4.3005038009520057e-06  4.1897477151706258e-06  4.0674835540869326e-06  3.9331714730799515e-06  3.7862201755369252e-06  3.6259896599341075e-06  3.4517952561371959e-06  3.2629130738732855e-06  3.0585869966368278e-06  2.8380373636230096e-06  2.6004714900351663e-06  2.3450961816257916e-06  2.0711324018836253e-06  1.7778322491712869e-06  1.4644983960873982e-06  1.1305061363432419e-06  7.7532818455678967e-07  3.9856247007926376e-07  0.0000000000000000e+00  0.0000000000000000e+00  7.0040505122571770e-09  1.4470056459063339e-08  2.2504121692528777e-08  3.1220033698552795e-08  4.0740912045569730e-08  5.1200179308631763e-08  6.2742524250284394e-08  7.5524841776769660e-08  8.9717132576760468e-08  1.0550334189465538e-07  1.2308211323708061e-07  1.4266742904808385e-07  1.6448910659791309e-07  1.8879311362353206e-07  2.1584166478050339e-07  2.4591305689278372e-07  2.7930119852854419e-07  3.1631478782583929e-07  3.5727609200768994e-07  4.0251928294795160e-07  4.5238828577373285e-07  5.0723410211121831e-07  5.6741157647431761e-07  6.3327558369452518e-07  7.0517662736678831e-07  7.8345585412049737e-07  8.6843950607856227e-07  9.6043285395579241e-07  1.0597136755131566e-06  1.1665253679772947e-06  1.2810698078014896e-06  1.4035000958278019e-06  1.5339133493645328e-06  1.6723437236167905e-06  1.8187558618950685e-06  1.9730389856389350e-06  2.1350018401479870e-06  2.3043687087865644e-06  2.4807766963673741e-06  2.6637744608445481e-06  2.8528225412558484e-06  3.0472953894939605e-06  3.2464851649975187e-06  3.4496072964652449e-06  3.6558077553875964e-06  3.8641719251821797e-06  4.0737348899364647e-06  4.2834929112491767e-06  4.4924158133784772e-06  4.6994599585121732e-06  4.9035814676346248e-06  5.1037493296780309e-06  5.2989580431299831e-06  5.4882394499093717e-06  5.6706734501781986e-06  5.8453973271423516e-06  6.0116134605145305e-06  6.1685952634414710e-06  6.3156912373833593e-06  6.4523270997100510e-06  6.5780059968607952e-06  6.6923068693696898e-06  6.7948810819308327e-06  6.8854474705668300e-06  6.9637859890586842e-06  7.0297301578541173e-06  7.0831585309705366e-06  7.1239854006607300e-06  7.1521509568607425e-06  7.1676111099668493e-06  7.1703271726898148e-06  7.1602555810397068e-06  7.1373378172749373e-06  7.1014906801676538e-06  7.0525970312906720e-06  6.9904971311311996e-06  6.9149806663952669e-06  6.8257795603979237e-06  6.7225616522622084e-06  6.6049253279293833e-06  6.4723951867144428e-06  6.3244188311975046e-06  6.1603648753827904e-06  5.9795222759518343e-06  5.7811011036757645e-06  5.5642348861551262e-06  5.3279846684866699e-06  5.0713449546176347e-06  4.7932517083852823e-06  4.4925926088363437e-06  4.1682197685961307e-06  3.8189651359580218e-06  3.4436588100716768e-06  3.0411505031597283e-06  2.6103343831720456e-06  2.1501775240392320e-06  1.6597521784560287e-06  1.1382720680416199e-06  5.8513295777975633e-07  0.0000000000000000e+00  0.0000000000000000e+00  9.6788834801757988e-09  1.9996994232477313e-08  3.1101609373513168e-08  4.3150881967006977e-08  5.6316003360307279e-08  7.0782572991253186e-08  8.6751959781701208e-08  1.0444263397332953e-07  1.2409144550352000e-07  1.4595482016009094e-07  1.7030983957520461e-07  1.9745516572941576e-07  2.2771176516545374e-07  2.6142338272019739e-07  2.9895670947714573e-07  3.4070118507142487e-07  3.8706837074313880e-07  4.3849082697636311e-07  4.9542042856512359e-07  5.5832605093169004e-07  6.2769056492354132e-07  7.0400708357181682e-07  7.8777441382185864e-07  8.7949167940896498e-07  9.7965209812576110e-07  1.0887359178600349e-06  1.2072025409521512e-06  1.3354818953947225e-06  1.4739651436866156e-06  1.6229948549850889e-06  1.7828548024937824e-06  1.9537595843894405e-06  2.1358443013439915e-06  2.3291545549112594e-06  2.5336370566179816e-06  2.7491311553586334e-06  2.9753615985423202e-06  3.2119328384998807e-06  3.4583251784457948e-06  3.7138930208803656e-06  3.9778654355079103e-06  4.2493492041680144e-06  4.5273344284702462e-06  4.8107027042403236e-06  5.0982377788230579e-06  5.3886385167308970e-06  5.6805339105319007e-06  5.9724997918748544e-06  6.2630768266514478e-06  6.5507893225210397e-06  6.8341643396166663e-06  7.1117505784112162e-06  7.3821365234345419e-06  7.6439673474781885e-06  7.8959601265230995e-06  8.1369169781566972e-06  8.3657358120812484e-06  8.5814184662035339e-06  8.7830760911913028e-06  8.9699317357728065e-06  9.1413201702699716e-06  9.2966850633122443e-06  9.4355736935718896e-06  9.5576294327668264e-06  9.6625822770811589e-06  9.7502377314073187e-06  9.8204643650405005e-06  9.8731803599059960e-06  9.9083393647919789e-06  9.9259159534110565e-06  9.9258909625791750e-06  9.9082369615318926e-06  9.8729040764280497e-06  9.8198063672436519e-06  9.7488089290956057e-06  9.6597158678163501e-06  9.5522592812861887e-06  9.4260893642789070e-06  9.2807657457775363e-06  9.1157501640115350e-06  8.9304005857887588e-06  8.7239668827995624e-06  8.4955881880681442e-06  8.2442920701077970e-06  7.9689956799962077e-06  7.6685090468353324e-06  7.3415407191343292e-06  6.9867059727210296e-06  6.6025378289437746e-06  6.1875011491910003e-06  5.7400100920695057e-06  5.2584492367920256e-06  4.7411986891903989e-06  4.1866634939688241e-06  3.5933076769561175e-06  2.9596932327195700e-06  2.2845243540146337e-06  1.5666971669327104e-06  8.0535531317931894e-07  0.0000000000000000e+00  0.0000000000000000e+00  1.2851643174878993e-08  2.6553320654344449e-08  4.1301747816269938e-08  5.7308393695891911e-08  7.4802270382408956e-08  9.4031798199412599e-08  1.1526666349377697e-07  1.3879964120671624e-07  1.6494835022287528e-07  1.9405690280579927e-07  2.2649740228589937e-07  2.6267123568775263e-07  3.0301010033400648e-07  3.4797669586140064e-07  3.9806500580778001e-07  4.5380008631975694e-07  5.1573727399886360e-07  5.8446072092665680e-07  6.6058116302532940e-07  7.4473282871074462e-07  8.3756939890488285e-07  9.3975893753035338e-07  1.0519777242241028e-06  1.1749029387298451e-06  1.3092041696939155e-06  1.4555337496603695e-06  1.6145159529666984e-06  1.7867351337112053e-06  1.9727229263655465e-06  2.1729446808964957e-06  2.3877853559449874e-06  2.6175351457309435e-06  2.8623751665095600e-06  3.1223635738161745e-06  3.3974225193404479e-06  3.6873263828762243e-06  3.9916917272785032e-06  4.3099694199008030e-06  4.6414393403184176e-06  4.9852080498159757e-06  5.3402097327369384e-06  5.7052106342120668e-06  6.0788171152205281e-06  6.4594873279878497e-06  6.8455463872647772e-06  7.2352047819901994e-06  7.6265796438607235e-06  8.0177183713292071e-06  8.4066240062291709e-06  8.7912816815353485e-06  9.1696854074700903e-06  9.5398644423956503e-06  9.8999085059652717e-06  1.0247991134137201e-05  1.0582390546264902e-05  1.0901507489254783e-05  1.1203879637094046e-05  1.1488192249396438e-05  1.1753284923138528e-05  1.1998154400762840e-05  1.2221953519218112e-05  1.2423986493179982e-05  1.2603700817775312e-05  1.2760676149111601e-05  1.2894610573662499e-05  1.3005304710233884e-05  1.3092644102095601e-05  1.3156580354047630e-05  1.3197111452450741e-05  1.3214261678705315e-05  1.3208061491542345e-05  1.3178527713947855e-05  1.3125644319487137e-05  1.3049344072773765e-05  1.2949491241968144e-05  1.2825865569152985e-05  1.2678147658433714e-05  1.2505905922432085e-05  1.2308585215881966e-05  1.2085497280364715e-05  1.1835813126625054e-05  1.1558557489951863e-05  1.1252605509173050e-05  1.0916681800143361e-05  1.0549362119327473e-05  1.0149077841238762e-05  9.7141235040438386e-06  9.2426677094667720e-06  8.7327676950272083e-06  8.1823879273363014e-06  7.5894230932673350e-06  6.9517258898156318e-06  6.2671400317398542e-06  5.5335389068698494e-06  4.7488703103408127e-06  3.9112076787754062e-06  3.0188082209211597e-06  2.0701782995454971e-06  1.0641465050335702e-06  0.0000000000000000e+00  0.0000000000000000e+00  1.6604861411809506e-08  3.4309849705085474e-08  5.3370970507958656e-08  7.4063693047819078e-08  9.6686505966717288e-08  1.2156339880745864e-07  1.4904634007312794e-07  1.7951771611905295e-07  2.1339268919893937e-07  2.5112142398836247e-07  2.9319112225472476e-07  3.4012779517003902e-07  3.9249769227879358e-07  4.5090829561840622e-07  5.1600877730792579e-07  5.8848980952586817e-07  6.6908260774059160e-07  7.5855708198344769e-07  8.5771896760544289e-07  9.6740580715179618e-07  1.0884816596045004e-06  1.2218304231870425e-06  1.3683476740881482e-06  1.5289309466598716e-06  1.7044684115544487e-06  1.8958259473343329e-06  2.1038326484563648e-06  2.3292648679191015e-06  2.5728289554926173e-06  2.8351429209558500e-06  3.1167173241309241e-06  3.4179357670310964e-06  3.7390354347701115e-06  4.0800881970679994e-06  4.4409828368347352e-06  4.8214090117849614e-06  5.2208435747449442e-06  5.6385398740549512e-06  6.0735206238135035e-06  6.5245748723864364e-06  6.9902595058808505e-06  7.4689056022650878e-06  7.9586298046339792e-06  8.4573507139736372e-06  8.9628101197994483e-06  9.4725986999502068e-06  9.9841856384239373e-06  1.0494951442658395e-05  1.1002223098965728e-05  1.1503310595666511e-05  1.1995543774711758e-05  1.2476308448650905e-05  1.2943080742268950e-05  1.3393458685655696e-05  1.3825190193597558e-05  1.4236196708222519e-05  1.4624591949109592e-05  1.4988695397749324e-05  1.5327040331093483e-05  1.5638376402135621e-05  1.5921666935273012e-05  1.6176081253473946e-05  1.6400982477819900e-05  1.6595911334714269e-05  1.6760566570912631e-05  1.6894782612362060e-05  1.6998505112027229e-05  1.7071765017995790e-05  1.7114651760539350e-05  1.7127286110187941e-05  1.7109793203028110e-05  1.7062276168877504e-05  1.6984790736790664e-05  1.6877321133973937e-05  1.6739757541425866e-05  1.6571875324577860e-05  1.6373316221327844e-05  1.6143571643982253e-05  1.5881968236063438e-05  1.5587655819581670e-05  1.5259597872740804e-05  1.4896564691397801e-05  1.4497129408975439e-05  1.4059667077828911e-05  1.3582357049068556e-05  1.3063188926236831e-05  1.2499972409638932e-05  1.1890351391077668e-05  1.1231822701699629e-05  1.0521759956985245e-05  9.7574429808549328e-06  8.9360933235252861e-06  8.0549164130764759e-06  7.1111508964356447e-06  6.1021257291543735e-06  5.0253255621763761e-06  3.8784649446067213e-06  2.6595718113207665e-06  1.3670808183061356e-06  0.0000000000000000e+00  0.0000000000000000e+00  2.1034061358057759e-08  4.3464324113993220e-08  6.7617819389625424e-08  9.3846761480376816e-08  1.2253304173879346e-07  1.5409147792710261e-07  1.8897306868724234e-07  2.2766820808494619e-07  2.7070980703698459e-07  3.1867625652247868e-07  3.7219415462356975e-07  4.3194070579845302e-07  4.9864568661352979e-07  5.7309285780338491e-07  6.5612068845245221e-07  7.4862224489102564e-07  8.5154408529514901e-07  9.6588399183812173e-07  1.0926873665591301e-06  1.2330421160131470e-06  1.3880718544645805e-06  1