<?xml version="1.0"?>
<VTKFile type="UnstructuredGrid"  version="0.1"  >
<UnstructuredGrid>
<Piece  NumberOfPoints="10201" NumberOfCells="20000">
<Points>
<DataArray  type="Float64"  NumberOfComponents="3"  format="ascii">0 0 0  0.01 0 0  0.02 0 0  0.03 0 0  0.04 0 0  0.05 0 0  0.06 0 0  0.07000000000000001 0 0  0.08 0 0  0.09 0 0  0.1 0 0  0.11 0 0  0.12 0 0  0.13 0 0  0.14 0 0  0.15 0 0  0.16 0 0  0.17 0 0  0.18 0 0  0.19 0 0  0.2 0 0  0.21 0 0  0.22 0 0  0.23 0 0  0.24 0 0  0.25 0 0  0.26 0 0  0.27 0 0  0.28 0 0  0.29 0 0  0.3 0 0  0.31 0 0  0.32 0 0  0.33 0 0  0.34 0 0  0.35 0 0  0.36 0 0  0.37 0 0  0.38 0 0  0.39 0 0  0.4 0 0  0.41 0 0  0.42 0 0  0.43 0 0  0.44 0 0  0.45 0 0  0.46 0 0  0.47 0 0  0.48 0 0  0.49 0 0  0.5 0 0  0.51 0 0  0.52 0 0  0.53 0 0  0.54 0 0  0.55 0 0  0.5600000000000001 0 0  0.57 0 0  0.58 0 0  0.59 0 0  0.6 0 0  0.61 0 0  0.62 0 0  0.63 0 0  0.64 0 0  0.65 0 0  0.66 0 0  0.67 0 0  0.68 0 0  0.6899999999999999 0 0  0.7 0 0  0.71 0 0  0.72 0 0  0.73 0 0  0.74 0 0  0.75 0 0  0.76 0 0  0.77 0 0  0.78 0 0  0.79 0 0  0.8 0 0  0.8100000000000001 0 0  0.82 0 0  0.83 0 0  0.84 0 0  0.85 0 0  0.86 0 0  0.87 0 0  0.88 0 0  0.89 0 0  0.9 0 0  0.91 0 0  0.92 0 0  0.93 0 0  0.9399999999999999 0 0  0.95 0 0  0.96 0 0  0.97 0 0  0.98 0 0  0.99 0 0  1 0 0  0 0.01 0  0.01 0.01 0  0.02 0.01 0  0.03 0.01 0  0.04 0.01 0  0.05 0.01 0  0.06 0.01 0  0.07000000000000001 0.01 0  0.08 0.01 0  0.09 0.01 0  0.1 0.01 0  0.11 0.01 0  0.12 0.01 0  0.13 0.01 0  0.14 0.01 0  0.15 0.01 0  0.16 0.01 0  0.17 0.01 0  0.18 0.01 0  0.19 0.01 0  0.2 0.01 0  0.21 0.01 0  0.22 0.01 0  0.23 0.01 0  0.24 0.01 0  0.25 0.01 0  0.26 0.01 0  0.27 0.01 0  0.28 0.01 0  0.29 0.01 0  0.3 0.01 0  0.31 0.01 0  0.32 0.01 0  0.33 0.01 0  0.34 0.01 0  0.35 0.01 0  0.36 0.01 0  0.37 0.01 0  0.38 0.01 0  0.39 0.01 0  0.4 0.01 0  0.41 0.01 0  0.42 0.01 0  0.43 0.01 0  0.44 0.01 0  0.45 0.01 0  0.46 0.01 0  0.47 0.01 0  0.48 0.01 0  0.49 0.01 0  0.5 0.01 0  0.51 0.01 0  0.52 0.01 0  0.53 0.01 0  0.54 0.01 0  0.55 0.01 0  0.5600000000000001 0.01 0  0.57 0.01 0  0.58 0.01 0  0.59 0.01 0  0.6 0.01 0  0.61 0.01 0  0.62 0.01 0  0.63 0.01 0  0.64 0.01 0  0.65 0.01 0  0.66 0.01 0  0.67 0.01 0  0.68 0.01 0  0.6899999999999999 0.01 0  0.7 0.01 0  0.71 0.01 0  0.72 0.01 0  0.73 0.01 0  0.74 0.01 0  0.75 0.01 0  0.76 0.01 0  0.77 0.01 0  0.78 0.01 0  0.79 0.01 0  0.8 0.01 0  0.8100000000000001 0.01 0  0.82 0.01 0  0.83 0.01 0  0.84 0.01 0  0.85 0.01 0  0.86 0.01 0  0.87 0.01 0  0.88 0.01 0  0.89 0.01 0  0.9 0.01 0  0.91 0.01 0  0.92 0.01 0  0.93 0.01 0  0.9399999999999999 0.01 0  0.95 0.01 0  0.96 0.01 0  0.97 0.01 0  0.98 0.01 0  0.99 0.01 0  1 0.01 0  0 0.02 0  0.01 0.02 0  0.02 0.02 0  0.03 0.02 0  0.04 0.02 0  0.05 0.02 0  0.06 0.02 0  0.07000000000000001 0.02 0  0.08 0.02 0  0.09 0.02 0  0.1 0.02 0  0.11 0.02 0  0.12 0.02 0  0.13 0.02 0  0.14 0.02 0  0.15 0.02 0  0.16 0.02 0  0.17 0.02 0  0.18 0.02 0  0.19 0.02 0  0.2 0.02 0  0.21 0.02 0  0.22 0.02 0  0.23 0.02 0  0.24 0.02 0  0.25 0.02 0  0.26 0.02 0  0.27 0.02 0  0.28 0.02 0  0.29 0.02 0  0.3 0.02 0  0.31 0.02 0  0.32 0.02 0  0.33 0.02 0  0.34 0.02 0  0.35 0.02 0  0.36 0.02 0  0.37 0.02 0  0.38 0.02 0  0.39 0.02 0  0.4 0.02 0  0.41 0.02 0  0.42 0.02 0  0.43 0.02 0  0.44 0.02 0  0.45 0.02 0  0.46 0.02 0  0.47 0.02 0  0.48 0.02 0  0.49 0.02 0  0.5 0.02 0  0.51 0.02 0  0.52 0.02 0  0.53 0.02 0  0.54 0.02 0  0.55 0.02 0  0.5600000000000001 0.02 0  0.57 0.02 0  0.58 0.02 0  0.59 0.02 0  0.6 0.02 0  0.61 0.02 0  0.62 0.02 0  0.63 0.02 0  0.64 0.02 0  0.65 0.02 0  0.66 0.02 0  0.67 0.02 0  0.68 0.02 0  0.6899999999999999 0.02 0  0.7 0.02 0  0.71 0.02 0  0.72 0.02 0  0.73 0.02 0  0.74 0.02 0  0.75 0.02 0  0.76 0.02 0  0.77 0.02 0  0.78 0.02 0  0.79 0.02 0  0.8 0.02 0  0.8100000000000001 0.02 0  0.82 0.02 0  0.83 0.02 0  0.84 0.02 0  0.85 0.02 0  0.86 0.02 0  0.87 0.02 0  0.88 0.02 0  0.89 0.02 0  0.9 0.02 0  0.91 0.02 0  0.92 0.02 0  0.93 0.02 0  0.9399999999999999 0.02 0  0.95 0.02 0  0.96 0.02 0  0.97 0.02 0  0.98 0.02 0  0.99 0.02 0  1 0.02 0  0 0.03 0  0.01 0.03 0  0.02 0.03 0  0.03 0.03 0  0.04 0.03 0  0.05 0.03 0  0.06 0.03 0  0.07000000000000001 0.03 0  0.08 0.03 0  0.09 0.03 0  0.1 0.03 0  0.11 0.03 0  0.12 0.03 0  0.13 0.03 0  0.14 0.03 0  0.15 0.03 0  0.16 0.03 0  0.17 0.03 0  0.18 0.03 0  0.19 0.03 0  0.2 0.03 0  0.21 0.03 0  0.22 0.03 0  0.23 0.03 0  0.24 0.03 0  0.25 0.03 0  0.26 0.03 0  0.27 0.03 0  0.28 0.03 0  0.29 0.03 0  0.3 0.03 0  0.31 0.03 0  0.32 0.03 0  0.33 0.03 0  0.34 0.03 0  0.35 0.03 0  0.36 0.03 0  0.37 0.03 0  0.38 0.03 0  0.39 0.03 0  0.4 0.03 0  0.41 0.03 0  0.42 0.03 0  0.43 0.03 0  0.44 0.03 0  0.45 0.03 0  0.46 0.03 0  0.47 0.03 0  0.48 0.03 0  0.49 0.03 0  0.5 0.03 0  0.51 0.03 0  0.52 0.03 0  0.53 0.03 0  0.54 0.03 0  0.55 0.03 0  0.5600000000000001 0.03 0  0.57 0.03 0  0.58 0.03 0  0.59 0.03 0  0.6 0.03 0  0.61 0.03 0  0.62 0.03 0  0.63 0.03 0  0.64 0.03 0  0.65 0.03 0  0.66 0.03 0  0.67 0.03 0  0.68 0.03 0  0.6899999999999999 0.03 0  0.7 0.03 0  0.71 0.03 0  0.72 0.03 0  0.73 0.03 0  0.74 0.03 0  0.75 0.03 0  0.76 0.03 0  0.77 0.03 0  0.78 0.03 0  0.79 0.03 0  0.8 0.03 0  0.8100000000000001 0.03 0  0.82 0.03 0  0.83 0.03 0  0.84 0.03 0  0.85 0.03 0  0.86 0.03 0  0.87 0.03 0  0.88 0.03 0  0.89 0.03 0  0.9 0.03 0  0.91 0.03 0  0.92 0.03 0  0.93 0.03 0  0.9399999999999999 0.03 0  0.95 0.03 0  0.96 0.03 0  0.97 0.03 0  0.98 0.03 0  0.99 0.03 0  1 0.03 0  0 0.04 0  0.01 0.04 0  0.02 0.04 0  0.03 0.04 0  0.04 0.04 0  0.05 0.04 0  0.06 0.04 0  0.07000000000000001 0.04 0  0.08 0.04 0  0.09 0.04 0  0.1 0.04 0  0.11 0.04 0  0.12 0.04 0  0.13 0.04 0  0.14 0.04 0  0.15 0.04 0  0.16 0.04 0  0.17 0.04 0  0.18 0.04 0  0.19 0.04 0  0.2 0.04 0  0.21 0.04 0  0.22 0.04 0  0.23 0.04 0  0.24 0.04 0  0.25 0.04 0  0.26 0.04 0  0.27 0.04 0  0.28 0.04 0  0.29 0.04 0  0.3 0.04 0  0.31 0.04 0  0.32 0.04 0  0.33 0.04 0  0.34 0.04 0  0.35 0.04 0  0.36 0.04 0  0.37 0.04 0  0.38 0.04 0  0.39 0.04 0  0.4 0.04 0  0.41 0.04 0  0.42 0.04 0  0.43 0.04 0  0.44 0.04 0  0.45 0.04 0  0.46 0.04 0  0.47 0.04 0  0.48 0.04 0  0.49 0.04 0  0.5 0.04 0  0.51 0.04 0  0.52 0.04 0  0.53 0.04 0  0.54 0.04 0  0.55 0.04 0  0.5600000000000001 0.04 0  0.57 0.04 0  0.58 0.04 0  0.59 0.04 0  0.6 0.04 0  0.61 0.04 0  0.62 0.04 0  0.63 0.04 0  0.64 0.04 0  0.65 0.04 0  0.66 0.04 0  0.67 0.04 0  0.68 0.04 0  0.6899999999999999 0.04 0  0.7 0.04 0  0.71 0.04 0  0.72 0.04 0  0.73 0.04 0  0.74 0.04 0  0.75 0.04 0  0.76 0.04 0  0.77 0.04 0  0.78 0.04 0  0.79 0.04 0  0.8 0.04 0  0.8100000000000001 0.04 0  0.82 0.04 0  0.83 0.04 0  0.84 0.04 0  0.85 0.04 0  0.86 0.04 0  0.87 0.04 0  0.88 0.04 0  0.89 0.04 0  0.9 0.04 0  0.91 0.04 0  0.92 0.04 0  0.93 0.04 0  0.9399999999999999 0.04 0  0.95 0.04 0  0.96 0.04 0  0.97 0.04 0  0.98 0.04 0  0.99 0.04 0  1 0.04 0  0 0.05 0  0.01 0.05 0  0.02 0.05 0  0.03 0.05 0  0.04 0.05 0  0.05 0.05 0  0.06 0.05 0  0.07000000000000001 0.05 0  0.08 0.05 0  0.09 0.05 0  0.1 0.05 0  0.11 0.05 0  0.12 0.05 0  0.13 0.05 0  0.14 0.05 0  0.15 0.05 0  0.16 0.05 0  0.17 0.05 0  0.18 0.05 0  0.19 0.05 0  0.2 0.05 0  0.21 0.05 0  0.22 0.05 0  0.23 0.05 0  0.24 0.05 0  0.25 0.05 0  0.26 0.05 0  0.27 0.05 0  0.28 0.05 0  0.29 0.05 0  0.3 0.05 0  0.31 0.05 0  0.32 0.05 0  0.33 0.05 0  0.34 0.05 0  0.35 0.05 0  0.36 0.05 0  0.37 0.05 0  0.38 0.05 0  0.39 0.05 0  0.4 0.05 0  0.41 0.05 0  0.42 0.05 0  0.43 0.05 0  0.44 0.05 0  0.45 0.05 0  0.46 0.05 0  0.47 0.05 0  0.48 0.05 0  0.49 0.05 0  0.5 0.05 0  0.51 0.05 0  0.52 0.05 0  0.53 0.05 0  0.54 0.05 0  0.55 0.05 0  0.5600000000000001 0.05 0  0.57 0.05 0  0.58 0.05 0  0.59 0.05 0  0.6 0.05 0  0.61 0.05 0  0.62 0.05 0  0.63 0.05 0  0.64 0.05 0  0.65 0.05 0  0.66 0.05 0  0.67 0.05 0  0.68 0.05 0  0.6899999999999999 0.05 0  0.7 0.05 0  0.71 0.05 0  0.72 0.05 0  0.73 0.05 0  0.74 0.05 0  0.75 0.05 0  0.76 0.05 0  0.77 0.05 0  0.78 0.05 0  0.79 0.05 0  0.8 0.05 0  0.8100000000000001 0.05 0  0.82 0.05 0  0.83 0.05 0  0.84 0.05 0  0.85 0.05 0  0.86 0.05 0  0.87 0.05 0  0.88 0.05 0  0.89 0.05 0  0.9 0.05 0  0.91 0.05 0  0.92 0.05 0  0.93 0.05 0  0.9399999999999999 0.05 0  0.95 0.05 0  0.96 0.05 0  0.97 0.05 0  0.98 0.05 0  0.99 0.05 0  1 0.05 0  0 0.06 0  0.01 0.06 0  0.02 0.06 0  0.03 0.06 0  0.04 0.06 0  0.05 0.06 0  0.06 0.06 0  0.07000000000000001 0.06 0  0.08 0.06 0  0.09 0.06 0  0.1 0.06 0  0.11 0.06 0  0.12 0.06 0  0.13 0.06 0  0.14 0.06 0  0.15 0.06 0  0.16 0.06 0  0.17 0.06 0  0.18 0.06 0  0.19 0.06 0  0.2 0.06 0  0.21 0.06 0  0.22 0.06 0  0.23 0.06 0  0.24 0.06 0  0.25 0.06 0  0.26 0.06 0  0.27 0.06 0  0.28 0.06 0  0.29 0.06 0  0.3 0.06 0  0.31 0.06 0  0.32 0.06 0  0.33 0.06 0  0.34 0.06 0  0.35 0.06 0  0.36 0.06 0  0.37 0.06 0  0.38 0.06 0  0.39 0.06 0  0.4 0.06 0  0.41 0.06 0  0.42 0.06 0  0.43 0.06 0  0.44 0.06 0  0.45 0.06 0  0.46 0.06 0  0.47 0.06 0  0.48 0.06 0  0.49 0.06 0  0.5 0.06 0  0.51 0.06 0  0.52 0.06 0  0.53 0.06 0  0.54 0.06 0  0.55 0.06 0  0.5600000000000001 0.06 0  0.57 0.06 0  0.58 0.06 0  0.59 0.06 0  0.6 0.06 0  0.61 0.06 0  0.62 0.06 0  0.63 0.06 0  0.64 0.06 0  0.65 0.06 0  0.66 0.06 0  0.67 0.06 0  0.68 0.06 0  0.6899999999999999 0.06 0  0.7 0.06 0  0.71 0.06 0  0.72 0.06 0  0.73 0.06 0  0.74 0.06 0  0.75 0.06 0  0.76 0.06 0  0.77 0.06 0  0.78 0.06 0  0.79 0.06 0  0.8 0.06 0  0.8100000000000001 0.06 0  0.82 0.06 0  0.83 0.06 0  0.84 0.06 0  0.85 0.06 0  0.86 0.06 0  0.87 0.06 0  0.88 0.06 0  0.89 0.06 0  0.9 0.06 0  0.91 0.06 0  0.92 0.06 0  0.93 0.06 0  0.9399999999999999 0.06 0  0.95 0.06 0  0.96 0.06 0  0.97 0.06 0  0.98 0.06 0  0.99 0.06 0  1 0.06 0  0 0.07000000000000001 0  0.01 0.07000000000000001 0  0.02 0.07000000000000001 0  0.03 0.07000000000000001 0  0.04 0.07000000000000001 0  0.05 0.07000000000000001 0  0.06 0.07000000000000001 0  0.07000000000000001 0.07000000000000001 0  0.08 0.07000000000000001 0  0.09 0.07000000000000001 0  0.1 0.07000000000000001 0  0.11 0.07000000000000001 0  0.12 0.07000000000000001 0  0.13 0.07000000000000001 0  0.14 0.07000000000000001 0  0.15 0.07000000000000001 0  0.16 0.07000000000000001 0  0.17 0.0700
[...]
<PointData  Scalars="u"> 
<DataArray  type="Float64"  Name="u"  format="ascii">0.0000000000000000e+00  0.0000000000000000e+00  0.0000000000000000e+00  0.0000000000000000e+00  0.0000000000000000e+00  0.0000000000000000e+00  0.0000000000000000e+00  0.0000000000000000e+00  0.0000000000000000e+00  0.0000000000000000e+00  0.0000000000000000e+00  0.0000000000000000e+00  0.0000000000000000e+00  0.0000000000000000e+00  0.0000000000000000e+00  0.0000000000000000e+00  0.0000000000000000e+00  0.0000000000000000e+00  0.0000000000000000e+00  0.0000000000000000e+00  0.0000000000000000e+00  0.0000000000000000e+00  0.0000000000000000e+00  0.0000000000000000e+00  0.0000000000000000e+00  0.0000000000000000e+00  0.0000000000000000e+00  0.0000000000000000e+00  0.0000000000000000e+00  0.0000000000000000e+00  0.0000000000000000e+00  0.0000000000000000e+00  0.0000000000000000e+00  0.0000000000000000e+00  0.0000000000000000e+00  0.0000000000000000e+00  0.0000000000000000e+00  0.0000000000000000e+00  0.0000000000000000e+00  0.0000000000000000e+00  0.0000000000000000e+00  0.0000000000000000e+00  0.0000000000000000e+00  0.0000000000000000e+00  0.0000000000000000e+00  0.0000000000000000e+00  0.0000000000000000e+00  0.0000000000000000e+00  0.0000000000000000e+00  0.0000000000000000e+00  0.0000000000000000e+00  0.0000000000000000e+00  0.0000000000000000e+00  0.0000000000000000e+00  0.0000000000000000e+00  0.0000000000000000e+00  0.0000000000000000e+00  0.0000000000000000e+00  0.0000000000000000e+00  0.0000000000000000e+00  0.0000000000000000e+00  0.0000000000000000e+00  0.0000000000000000e+00  0.0000000000000000e+00  0.0000000000000000e+00  0.0000000000000000e+00  0.0000000000000000e+00  0.0000000000000000e+00  0.0000000000000000e+00  0.0000000000000000e+00  0.0000000000000000e+00  0.0000000000000000e+00  0.0000000000000000e+00  0.0000000000000000e+00  0.0000000000000000e+00  0.0000000000000000e+00  0.0000000000000000e+00  0.0000000000000000e+00  0.0000000000000000e+00  0.0000000000000000e+00  0.0000000000000000e+00  0.0000000000000000e+00  0.0000000000000000e+00  0.0000000000000000e+00  0.0000000000000000e+00  0.0000000000000000e+00  0.0000000000000000e+00  0.0000000000000000e+00  0.0000000000000000e+00  0.0000000000000000e+00  0.0000000000000000e+00  0.0000000000000000e+00  0.0000000000000000e+00  0.0000000000000000e+00  0.0000000000000000e+00  0.0000000000000000e+00  0.0000000000000000e+00  0.0000000000000000e+00  0.0000000000000000e+00  0.0000000000000000e+00  0.0000000000000000e+00  0.0000000000000000e+00  9.6082192180781240e-10  2.0958811594432990e-09  3.4391351712034493e-09  5.0302340643207401e-09  6.9158305303372496e-09  9.1506741454822405e-09  1.1798850119118790e-08  1.4935172816310847e-08  1.8646745361057111e-08  2.3034695995749337e-08  2.8216100479541276e-08  3.4326097732836786e-08  4.1520203098953564e-08  4.9976819893370325e-08  5.9899945241266680e-08  7.1522060469816343e-08  8.5107189444839317e-08  1.0095410017064664e-07  1.1939961569319750e-07  1.4082198989490929e-07  1.6564429224072290e-07  1.9433773309896208e-07  2.2742484817193675e-07  2.6548244717973679e-07  3.0914421869731212e-07  3.5910287050421379e-07  4.1611167362220999e-07  4.8098526913006515e-07  5.5459959066622736e-07  6.3789075310535849e-07  7.3185276006711305e-07  8.3753389047630668e-07  9.5603163802342536e-07  1.0884860975807168e-06  1.2360717196812317e-06  1.3999873880356022e-06  1.5814448153609189e-06  1.7816552987541292e-06  2.0018149262775606e-06  2.2430883797566487e-06  2.5065915330805278e-06  2.7933730983162337e-06  3.1043956212798800e-06  3.4405161713744807e-06  3.8024671051077473e-06  4.1908373065848400e-06  4.6060543196577107e-06  5.0483677840501933e-06  5.5178345710372627e-06  6.0143059831953465e-06  6.5374173381213395e-06  7.0865801992738482e-06  7.6609774502413529e-06  8.2595613342647827e-06  8.8810545015106588e-06  9.5239540252889087e-06  1.0186538267943938e-05  1.0866876400062091e-05  1.1562840305057457e-05  1.2272118536691974e-05  1.2992231940587461e-05  1.3720550502538429e-05  1.4454310945985673e-05  1.5190634567243317e-05  1.5926544768268452e-05  1.6658983720675182e-05  1.7384827568651416e-05  1.8100899549421364e-05  1.8803980374656086e-05  1.9490815171342403e-05  2.0158116222558381e-05  2.0802560673804816e-05  2.1420782275430741e-05  2.2009356112718187e-05  2.2564775128851885e-05  2.3083417068864314e-05  2.3561500261402026e-05  2.3995026406660106e-05  2.4379708250198860e-05  2.4710879691098447e-05  2.4983385497114571e-05  2.5191447378085685e-05  2.5328502701896124e-05  2.5387011626495247e-05  2.5358227870635606e-05  2.5231927761766252e-05  2.4996091592200213e-05  2.4636530699225351e-05  2.4136453082054890e-05  2.3475959806487680e-05  2.2631463963831022e-05  2.1575023591745395e-05  2.0273579791687341e-05  1.8688091365633136e-05  1.6772557733054529e-05  1.4472922767114266e-05  1.1725853494716320e-05  8.4573885103820861e-06  4.5814467834634480e-06  0.0000000000000000e+00  0.0000000000000000e+00  2.0347834278346600e-09  4.4390287501117804e-09  7.2843525184692084e-09  1.0654834468769795e-08  1.4649405456631628e-08  1.9384179461799015e-08  2.4995087180011953e-08  3.1640838083843576e-08  3.9506236037726119e-08  4.8805871481438051e-08  5.9788210132061357e-08  7.2740093731014800e-08  8.7991662331060991e-08  1.0592169974073253e-07  1.2696339379200791e-07  1.5161049086379885e-07  1.8042380940868593e-07  2.1403805998011699e-07  2.5316889940837943e-07  2.9862012439727119e-07  3.5129088511217448e-07  4.1218277266519639e-07  4.8240660631883883e-07  5.6318871747601219e-07  6.5587649907048990e-07  7.6194296201213370e-07  8.8299001628568108e-07  1.0207501747525478e-06  1.1770863644115932e-06  1.3539895246695797e-06  1.5535736768827191e-06  1.7780681657728079e-06  2.0298068027714585e-06  2.3112136850046006e-06  2.6247855220787025e-06  2.9730703759993169e-06  3.3586428066009563e-06  3.7840755141033383e-06  4.2519076792499962e-06  4.7646103164827383e-06  5.3245490725249721e-06  5.9339450167324835e-06  6.5948340753573556e-06  7.3090258540746742e-06  8.0780626665490888e-06  8.9031796368124299e-06  9.7852667659854497e-06  1.0724833846762499e-05  1.1721979070816174e-05  1.2776362105114201e-05  1.3887182314854539e-05  1.5053162686558825e-05  1.6272539859324168e-05  1.7543060510798566e-05  1.8861984173210804e-05  2.0226092380047231e-05  2.1631703871815803e-05  2.3074695425247830e-05  2.4550527718783931e-05  2.6054275511571702e-05  2.7580661295350087e-05  2.9124091478895704e-05  3.0678694082034306e-05  3.2238356848034234e-05  3.3796764625663295e-05  3.5347434820379876e-05  3.6883749662215584e-05  3.8398983979388313e-05  3.9886327094560724e-05  4.1338897367626343e-05  4.2749747787471546e-05  4.4111860857780234e-05  4.5418130821063466e-05  4.6661331013237625e-05  4.7834063830862196e-05  4.8928690417379873e-05  4.9937236726400668e-05  5.0851272092628144e-05  5.1661755828359236e-05  5.2358846660341123e-05  5.2931669024077998e-05  5.3368029338119277e-05  5.3654074389548190e-05  5.3773882877285936e-05  5.3708979989918548e-05  5.3437763653457225e-05  5.2934829793394436e-05  5.2170182646083089e-05  5.1108314870662515e-05  4.9707141013661194e-05  4.7916766841992466e-05  4.5678076287107591e-05  4.2921117361659837e-05  3.9563268580604291e-05  3.5507168339827745e-05  3.0638391624413149e-05  2.4822861689226704e-05  1.7903989984216835e-05  9.6995555079474757e-06  0.0000000000000000e+00  0.0000000000000000e+00  3.2346082742076893e-09  7.0568560382024552e-09  1.1580601929593104e-08  1.6939733924443400e-08  2.3291825168235790e-08  3.0821856946475856e-08  3.9746427624362164e-08  5.0318488548191152e-08  6.2832647183663644e-08  7.7631074758395746e-08  9.5110050827955415e-08  1.1572717013395663e-07  1.4000922747979744e-07  1.6856078372590226e-07  2.0207340002626525e-07  2.4133550774901829e-07  2.8724285786218103e-07  3.4080946572939750e-07  4.0317893518539618e-07  4.7563600955283142e-07  5.5961815724063202e-07  6.5672695630702080e-07  7.6873899675700875e-07  8.9761597259038854e-07  1.0455135893005606e-06  1.2147888685972705e-06  1.4080053928972325e-06  1.6279360002255933e-06  1.8775624184767568e-06  2.1600713195150533e-06  2.4788462813713900e-06  2.8374551736464821e-06  3.2396325296067433e-06  3.6892565401752396e-06  4.1903204010354823e-06  4.7468978642502382e-06  5.3631029887381636e-06  6.0430442468127452e-06  6.7907733224501708e-06  7.6102291252487898e-06  8.5051777351048598e-06  9.4791491783576062e-06  1.0535372107796726e-05  1.1676707607545932e-05  1.2905583460867085e-05  1.4223930296740112e-05  1.5633121063517265e-05  1.7133915260852771e-05  1.8726409292635296e-05  2.0409994184518260e-05  2.2183321743148390e-05  2.4044280026053749e-05  2.5989978749153218e-05  2.8016744992335570e-05  3.0120129282808603e-05  3.2294921851455529e-05  3.4535178579313128e-05  3.6834255888437555e-05  3.9184853591100719e-05  4.1579064498598333e-05  4.4008429408693095e-05  4.6463995939101086e-05  4.8936379551218939e-05  5.1415825008933018e-05  5.3892266435261113e-05  5.6355384056435653e-05  5.8794655649177779e-05  6.1199400621649253e-05  6.3558814550544436e-05  6.5861991854220797e-05  6.8097934092704453e-05  7.0255541137848057e-05  7.2323582138939462e-05  7.4290642808888782e-05  7.6145045062184029e-05  7.7874734436784833e-05  7.9467130017085927e-05  8.0908930733615835e-05  8.2185870937666265e-05  8.3282417027237077e-05  8.4181395628040486e-05  8.4863542406060202e-05  8.5306959006315941e-05  8.5486463881327503e-05  8.5372820904668117e-05  8.4931827681687365e-05  8.4123243404877248e-05  8.2899534004888221e-05  8.1204410288889821e-05  7.8971132829104378e-05  7.6120555689049933e-05  7.2558879812596169e-05  6.8175086254181034e-05  6.2838019652352713e-05  5.6393093761486924e-05  4.8658593859622746e-05  3.9421555977058501e-05  2.8433210861060370e-05  1.5403993538966046e-05  0.0000000000000000e+00  0.0000000000000000e+00  4.5741921284489268e-09  9.9797683003861242e-09  1.6377970134563055e-08  2.3958584927007577e-08  3.2945039340968339e-08  4.3599700893994760e-08  5.6229874430688858e-08  7.1194553016531452e-08  8.8911981385536145e-08  1.0986808597980171e-07  1.3462581882504408e-07  1.6383545249611750e-07  1.9824584969091852e-07  2.3871671288402107e-07  2.8623179661915879e-07  3.4191303671228199e-07  4.0703551654739548e-07  4.8304315045858386e-07  5.7156491779124922e-07  6.7443142875725627e-07  7.9369154508800858e-07  9.3162871557125308e-07  1.0907766201000391e-06  1.2739336476331670e-06  1.4841756657727937e-06  1.7248664753694104e-06  1.9996652860709273e-06  2.3125305019290087e-06  2.6677190743306057e-06  3.0697806671251916e-06  3.5235458903649370e-06  4.0341078987977861e-06  4.6067967228031281e-06  5.2471458055558105e-06  5.9608503622719739e-06  6.7537173552131751e-06  7.6316070895495420e-06  8.6003666759005843e-06  9.6657558688311031e-06  1.0833366068039626e-05  1.2108533549745038e-05  1.3496248267618536e-05  1.5001059812343339e-05  1.6626982333119731e-05  1.8377400390404961e-05  2.0254977815631046e-05  2.2261571691675369e-05  2.4398153531643310e-05  2.6664739620864168e-05  2.9060332299613884e-05  3.1582873707601680e-05  3.4229213194950782e-05  3.6995089240573597e-05  3.9875126322003632e-05  4.2862846766659839e-05  4.5950697199067670e-05  4.9130088796727640e-05  5.2391450192152966e-05  5.5724291520433915e-05  5.9117277817524787e-05  6.2558309727611349e-05  6.6034609277940015e-05  6.9532808322255685e-05  7.3039037132024089e-05  7.6539010517566764e-05  8.0018108776384091e-05  8.3461450678795531e-05  8.6853955595811861e-05  9.0180391734354299e-05  9.3425407253608787e-05  9.6573540776457602e-05  9.9609207464644071e-05  1.0251665637892477e-04  1.0527989427956023e-04  1.0788257032202915e-04  1.1030781525212182e-04  1.1253802768842283e-04  1.1455459888411786e-04  1.1633756597068862e-04  1.1786518209163499e-04  1.1911339002568678e-04  1.2005518387046042e-04  1.2065984110892549e-04  1.2089200491932530e-04  1.2071059393124487e-04  1.2006751380626590e-04  1.1890614207810463e-04  1.1715955469305528e-04  1.1474845974325274e-04  1.1157880111312424e-04  1.0753899233586134e-04  1.0249673910512522e-04  9.6295407892075339e-05  8.8749898336584781e-05  7.9641978957664463e-05  6.8715049804587018e-05  5.5668302587645203e-05  4.0150259220755707e-05  2.1751687294048580e-05  0.0000000000000000e+00  0.0000000000000000e+00  6.0691197590762332e-09  1.3241856688008033e-08  2.1732636019974000e-08  3.1794036341508515e-08  4.3723515088488641e-08  5.7870505983445043e-08  7.4644451672864059e-08  9.4523852839204522e-08  1.1806641323069490e-07  1.4592035470611839e-07  1.7883696743473367e-07  2.1768444710188532e-07  2.6346305258420430e-07  3.1732159328744020e-07  3.8057522440894367e-07  4.5472449007414314e-07  5.4147550798899811e-07  6.4276113450905182e-07  7.6076288566141746e-07  8.9793331781656672e-07  1.0570184919700891e-06  1.2410800590653107e-06  1.4535164121904828e-06  1.6980822572456319e-06  1.9789058599840939e-06  2.3005031381735909e-06  2.6677876877478399e-06  3.0860757666895335e-06  3.5610852160127125e-06  4.0989272799446368e-06  4.7060903036207250e-06  5.3894143423175918e-06  6.1560558166600784e-06  7.0134414972239620e-06  7.9692113015404969e-06  9.0311496363539758e-06  1.0207105314955128e-05  1.1504900417265734e-05  1.2932228829592528e-05  1.4496545588955417e-05  1.6204948548173881e-05  1.8064054254831752e-05  2.0079870280895060e-05  2.2257666530995074e-05  2.4601848278113277e-05  2.7115833809868529e-05  2.9801939604637248e-05  3.2661275886784553e-05  3.5693655232191406e-05  3.8897516612616906e-05  4.2269866889515939e-05  4.5806241309186867e-05  4.9500684030222760e-05  5.3345749152797927e-05  5.7332522140393753e-05  6.1450660951023828e-05  6.5688455647995163e-05  7.0032904757731987e-05  7.4469806197934930e-05  7.8983860222073612e-05  8.3558781519216152e-05  8.8177417369369473e-05  9.2821868576602973e-05  9.7473609773460681e-05  1.0211360559496472e-04  1.0672241914032386e-04  1.1128030905463198e-04  1.1576731144935900e-04  1.2016330271663394e-04  1.2444803905532038e-04  1.2860116819405701e-04  1.3260220834550982e-04  1.3643048883531055e-04  1.4006504609730670e-04  1.4348446779308729e-04  1.4666667667802093e-04  1.4958864447866169e-04  1.5222602444848473e-04  1.5455268941306873e-04  1.5654015998650307e-04  1.5815690522567302e-04  1.5936749528043141e-04  1.6013158259457687e-04  1.6040268492347170e-04  1.6012673988034931e-04  1.5924039694326290e-04  1.5766900890892604e-04  1.5532428075770160e-04  1.5210152992118942e-04  1.4787650819074151e-04  1.4250173219765058e-04  1.3580226682679007e-04  1.2757090446887485e-04  1.1756268314155896e-04  1.0548868879676237e-04  9.1009092286257164e-05  7.3725380314344189e-05  5.3171753233026200e-05  2.8805685623718759e-05  0.0000000000000000e+00  0.0000000000000000e+00  7.7367898584786741e-09  1.6881184925810197e-08  2.7707345481628442e-08  4.0538441588236569e-08  5.5755235804769998e-08  7.3805229676061585e-08  9.5213023217322685e-08  1.2059199452442767e-07  1.5065740446021246e-07  1.8624102473200893e-07  2.2830737635188977e-07  2.7797164848664403e-07  3.3651934402811811e-07  4.0542766678153708e-07  4.8638862492288744e-07  5.8133377532327559e-07  6.9246047262072121e-07  8.2225941490337694e-07  9.7354319424481376e-07  1.1494754652385740e-06  1.3536002388267383e-06  1.5898706935251845e-06  1.8626767738768626e-06  2.1768707198330400e-06  2.5377895450406268e-06  2.9512733620686052e-06  3.4236783448898460e-06  3.9618830308868179e-06  4.5732866045111454e-06  5.2657977812317465e-06  6.0478129323627281e-06  6.9281821671112021e-06  7.9161622249558571e-06  9.0213552346573625e-06  1.0253632668623779e-05  1.1623044162507507e-05  1.3139711275353615e-05  1.4813706726519554e-05  1.6654920148521752e-05  1.8672911922066811e-05  2.0876757188986148e-05  2.3274882645783046e-05  2.5874899178461506e-05  2.8683433781558921e-05  3.1705964485866460e-05  3.4946662178786068e-05  3.8408243222575966e-05  4.2091836649628247e-05  4.5996869438992858e-05  5.0120972961476484e-05  5.4459913136719099e-05  5.9007546196760386e-05  6.3755801224517629e-05  6.8694689863748988e-05  7.3812342812406247e-05  7.9095071945778640e-05  8.4527456198414506e-05  9.0092448688309506e-05  9.5771502010659972e-05  1.0154470817153207e-04  1.0739094927631116e-04  1.1328805482842067e-04  1.1921296131828294e-04  1.2514186967267681e-04  1.3105039606765679e-04  1.3691371155769957e-04  1.4270666591120683e-04  1.4840389093820409e-04  1.5397987842008442e-04  1.5940902747391941e-04  1.6466565577635505e-04  1.6972396850649133e-04  1.7455797811641752e-04  1.7914136707608815e-04  1.8344728454056583e-04  1.8744806642745227e-04  1.9111486664646847e-04  1.9441718516826278e-04  1.9732227623378364e-04  1.9979441726929420e-04  2.0179401596944380e-04  2.0327652953134709e-04  2.0419116616428204e-04  2.0447933477181086e-04  2.0407280413137791e-04  2.0289152802744685e-04  2.0084108770289445e-04  1.9780969779043390e-04  1.9366471672778980e-04  1.8824859776053250e-04  1.8137421227834672e-04  1.7281947378277397e-04  1.6232118871811188e-04  1.4956806030450611e-04  1.3419277412719347e-04  1.1576310045443040e-04  9.3771959159108428e-05  6.7626410010755849e-05  3.6635559682293726e-05  0.0000000000000000e+00  0.0000000000000000e+00  9.5965432563036083e-09  2.0940074085638917e-08  3.4371886773498545e-08  5.0294569793146266e-08  6.9182707369742813e-08  9.1594369873810578e-08  1.1818413978505961e-07  1.4971781126198474e-07  1.8708889899758560e-07  2.3133708413213149e-07  2.8366871112499192e-07  3.4547942839019175e-07  4.1837903581629217e-07  5.0421856260795882e-07  6.0511954778969856e-07  7.2350543185695059e-07  8.6213489026376236e-07  1.0241368467948942e-06  1.2130467968941534e-06  1.4328439477946335e-06  1.6879885446543619e-06  1.9834586016112497e-06  2.3247850966216594e-06  2.7180845233125096e-06  3.1700875274550533e-06  3.6881621971567766e-06  4.2803304330596558e-06  4.9552757077033167e-06  5.7223404428710000e-06  6.5915112020233579e-06  7.5733899238373685e-06  8.6791495238149903e-06  9.9204723738380499e-06  1.1309470441860446e-05  1.2858586239530541e-05  1.4580474183720885e-05  1.6487862522523120e-05  1.8593396594919428e-05  2.0909464867341479e-05  2.3448009894727002e-05  2.6220327058080250e-05  2.9236854600387977e-05  3.2506959081244514e-05  3.6038720860974472e-05  3.9838724573405358e-05  4.3911859724116429e-05  4.8261136537279114e-05  5.2887521958353048e-05  5.7789800302468805e-05  6.2964462431630574e-05  6.8405626571490459e-05  7.4104992973711035e-05  8.0051833633618051e-05  8.6233017230142917e-05  9.2633068412275525e-05  9.9234259557398922e-05  1.0601673221060107e-04  1.1295864461101421e-04  1.2003634104232681e-04  1.2722453821997537e-04  1.3449652354636417e-04  1.4182435981673321e-04  1.4917909082187610e-04  1.5653094224228498e-04  1.6384951222845169e-04  1.7110394607724398e-04  1.7826308940592901e-04  1.8529561415437257e-04  1.9217011157375316e-04  1.9885514604959462e-04  2.0531926312259769e-04  2.1153094437891651e-04  2.1745850095005422e-04  2.2306989616056289e-04  2.2833248635934427e-04  2.3321266713826968e-04  2.3767540995143021e-04  2.4168367157167034e-04  2.4519765583161623e-04  2.4817390366998793e-04  2.5056418362051993e-04  2.5231415052656524e-04  2.5336173543543403e-04  2.5363522433244644e-04  2.5305097764461755e-04  2.5151073633263271e-04  2.4889845398636657e-04  2.4507658777655242e-04  2.3988177458228861e-04  2.3311981236965202e-04  2.2455986128593075e-04  2.1392777440709554e-04  2.0089846520993473e-04  1.8508721836191781e-04  1.6603985323524208e-04  1.4322165676582742e-04  1.1600501524008003e-04  8.3655694933034523e-05  4.5317755740044465e-05  0.0000000000000000e+00  0.0000000000000000e+00  1.1669789430539169e-08  2.5465382269665468e-08  4.1803558543767550e-08  6.1176308580760196e-08  8.4163956642091762e-08  1.1144933843890061e-07  1.4383389006550946e-07  1.8225582357523340e-07  2.2781056212945332e-07  2.8177359854164797e-07  3.4562592448125314e-07  4.2108215196379589e-07  5.1012141226980959e-07  6.1502106825517674e-07  7.3839321226816517e-07  8.8322384177088612e-07  1.0529145066602999e-06  1.2513261049176541e-06  1.4828243658244169e-06  1.7523264025335581e-06  2.0653475392074406e-06  2