<?xml version="1.0"?>
<VTKFile type="UnstructuredGrid"  version="0.1"  >
<UnstructuredGrid>
<Piece  NumberOfPoints="10201" NumberOfCells="20000">
<Points>
<DataArray  type="Float64"  NumberOfComponents="3"  format="ascii">0 0 0  0.01 0 0  0.02 0 0  0.03 0 0  0.04 0 0  0.05 0 0  0.06 0 0  0.07000000000000001 0 0  0.08 0 0  0.09 0 0  0.1 0 0  0.11 0 0  0.12 0 0  0.13 0 0  0.14 0 0  0.15 0 0  0.16 0 0  0.17 0 0  0.18 0 0  0.19 0 0  0.2 0 0  0.21 0 0  0.22 0 0  0.23 0 0  0.24 0 0  0.25 0 0  0.26 0 0  0.27 0 0  0.28 0 0  0.29 0 0  0.3 0 0  0.31 0 0  0.32 0 0  0.33 0 0  0.34 0 0  0.35 0 0  0.36 0 0  0.37 0 0  0.38 0 0  0.39 0 0  0.4 0 0  0.41 0 0  0.42 0 0  0.43 0 0  0.44 0 0  0.45 0 0  0.46 0 0  0.47 0 0  0.48 0 0  0.49 0 0  0.5 0 0  0.51 0 0  0.52 0 0  0.53 0 0  0.54 0 0  0.55 0 0  0.5600000000000001 0 0  0.57 0 0  0.58 0 0  0.59 0 0  0.6 0 0  0.61 0 0  0.62 0 0  0.63 0 0  0.64 0 0  0.65 0 0  0.66 0 0  0.67 0 0  0.68 0 0  0.6899999999999999 0 0  0.7 0 0  0.71 0 0  0.72 0 0  0.73 0 0  0.74 0 0  0.75 0 0  0.76 0 0  0.77 0 0  0.78 0 0  0.79 0 0  0.8 0 0  0.8100000000000001 0 0  0.82 0 0  0.83 0 0  0.84 0 0  0.85 0 0  0.86 0 0  0.87 0 0  0.88 0 0  0.89 0 0  0.9 0 0  0.91 0 0  0.92 0 0  0.93 0 0  0.9399999999999999 0 0  0.95 0 0  0.96 0 0  0.97 0 0  0.98 0 0  0.99 0 0  1 0 0  0 0.01 0  0.01 0.01 0  0.02 0.01 0  0.03 0.01 0  0.04 0.01 0  0.05 0.01 0  0.06 0.01 0  0.07000000000000001 0.01 0  0.08 0.01 0  0.09 0.01 0  0.1 0.01 0  0.11 0.01 0  0.12 0.01 0  0.13 0.01 0  0.14 0.01 0  0.15 0.01 0  0.16 0.01 0  0.17 0.01 0  0.18 0.01 0  0.19 0.01 0  0.2 0.01 0  0.21 0.01 0  0.22 0.01 0  0.23 0.01 0  0.24 0.01 0  0.25 0.01 0  0.26 0.01 0  0.27 0.01 0  0.28 0.01 0  0.29 0.01 0  0.3 0.01 0  0.31 0.01 0  0.32 0.01 0  0.33 0.01 0  0.34 0.01 0  0.35 0.01 0  0.36 0.01 0  0.37 0.01 0  0.38 0.01 0  0.39 0.01 0  0.4 0.01 0  0.41 0.01 0  0.42 0.01 0  0.43 0.01 0  0.44 0.01 0  0.45 0.01 0  0.46 0.01 0  0.47 0.01 0  0.48 0.01 0  0.49 0.01 0  0.5 0.01 0  0.51 0.01 0  0.52 0.01 0  0.53 0.01 0  0.54 0.01 0  0.55 0.01 0  0.5600000000000001 0.01 0  0.57 0.01 0  0.58 0.01 0  0.59 0.01 0  0.6 0.01 0  0.61 0.01 0  0.62 0.01 0  0.63 0.01 0  0.64 0.01 0  0.65 0.01 0  0.66 0.01 0  0.67 0.01 0  0.68 0.01 0  0.6899999999999999 0.01 0  0.7 0.01 0  0.71 0.01 0  0.72 0.01 0  0.73 0.01 0  0.74 0.01 0  0.75 0.01 0  0.76 0.01 0  0.77 0.01 0  0.78 0.01 0  0.79 0.01 0  0.8 0.01 0  0.8100000000000001 0.01 0  0.82 0.01 0  0.83 0.01 0  0.84 0.01 0  0.85 0.01 0  0.86 0.01 0  0.87 0.01 0  0.88 0.01 0  0.89 0.01 0  0.9 0.01 0  0.91 0.01 0  0.92 0.01 0  0.93 0.01 0  0.9399999999999999 0.01 0  0.95 0.01 0  0.96 0.01 0  0.97 0.01 0  0.98 0.01 0  0.99 0.01 0  1 0.01 0  0 0.02 0  0.01 0.02 0  0.02 0.02 0  0.03 0.02 0  0.04 0.02 0  0.05 0.02 0  0.06 0.02 0  0.07000000000000001 0.02 0  0.08 0.02 0  0.09 0.02 0  0.1 0.02 0  0.11 0.02 0  0.12 0.02 0  0.13 0.02 0  0.14 0.02 0  0.15 0.02 0  0.16 0.02 0  0.17 0.02 0  0.18 0.02 0  0.19 0.02 0  0.2 0.02 0  0.21 0.02 0  0.22 0.02 0  0.23 0.02 0  0.24 0.02 0  0.25 0.02 0  0.26 0.02 0  0.27 0.02 0  0.28 0.02 0  0.29 0.02 0  0.3 0.02 0  0.31 0.02 0  0.32 0.02 0  0.33 0.02 0  0.34 0.02 0  0.35 0.02 0  0.36 0.02 0  0.37 0.02 0  0.38 0.02 0  0.39 0.02 0  0.4 0.02 0  0.41 0.02 0  0.42 0.02 0  0.43 0.02 0  0.44 0.02 0  0.45 0.02 0  0.46 0.02 0  0.47 0.02 0  0.48 0.02 0  0.49 0.02 0  0.5 0.02 0  0.51 0.02 0  0.52 0.02 0  0.53 0.02 0  0.54 0.02 0  0.55 0.02 0  0.5600000000000001 0.02 0  0.57 0.02 0  0.58 0.02 0  0.59 0.02 0  0.6 0.02 0  0.61 0.02 0  0.62 0.02 0  0.63 0.02 0  0.64 0.02 0  0.65 0.02 0  0.66 0.02 0  0.67 0.02 0  0.68 0.02 0  0.6899999999999999 0.02 0  0.7 0.02 0  0.71 0.02 0  0.72 0.02 0  0.73 0.02 0  0.74 0.02 0  0.75 0.02 0  0.76 0.02 0  0.77 0.02 0  0.78 0.02 0  0.79 0.02 0  0.8 0.02 0  0.8100000000000001 0.02 0  0.82 0.02 0  0.83 0.02 0  0.84 0.02 0  0.85 0.02 0  0.86 0.02 0  0.87 0.02 0  0.88 0.02 0  0.89 0.02 0  0.9 0.02 0  0.91 0.02 0  0.92 0.02 0  0.93 0.02 0  0.9399999999999999 0.02 0  0.95 0.02 0  0.96 0.02 0  0.97 0.02 0  0.98 0.02 0  0.99 0.02 0  1 0.02 0  0 0.03 0  0.01 0.03 0  0.02 0.03 0  0.03 0.03 0  0.04 0.03 0  0.05 0.03 0  0.06 0.03 0  0.07000000000000001 0.03 0  0.08 0.03 0  0.09 0.03 0  0.1 0.03 0  0.11 0.03 0  0.12 0.03 0  0.13 0.03 0  0.14 0.03 0  0.15 0.03 0  0.16 0.03 0  0.17 0.03 0  0.18 0.03 0  0.19 0.03 0  0.2 0.03 0  0.21 0.03 0  0.22 0.03 0  0.23 0.03 0  0.24 0.03 0  0.25 0.03 0  0.26 0.03 0  0.27 0.03 0  0.28 0.03 0  0.29 0.03 0  0.3 0.03 0  0.31 0.03 0  0.32 0.03 0  0.33 0.03 0  0.34 0.03 0  0.35 0.03 0  0.36 0.03 0  0.37 0.03 0  0.38 0.03 0  0.39 0.03 0  0.4 0.03 0  0.41 0.03 0  0.42 0.03 0  0.43 0.03 0  0.44 0.03 0  0.45 0.03 0  0.46 0.03 0  0.47 0.03 0  0.48 0.03 0  0.49 0.03 0  0.5 0.03 0  0.51 0.03 0  0.52 0.03 0  0.53 0.03 0  0.54 0.03 0  0.55 0.03 0  0.5600000000000001 0.03 0  0.57 0.03 0  0.58 0.03 0  0.59 0.03 0  0.6 0.03 0  0.61 0.03 0  0.62 0.03 0  0.63 0.03 0  0.64 0.03 0  0.65 0.03 0  0.66 0.03 0  0.67 0.03 0  0.68 0.03 0  0.6899999999999999 0.03 0  0.7 0.03 0  0.71 0.03 0  0.72 0.03 0  0.73 0.03 0  0.74 0.03 0  0.75 0.03 0  0.76 0.03 0  0.77 0.03 0  0.78 0.03 0  0.79 0.03 0  0.8 0.03 0  0.8100000000000001 0.03 0  0.82 0.03 0  0.83 0.03 0  0.84 0.03 0  0.85 0.03 0  0.86 0.03 0  0.87 0.03 0  0.88 0.03 0  0.89 0.03 0  0.9 0.03 0  0.91 0.03 0  0.92 0.03 0  0.93 0.03 0  0.9399999999999999 0.03 0  0.95 0.03 0  0.96 0.03 0  0.97 0.03 0  0.98 0.03 0  0.99 0.03 0  1 0.03 0  0 0.04 0  0.01 0.04 0  0.02 0.04 0  0.03 0.04 0  0.04 0.04 0  0.05 0.04 0  0.06 0.04 0  0.07000000000000001 0.04 0  0.08 0.04 0  0.09 0.04 0  0.1 0.04 0  0.11 0.04 0  0.12 0.04 0  0.13 0.04 0  0.14 0.04 0  0.15 0.04 0  0.16 0.04 0  0.17 0.04 0  0.18 0.04 0  0.19 0.04 0  0.2 0.04 0  0.21 0.04 0  0.22 0.04 0  0.23 0.04 0  0.24 0.04 0  0.25 0.04 0  0.26 0.04 0  0.27 0.04 0  0.28 0.04 0  0.29 0.04 0  0.3 0.04 0  0.31 0.04 0  0.32 0.04 0  0.33 0.04 0  0.34 0.04 0  0.35 0.04 0  0.36 0.04 0  0.37 0.04 0  0.38 0.04 0  0.39 0.04 0  0.4 0.04 0  0.41 0.04 0  0.42 0.04 0  0.43 0.04 0  0.44 0.04 0  0.45 0.04 0  0.46 0.04 0  0.47 0.04 0  0.48 0.04 0  0.49 0.04 0  0.5 0.04 0  0.51 0.04 0  0.52 0.04 0  0.53 0.04 0  0.54 0.04 0  0.55 0.04 0  0.5600000000000001 0.04 0  0.57 0.04 0  0.58 0.04 0  0.59 0.04 0  0.6 0.04 0  0.61 0.04 0  0.62 0.04 0  0.63 0.04 0  0.64 0.04 0  0.65 0.04 0  0.66 0.04 0  0.67 0.04 0  0.68 0.04 0  0.6899999999999999 0.04 0  0.7 0.04 0  0.71 0.04 0  0.72 0.04 0  0.73 0.04 0  0.74 0.04 0  0.75 0.04 0  0.76 0.04 0  0.77 0.04 0  0.78 0.04 0  0.79 0.04 0  0.8 0.04 0  0.8100000000000001 0.04 0  0.82 0.04 0  0.83 0.04 0  0.84 0.04 0  0.85 0.04 0  0.86 0.04 0  0.87 0.04 0  0.88 0.04 0  0.89 0.04 0  0.9 0.04 0  0.91 0.04 0  0.92 0.04 0  0.93 0.04 0  0.9399999999999999 0.04 0  0.95 0.04 0  0.96 0.04 0  0.97 0.04 0  0.98 0.04 0  0.99 0.04 0  1 0.04 0  0 0.05 0  0.01 0.05 0  0.02 0.05 0  0.03 0.05 0  0.04 0.05 0  0.05 0.05 0  0.06 0.05 0  0.07000000000000001 0.05 0  0.08 0.05 0  0.09 0.05 0  0.1 0.05 0  0.11 0.05 0  0.12 0.05 0  0.13 0.05 0  0.14 0.05 0  0.15 0.05 0  0.16 0.05 0  0.17 0.05 0  0.18 0.05 0  0.19 0.05 0  0.2 0.05 0  0.21 0.05 0  0.22 0.05 0  0.23 0.05 0  0.24 0.05 0  0.25 0.05 0  0.26 0.05 0  0.27 0.05 0  0.28 0.05 0  0.29 0.05 0  0.3 0.05 0  0.31 0.05 0  0.32 0.05 0  0.33 0.05 0  0.34 0.05 0  0.35 0.05 0  0.36 0.05 0  0.37 0.05 0  0.38 0.05 0  0.39 0.05 0  0.4 0.05 0  0.41 0.05 0  0.42 0.05 0  0.43 0.05 0  0.44 0.05 0  0.45 0.05 0  0.46 0.05 0  0.47 0.05 0  0.48 0.05 0  0.49 0.05 0  0.5 0.05 0  0.51 0.05 0  0.52 0.05 0  0.53 0.05 0  0.54 0.05 0  0.55 0.05 0  0.5600000000000001 0.05 0  0.57 0.05 0  0.58 0.05 0  0.59 0.05 0  0.6 0.05 0  0.61 0.05 0  0.62 0.05 0  0.63 0.05 0  0.64 0.05 0  0.65 0.05 0  0.66 0.05 0  0.67 0.05 0  0.68 0.05 0  0.6899999999999999 0.05 0  0.7 0.05 0  0.71 0.05 0  0.72 0.05 0  0.73 0.05 0  0.74 0.05 0  0.75 0.05 0  0.76 0.05 0  0.77 0.05 0  0.78 0.05 0  0.79 0.05 0  0.8 0.05 0  0.8100000000000001 0.05 0  0.82 0.05 0  0.83 0.05 0  0.84 0.05 0  0.85 0.05 0  0.86 0.05 0  0.87 0.05 0  0.88 0.05 0  0.89 0.05 0  0.9 0.05 0  0.91 0.05 0  0.92 0.05 0  0.93 0.05 0  0.9399999999999999 0.05 0  0.95 0.05 0  0.96 0.05 0  0.97 0.05 0  0.98 0.05 0  0.99 0.05 0  1 0.05 0  0 0.06 0  0.01 0.06 0  0.02 0.06 0  0.03 0.06 0  0.04 0.06 0  0.05 0.06 0  0.06 0.06 0  0.07000000000000001 0.06 0  0.08 0.06 0  0.09 0.06 0  0.1 0.06 0  0.11 0.06 0  0.12 0.06 0  0.13 0.06 0  0.14 0.06 0  0.15 0.06 0  0.16 0.06 0  0.17 0.06 0  0.18 0.06 0  0.19 0.06 0  0.2 0.06 0  0.21 0.06 0  0.22 0.06 0  0.23 0.06 0  0.24 0.06 0  0.25 0.06 0  0.26 0.06 0  0.27 0.06 0  0.28 0.06 0  0.29 0.06 0  0.3 0.06 0  0.31 0.06 0  0.32 0.06 0  0.33 0.06 0  0.34 0.06 0  0.35 0.06 0  0.36 0.06 0  0.37 0.06 0  0.38 0.06 0  0.39 0.06 0  0.4 0.06 0  0.41 0.06 0  0.42 0.06 0  0.43 0.06 0  0.44 0.06 0  0.45 0.06 0  0.46 0.06 0  0.47 0.06 0  0.48 0.06 0  0.49 0.06 0  0.5 0.06 0  0.51 0.06 0  0.52 0.06 0  0.53 0.06 0  0.54 0.06 0  0.55 0.06 0  0.5600000000000001 0.06 0  0.57 0.06 0  0.58 0.06 0  0.59 0.06 0  0.6 0.06 0  0.61 0.06 0  0.62 0.06 0  0.63 0.06 0  0.64 0.06 0  0.65 0.06 0  0.66 0.06 0  0.67 0.06 0  0.68 0.06 0  0.6899999999999999 0.06 0  0.7 0.06 0  0.71 0.06 0  0.72 0.06 0  0.73 0.06 0  0.74 0.06 0  0.75 0.06 0  0.76 0.06 0  0.77 0.06 0  0.78 0.06 0  0.79 0.06 0  0.8 0.06 0  0.8100000000000001 0.06 0  0.82 0.06 0  0.83 0.06 0  0.84 0.06 0  0.85 0.06 0  0.86 0.06 0  0.87 0.06 0  0.88 0.06 0  0.89 0.06 0  0.9 0.06 0  0.91 0.06 0  0.92 0.06 0  0.93 0.06 0  0.9399999999999999 0.06 0  0.95 0.06 0  0.96 0.06 0  0.97 0.06 0  0.98 0.06 0  0.99 0.06 0  1 0.06 0  0 0.07000000000000001 0  0.01 0.07000000000000001 0  0.02 0.07000000000000001 0  0.03 0.07000000000000001 0  0.04 0.07000000000000001 0  0.05 0.07000000000000001 0  0.06 0.07000000000000001 0  0.07000000000000001 0.07000000000000001 0  0.08 0.07000000000000001 0  0.09 0.07000000000000001 0  0.1 0.07000000000000001 0  0.11 0.07000000000000001 0  0.12 0.07000000000000001 0  0.13 0.07000000000000001 0  0.14 0.07000000000000001 0  0.15 0.07000000000000001 0  0.16 0.07000000000000001 0  0.17 0.0700
[...]
<PointData  Scalars="u"> 
<DataArray  type="Float64"  Name="u"  format="ascii">0.0000000000000000e+00  0.0000000000000000e+00  0.0000000000000000e+00  0.0000000000000000e+00  0.0000000000000000e+00  0.0000000000000000e+00  0.0000000000000000e+00  0.0000000000000000e+00  0.0000000000000000e+00  0.0000000000000000e+00  0.0000000000000000e+00  0.0000000000000000e+00  0.0000000000000000e+00  0.0000000000000000e+00  0.0000000000000000e+00  0.0000000000000000e+00  0.0000000000000000e+00  0.0000000000000000e+00  0.0000000000000000e+00  0.0000000000000000e+00  0.0000000000000000e+00  0.0000000000000000e+00  0.0000000000000000e+00  0.0000000000000000e+00  0.0000000000000000e+00  0.0000000000000000e+00  0.0000000000000000e+00  0.0000000000000000e+00  0.0000000000000000e+00  0.0000000000000000e+00  0.0000000000000000e+00  0.0000000000000000e+00  0.0000000000000000e+00  0.0000000000000000e+00  0.0000000000000000e+00  0.0000000000000000e+00  0.0000000000000000e+00  0.0000000000000000e+00  0.0000000000000000e+00  0.0000000000000000e+00  0.0000000000000000e+00  0.0000000000000000e+00  0.0000000000000000e+00  0.0000000000000000e+00  0.0000000000000000e+00  0.0000000000000000e+00  0.0000000000000000e+00  0.0000000000000000e+00  0.0000000000000000e+00  0.0000000000000000e+00  0.0000000000000000e+00  0.0000000000000000e+00  0.0000000000000000e+00  0.0000000000000000e+00  0.0000000000000000e+00  0.0000000000000000e+00  0.0000000000000000e+00  0.0000000000000000e+00  0.0000000000000000e+00  0.0000000000000000e+00  0.0000000000000000e+00  0.0000000000000000e+00  0.0000000000000000e+00  0.0000000000000000e+00  0.0000000000000000e+00  0.0000000000000000e+00  0.0000000000000000e+00  0.0000000000000000e+00  0.0000000000000000e+00  0.0000000000000000e+00  0.0000000000000000e+00  0.0000000000000000e+00  0.0000000000000000e+00  0.0000000000000000e+00  0.0000000000000000e+00  0.0000000000000000e+00  0.0000000000000000e+00  0.0000000000000000e+00  0.0000000000000000e+00  0.0000000000000000e+00  0.0000000000000000e+00  0.0000000000000000e+00  0.0000000000000000e+00  0.0000000000000000e+00  0.0000000000000000e+00  0.0000000000000000e+00  0.0000000000000000e+00  0.0000000000000000e+00  0.0000000000000000e+00  0.0000000000000000e+00  0.0000000000000000e+00  0.0000000000000000e+00  0.0000000000000000e+00  0.0000000000000000e+00  0.0000000000000000e+00  0.0000000000000000e+00  0.0000000000000000e+00  0.0000000000000000e+00  0.0000000000000000e+00  0.0000000000000000e+00  0.0000000000000000e+00  0.0000000000000000e+00  3.7072941419729541e-15  7.6748042947883652e-15  1.2465960570467728e-14  1.8697138945393549e-14  2.7114506431604034e-14  3.8671845244440968e-14  5.4621304097047868e-14  7.6623751002077827e-14  1.0688564216011918e-13  1.4832973263395483e-13  2.0480742245736687e-13  2.8136090181555218e-13  3.8454334718420551e-13  5.2280500812711203e-13  7.0695185481518868e-13  9.5068123669144191e-13  1.2711954163406630e-12  1.6898885709879991e-12  2.2330956122944425e-12  2.9328817620898886e-12  3.8278401842860217e-12  4.9638512825063781e-12  6.3947420062410493e-12  8.1827675272821494e-12  1.0398822259291761e-11  1.3122274172490535e-11  1.6440307916752728e-11  2.0446660955239990e-11  2.5239645405324016e-11  3.0919369098447139e-11  3.7584104469642461e-11  4.5325804233492809e-11  5.4224827892660032e-11  6.4344020576869337e-11  7.5722370995591725e-11  8.8368561689314721e-11  1.0225480364481379e-10  1.1731140876788251e-10  1.3342258744054855e-10  1.5042395515197696e-10  1.6810218510526140e-10  1.8619714968402126e-10  2.0440675455126909e-10  2.2239449232293759e-10  2.3979954103600650e-10  2.5624902340576960e-10  2.7137184642082742e-10  2.8481337804431444e-10  2.9625010755038962e-10  3.0540339262699039e-10  3.1205142744429448e-10  3.1603867108804882e-10  3.1728214656448620e-10  3.1577424118475265e-10  3.1158188833162826e-10  3.0484226443958530e-10  2.9575536970351719e-10  2.8457405579306526e-10  2.7159220319082390e-10  2.5713182592858353e-10  2.4152989090791377e-10  2.2512558782611212e-10  2.0824868460248751e-10  1.9120946638075348e-10  1.7429059957636685e-10  1.5774110165811317e-10  1.4177244612400401e-10  1.2655670116107425e-10  1.1222649687767873e-10  9.8876543206808840e-11  8.6566378720305848e-11  7.5324017106051589e-11  6.5150168493721201e-11  5.6022741648583158e-11  4.7901374438294342e-11  4.0731788340886807e-11  3.4449813235278061e-11  2.8984977392171427e-11  2.4263601616963504e-11  2.0211374075068232e-11  1.6755412561098843e-11  1.3825843716322877e-11  1.1356944378040833e-11  9.2878996644355492e-12  7.5632365789632429e-12  6.1329919604156749e-12  4.9526705894744224e-12  3.9830441843644648e-12  3.1898357493327916e-12  2.5433270222134443e-12  2.0179202293967187e-12  1.5916795500757231e-12  1.2458731513103648e-12  9.6453397908007161e-13  7.3405744310546317e-13  5.4285777154918616e-13  3.8111360576762162e-13  2.4064924197658834e-13  1.1502228170595625e-13  0.0000000000000000e+00  0.0000000000000000e+00  7.2894635450794612e-15  1.5105135786617656e-14  2.4559642205020793e-14  3.6879984131943455e-14  5.3555252285785175e-14  7.6493820467222641e-14  1.0820720414558251e-13  1.5203445474859040e-13  2.1242144403804593e-13  2.9527035793050306e-13  4.0837583575701983e-13  5.6196513560119822e-13  7.6936009972323086e-13  1.0477780805534813e-12  1.4192868254699001e-12  1.9119239828243689e-12  2.5609846961304630e-12  3.4104699946395737e-12  4.5146737193362708e-12  5.9398660571994363e-12  7.7660072052830426e-12  1.0088395525493789e-11  1.3019121702477069e-11  1.6688165626572809e-11  2.1243938706210399e-11  2.6853044825720564e-11  3.3699012958228655e-11  4.1979749060253559e-11  5.1903470234855371e-11  6.3682925922053287e-11  7.7527783635781393e-11  9.3635163005525623e-11  1.1217844095104057e-10  1.3329461798592141e-10  1.5707072142723230e-10  1.8352991128546876e-10  2.1261813002274863e-10  2.4419227631567477e-10  2.7801096261456808e-10  3.1372891570151243e-10  3.5089598276203788e-10  3.8896150512433114e-10  4.2728452109904031e-10  4.6514987396619148e-10  5.0178985909948505e-10  5.3641058388607302e-10  5.6822178058546189e-10  5.9646845223254541e-10  6.2046248743555675e-10  6.3961228358672674e-10  6.5344848676169176e-10  6.6164418969793634e-10  6.6402830754466598e-10  6.6059133901167350e-10  6.5148327051978447e-10  6.3700393932287507e-10  6.1758668531815367e-10  5.9377654437377982e-10  5.6620453457869738e-10  5.3555974225094212e-10  5.0256092445411927e-10  4.6792922179049881e-10  4.3236334397152153e-10  3.9651828354684023e-10  3.6098826587913188e-10  3.2629429057899484e-10  2.9287629114459995e-10  2.6108965844891714e-10  2.3120565476214259e-10  2.0341509476384658e-10  1.7783458776706871e-10  1.5451461465180938e-10  1.3344874334793382e-10  1.1458335556988976e-10  9.7827351870760031e-11  8.3061409761810430e-11  7.0146480172533832e-11  5.8931312670479664e-11  4.9258893772035687e-11  4.0971761783995591e-11  3.3916224335292203e-11  2.7945551094032220e-11  2.2922245286811077e-11  1.8719515471263564e-11  1.5222075885215167e-11  1.2326402048155237e-11  9.9405604718434639e-12  7.9837194694306951e-12  6.3854339670555709e-12  5.0847824484926522e-12  4.0294199727268285e-12  3.1745986924535217e-12  2.4821975172513035e-12  1.9197966828020270e-12  1.4598325327922269e-12  1.0788749575633401e-12  7.5708781420894324e-13  4.7796580208376554e-13  2.2849607727651978e-13  0.0000000000000000e+00  0.0000000000000000e+00  1.1245765731321727e-14  2.3326955918880899e-14  3.7982463614834969e-14  5.7139240814296464e-14  8.3145579770075475e-14  1.1902308208095790e-13  1.6876324363969549e-13  2.3769148659477211e-13  3.3292261270298863e-13  4.6393357070531286e-13  6.4328165872245407e-13  8.8749829968388375e-13  1.2181897085550318e-12  1.6633753500878979e-12  2.2590921393373966e-12  3.0512857771604245e-12  4.0979992203759062e-12  5.4718507798965889e-12  7.2627694958643153e-12  9.5809222674822005e-12  1.2559725201648443e-11  1.6358781042576110e-11  2.1166526711155698e-11  2.7202312716737952e-11  3.4717574039109034e-11  4.3995696460776152e-11  5.5350141595768331e-11  6.9120377928759058e-11  8.5665184871838632e-11  1.0535296280866114e-10  1.2854880329257691e-10  1.5559825546350274e-10  1.8680796734384928e-10  2.2242367664272954e-10  2.6260635902137182e-10  3.0740768723382844e-10  3.5674627847581685e-10  4.1038646974896176e-10  4.6792151976633908e-10  5.2876315134736680e-10  5.9213918963916985e-10  6.5710070300362521e-10  7.2253951916403918e-10  7.8721629642677213e-10  8.4979852891284249e-10  9.0890702607003319e-10  9.6316861369156780e-10  1.0112721431122697e-09  1.0520244463211089e-09  1.0844026977134839e-09  1.1075997703714312e-09  1.1210596046881319e-09  1.1245003037257200e-09  1.1179235660260692e-09  1.1016100733835056e-09  1.0761014680964196e-09  1.0421704830216256e-09  1.0007815438107811e-09  9.5304468487113326e-10  9.0016587688674101e-10  8.4339685275643312e-10  7.8398726697429868e-10  7.2314157898812325e-10  6.6198247576594638e-10  6.0152200942668532e-10  5.4264098590621601e-10  4.8607655417986593e-10  4.3241745268939961e-10  3.8210599486599424e-10  3.3544562828837403e-10  2.9261277813003881e-10  2.5367167105655646e-10  2.1859090995240425e-10  1.8726070894739865e-10  1.5950987815182504e-10  1.3512184636386583e-10  1.1384920943460018e-10  9.5426477955073762e-11  7.9580860925500519e-11  6.6041056670895034e-11  5.4544126572148813e-11  4.4840601996511323e-11  3.6698022857093928e-11  2.9903131393488712e-11  2.4262951467830022e-11  1.9604976385447743e-11  1.5776671158104391e-11  1.2644471914745156e-11  1.0092438927640953e-11  8.0206929812220723e-12  6.3437395987081551e-12  4.9887636594083110e-12  3.8939597834109998e-12  3.0069533205427107e-12  2.2833652349027271e-12  1.6855851089920125e-12  1.1818451751032727e-12  7.4574266313247937e-13  3.5644946822821933e-13  0.0000000000000000e+00  0.0000000000000000e+00  1.6021153121009990e-14  3.3272344725733486e-14  5.4274033869758141e-14  8.1833120840405351e-14  1.1938790579715682e-13  1.7138466797162511e-13  2.4372422853926478e-13  3.4431386670844028e-13  4.8376224287238018e-13  6.7625856215294277e-13  9.4068139563386788e-13  1.3019865805648481e-12  1.7929264827144790e-12  2.4561534202724654e-12  3.3467567302594158e-12  4.5352740183658461e-12  6.1112005205022914e-12  8.1869940022219924e-12  1.0902534029366044e-11  1.4429941855883900e-11  1.8978599377836753e-11  2.4800122568418652e-11  3.2192948278729949e-11  4.1506087387640142e-11  5.3141489083059438e-11  6.7554360970544052e-11  8.5250711570752522e-11  1.0678134244870622e-10  1.3273153557875633e-10  1.6370577668771746e-10  2.0030704404232919e-10  2.4311048579916007e-10  2.9263170995031226e-10  3.4929040895213903e-10  4.1337061099789096e-10  4.8497944978279100e-10  5.6400691707709064e-10  6.5008953796084634e-10  7.4258121205979310e-10  8.4053452389707634e-10  9.4269558419135520e-10  1.0475148897213124e-09  1.1531757855104404e-09  1.2576409241112948e-09  1.3587157293789117e-09  1.4541264096571139e-09  1.5416086757740192e-09  1.6190021580166705e-09  1.6843447256102441e-09  1.7359606009420740e-09  1.7725363871288915e-09  1.7931798888287738e-09  1.7974578368674921e-09  1.7854102061292977e-09  1.7575405820395141e-09  1.7147838037890351e-09  1.6584537168123681e-09  1.5901751541267353e-09  1.5118051308585436e-09  1.4253486271021658e-09  1.3328742550075689e-09  1.2364346100034894e-09  1.1379952843543568e-09  1.0393754872644609e-09  9.4220208926033625e-10  8.4787780122365065e-10  7.5756320254191848e-10  6.7217151459081897e-10  5.9237441280601242e-10  5.1861679348235550e-10  4.5113824790128466e-10  3.8999901739401574e-10  3.3510836923094043e-10  2.8625360145521504e-10  2.4312821268586419e-10  2.0535812304903572e-10  1.7252517440416757e-10  1.4418744963284967e-10  1.1989621764009658e-10  9.9209525684403723e-11  8.1702622324340776e-11  6.6975505603029033e-11  5.4657957930809268e-11  4.4412458912269925e-11  3.5935368091504512e-11  2.8956749031531679e-11  2.3239171336116449e-11  1.8575784181128881e-11  1.4787908554211022e-11  1.1722349563444136e-11  9.2485878583195042e-12  7.2559728135408136e-12  5.6510118509135180e-12  4.3548325835991865e-12  3.3008907328427475e-12  2.4330121106471586e-12  1.7038994004038979e-12  1.0743165052880895e-12  5.1330409354530297e-13  0.0000000000000000e+00  0.0000000000000000e+00  2.2069966985323874e-14  4.5896370079204218e-14  7.5021028895619808e-14  1.1340925121512384e-13  1.6594660585207296e-13  2.3898650645677857e-13  3.4100490554271268e-13  4.8341563259745922e-13  6.8160420743850733e-13  9.5624438833459139e-13  1.3349692856775370e-12  1.8544764415561415e-12  2.5631524052254597e-12  3.5243051795553285e-12  4.8200901370448527e-12  6.5562037349977035e-12  8.8673962212153848e-12  1.1923815760073714e-11  1.5938138156570517e-11  2.1173355063875647e-11  2.7950986622187710e-11  3.6659351052340602e-11  4.7761365732302264e-11  6.1801177479507318e-11  7.9408734808692628e-11  1.0130123822479661e-10  1.2828025861350753e-10  1.6122322663521658e-10  2.0106800001115636e-10  2.4878934440722315e-10  3.0536644819211515e-10  3.7174105439147227e-10  4.4876644293220902e-10  5.3714832022121168e-10  6.3737963255105410e-10  7.4967234695964956e-10  8.7389024170068220e-10  1.0094875990559767e-09  1.1554592641392842e-09  1.3103076962327359e-09  1.4720322882667779e-09  1.6381453024058506e-09  1.8057172633959175e-09  1.9714526374658888e-09  2.1317942500306146e-09  2.2830523740437265e-09  2.4215520125714335e-09  2.5437898792275178e-09  2.6465912020460842e-09  2.7272559347245002e-09  2.7836843583343982e-09  2.8144733914742047e-09  2.8189770793168315e-09  2.7973274844752748e-09  2.7504152665327752e-09  2.6798322920134981e-09  2.5877813530098645e-09  2.4769602317680635e-09  2.3504287523057876e-09  2.2114680282499515e-09  2.0634408674212822e-09  1.9096613341030162e-09  1.7532799694797396e-09  1.5971893352163294e-09  1.4439525868618465e-09  1.2957558958961924e-09  1.1543838769384604e-09  1.0212158462384210e-09  8.9723979389174849e-10  7.8308040266284625e-10  6.7903725978212937e-10  5.8512952650969279e-10  5.0114368047962966e-10  4.2668145049141742e-10  3.6120564954273321e-10  3.0408221692835373e-10  2.5461735527834012e-10  2.1208915927730150e-10  1.7577355920656145e-10  1.4496473605307481e-10  1.1899040679616112e-10  9.7222536348322400e-11  7.9084118344760038e-11  6.4052694361345183e-11  5.1661264281949209e-11  4.1497192611727412e-11  3.3199648080235533e-11  2.6456036447061825e-11  2.0997806533775541e-11  1.6595932837609609e-11  1.3056308825162059e-11  1.0215226349411519e-11  7.9350713831378671e-12  6.1003375912007633e-12  4.6140516922310360e-12  3.3947252446793716e-12  2.3740080135008877e-12  1.4953369596829155e-12  7.1408125029195632e-13  0.0000000000000000e+00  0.0000000000000000e+00  2.9902292561155582e-14  6.2275308816855647e-14  1.0202186026753840e-13  1.5466179689365851e-13  2.2703840857678623e-13  3.2810449435025666e-13  4.6987035165099888e-13  6.6859385597986483e-13  9.4630054691127733e-13  1.3327328613605522e-12  1.8678409812121696e-12  2.6049415570210259e-12  3.6146827231309754e-12  4.9899615512958850e-12  6.8519397850866835e-12  9.3572908058210869e-12  1.2706779815851275e-11  1.7155223916552683e-11  2.3022792420301321e-11  3.0707483912491120e-11  4.0698450023146927e-11  5.3589623870995266e-11  7.0092855205991121e-11  9.1049462005362675e-11  1.1743879532040489e-10  1.5038210587347742e-10  1.9113973326896325e-10  2.4109945810099819e-10  3.0175381846903507e-10  3.7466435429865159e-10  4.6141116158121603e-10  5.6352685851007834e-10  6.8241510800224378e-10  8.1925519341622429e-10  9.7489574902579290e-10  1.1497424954921667e-09  1.3436465631777336e-09  1.5558014990432829e-09  1.7846581163585895e-09  2.0278667315856635e-09  2.2822558453566103e-09  2.5438548418103143e-09  2.8079657852207347e-09  3.0692859961932617e-09  3.3220790390036395e-09  3.5603874162858888e-09  3.7782761027917349e-09  3.9700925430835805e-09  4.1307263399747823e-09  4.2558509189644173e-09  4.3421301557276511e-09  4.3873752894085259e-09  4.3906412015944428e-09  4.3522559289817612e-09  4.2737825811043428e-09  4.1579180836391164e-09  4.0083378178090666e-09  3.8294988284636200e-09  3.6264165282931703e-09  3.4044306115341694e-09  3.1689752630097053e-09  2.9253669150773912e-09  2.6786200821164536e-09  2.4332985611836095e-09  2.1934059026550286e-09  1.9623158580141570e-09  1.7427407613692732e-09  1.5367336642554467e-09  1.3457185950410966e-09  1.1705425479504251e-09  1.0115426513335514e-09  8.6862230689172378e-10  7.4133079673053803e-10  6.2894178686575332e-10  5.3052718978148796e-10  4.4502388184416329e-10  3.7129172662434496e-10  3.0816218157844253e-10  2.5447743609220435e-10  2.0912053632879793e-10  1.7103730422450533e-10  1.3925107182257907e-10  1.1287135095849394e-10  9.1097567114990124e-11  7.3218929401981152e-11  5.8611408028451734e-11  4.6732664889223530e-11  3.7115646835375036e-11  2.9361416077961507e-11  2.3131666082294032e-11  1.8141259855768325e-11  1.4151034681371496e-11  1.0961046403253468e-11  8.4043811385078364e-12  6.3416485448340423e-12  4.6562981802536329e-12  3.2509852566497394e-12  2.0453807484822386e-12  9.7611571973636445e-13  0.0000000000000000e+00  0.0000000000000000e+00  4.0124481804046722e-14  8.3692971328186025e-14  1.3743297983265859e-13  2.0896285603880702e-13  3.0778877622481315e-13  4.4642474165866284e-13  6.4175532588472541e-13  9.1676048080938344e-13  1.3027352199596822e-12  1.8421561588804548e-12  2.5923698287742944e-12  3.6303021092453832e-12  5.0584110078903929e-12  7.0121222147633603e-12  9.6689928558021397e-12  1.3259836530029642e-11  1.8082003223327867e-11  2.4514930694716262e-11  3.3037958030371526e-11  4.4250205750640121e-11  5.8892070024694995e-11  7.7867544611185572e-11  1.0226617280295910e-10  1.3338295216477263e-10  1.7273398950696504e-10  2.2206517087232728e-10  2.8335062833127046e-10  3.5877742788670522e-10  4.5071276283985180e-10  5.6165011649153353e-10  6.9413145801729072e-10  8.5064364041265006e-10  1.0334888288718928e-09  1.2446309950708340e-09  1.4855231853979616e-09  1.7569232378912423e-09  2.0587086194635968e-09  2.3897037361461199e-09  2.7475350352001245e-09  3.1285300618253415e-09  3.5276759994726851e-09  3.9386508744963890e-09  4.3539364870180828e-09  4.7650164111756868e-09  5.1626555038398434e-09  5.5372499085508221e-09  5.8792293388846956e-09  6.1794873338695133e-09  6.4298110011350213e-09  6.6232801233106659e-09  6.7546067350537268e-09  6.8203903645805675e-09  6.8192706924620073e-09  6.7519677106710273e-09  6.6212086438178785e-09  6.4315499097377387e-09  6.1891102887201471e-09  5.9012374625052270e-09  5.5761336750043706e-09  5.2224672782627734e-09  4.8489954978204696e-09  4.4642202848914504e-09  4.0760942039280944e-09  3.6917876020688658e-09  3.3175224789312961e-09  2.9584730884596105e-09  2.6187287837274111e-09  2.3013112189134237e-09  2.0082358443339336e-09  1.7406066236429775e-09  1.4987329148886002e-09  1.2822582717655662e-09  1.0902922943170002e-09  9.2153835122389498e-10  7.7441179909363191e-10  6.4714507068366803e-10  5.3787757438023499e-10  4.4472966845014695e-10  3.6586101297454631e-10  2.9951435935060849e-10  2.4404633405391772e-10  1.9794704641397028e-10  1.5985044268638998e-10  1.2853728499182382e-10  1.0293249506650594e-10  8.2098405161146774e-11  6.5225231192929665e-11  5.1619849014863106e-11  4.0693729802807359e-11  3.1950686193615289e-11  2.4974904030273026e-11  1.9419589854771604e-11  1.4996455051274644e-11  1.1466187914796135e-11  8.6300419107079453e-12  6.3227046780015755e-12  4.4067301283471906e-12  2.7690525733693791e-12  1.3205175726719821e-12  0.0000000000000000e+00  0.0000000000000000e+00  5.3478006894434188e-14  1.1172410979628896e-13  1.8391191856462528e-13  2.8049194038509728e-13  4.1459088949784738e-13  6.0359868737432340e-13  8.7111687091429691e-13  1.2494451038324581e-12  1.7828054444120229e-12  2.5315361188031778e-12  3.5775252935856143e-12  5.0311976220532475e-12  7.0404078497490576e-12  9.8016304504752609e-12  1.3573853789768950e-11  1.8695580625748180e-11  2.5605289837079196e-11  3.4865610211566781e-11  4.7191276750605557e-11  6.3480663099537937e-11  8.4850291554817156e-11  1