<?xml version="1.0"?>
<VTKFile type="UnstructuredGrid"  version="0.1"  >
<UnstructuredGrid>
<Piece  NumberOfPoints="10201" NumberOfCells="20000">
<Points>
<DataArray  type="Float64"  NumberOfComponents="3"  format="ascii">0 0 0  0.01 0 0  0.02 0 0  0.03 0 0  0.04 0 0  0.05 0 0  0.06 0 0  0.07000000000000001 0 0  0.08 0 0  0.09 0 0  0.1 0 0  0.11 0 0  0.12 0 0  0.13 0 0  0.14 0 0  0.15 0 0  0.16 0 0  0.17 0 0  0.18 0 0  0.19 0 0  0.2 0 0  0.21 0 0  0.22 0 0  0.23 0 0  0.24 0 0  0.25 0 0  0.26 0 0  0.27 0 0  0.28 0 0  0.29 0 0  0.3 0 0  0.31 0 0  0.32 0 0  0.33 0 0  0.34 0 0  0.35 0 0  0.36 0 0  0.37 0 0  0.38 0 0  0.39 0 0  0.4 0 0  0.41 0 0  0.42 0 0  0.43 0 0  0.44 0 0  0.45 0 0  0.46 0 0  0.47 0 0  0.48 0 0  0.49 0 0  0.5 0 0  0.51 0 0  0.52 0 0  0.53 0 0  0.54 0 0  0.55 0 0  0.5600000000000001 0 0  0.57 0 0  0.58 0 0  0.59 0 0  0.6 0 0  0.61 0 0  0.62 0 0  0.63 0 0  0.64 0 0  0.65 0 0  0.66 0 0  0.67 0 0  0.68 0 0  0.6899999999999999 0 0  0.7 0 0  0.71 0 0  0.72 0 0  0.73 0 0  0.74 0 0  0.75 0 0  0.76 0 0  0.77 0 0  0.78 0 0  0.79 0 0  0.8 0 0  0.8100000000000001 0 0  0.82 0 0  0.83 0 0  0.84 0 0  0.85 0 0  0.86 0 0  0.87 0 0  0.88 0 0  0.89 0 0  0.9 0 0  0.91 0 0  0.92 0 0  0.93 0 0  0.9399999999999999 0 0  0.95 0 0  0.96 0 0  0.97 0 0  0.98 0 0  0.99 0 0  1 0 0  0 0.01 0  0.01 0.01 0  0.02 0.01 0  0.03 0.01 0  0.04 0.01 0  0.05 0.01 0  0.06 0.01 0  0.07000000000000001 0.01 0  0.08 0.01 0  0.09 0.01 0  0.1 0.01 0  0.11 0.01 0  0.12 0.01 0  0.13 0.01 0  0.14 0.01 0  0.15 0.01 0  0.16 0.01 0  0.17 0.01 0  0.18 0.01 0  0.19 0.01 0  0.2 0.01 0  0.21 0.01 0  0.22 0.01 0  0.23 0.01 0  0.24 0.01 0  0.25 0.01 0  0.26 0.01 0  0.27 0.01 0  0.28 0.01 0  0.29 0.01 0  0.3 0.01 0  0.31 0.01 0  0.32 0.01 0  0.33 0.01 0  0.34 0.01 0  0.35 0.01 0  0.36 0.01 0  0.37 0.01 0  0.38 0.01 0  0.39 0.01 0  0.4 0.01 0  0.41 0.01 0  0.42 0.01 0  0.43 0.01 0  0.44 0.01 0  0.45 0.01 0  0.46 0.01 0  0.47 0.01 0  0.48 0.01 0  0.49 0.01 0  0.5 0.01 0  0.51 0.01 0  0.52 0.01 0  0.53 0.01 0  0.54 0.01 0  0.55 0.01 0  0.5600000000000001 0.01 0  0.57 0.01 0  0.58 0.01 0  0.59 0.01 0  0.6 0.01 0  0.61 0.01 0  0.62 0.01 0  0.63 0.01 0  0.64 0.01 0  0.65 0.01 0  0.66 0.01 0  0.67 0.01 0  0.68 0.01 0  0.6899999999999999 0.01 0  0.7 0.01 0  0.71 0.01 0  0.72 0.01 0  0.73 0.01 0  0.74 0.01 0  0.75 0.01 0  0.76 0.01 0  0.77 0.01 0  0.78 0.01 0  0.79 0.01 0  0.8 0.01 0  0.8100000000000001 0.01 0  0.82 0.01 0  0.83 0.01 0  0.84 0.01 0  0.85 0.01 0  0.86 0.01 0  0.87 0.01 0  0.88 0.01 0  0.89 0.01 0  0.9 0.01 0  0.91 0.01 0  0.92 0.01 0  0.93 0.01 0  0.9399999999999999 0.01 0  0.95 0.01 0  0.96 0.01 0  0.97 0.01 0  0.98 0.01 0  0.99 0.01 0  1 0.01 0  0 0.02 0  0.01 0.02 0  0.02 0.02 0  0.03 0.02 0  0.04 0.02 0  0.05 0.02 0  0.06 0.02 0  0.07000000000000001 0.02 0  0.08 0.02 0  0.09 0.02 0  0.1 0.02 0  0.11 0.02 0  0.12 0.02 0  0.13 0.02 0  0.14 0.02 0  0.15 0.02 0  0.16 0.02 0  0.17 0.02 0  0.18 0.02 0  0.19 0.02 0  0.2 0.02 0  0.21 0.02 0  0.22 0.02 0  0.23 0.02 0  0.24 0.02 0  0.25 0.02 0  0.26 0.02 0  0.27 0.02 0  0.28 0.02 0  0.29 0.02 0  0.3 0.02 0  0.31 0.02 0  0.32 0.02 0  0.33 0.02 0  0.34 0.02 0  0.35 0.02 0  0.36 0.02 0  0.37 0.02 0  0.38 0.02 0  0.39 0.02 0  0.4 0.02 0  0.41 0.02 0  0.42 0.02 0  0.43 0.02 0  0.44 0.02 0  0.45 0.02 0  0.46 0.02 0  0.47 0.02 0  0.48 0.02 0  0.49 0.02 0  0.5 0.02 0  0.51 0.02 0  0.52 0.02 0  0.53 0.02 0  0.54 0.02 0  0.55 0.02 0  0.5600000000000001 0.02 0  0.57 0.02 0  0.58 0.02 0  0.59 0.02 0  0.6 0.02 0  0.61 0.02 0  0.62 0.02 0  0.63 0.02 0  0.64 0.02 0  0.65 0.02 0  0.66 0.02 0  0.67 0.02 0  0.68 0.02 0  0.6899999999999999 0.02 0  0.7 0.02 0  0.71 0.02 0  0.72 0.02 0  0.73 0.02 0  0.74 0.02 0  0.75 0.02 0  0.76 0.02 0  0.77 0.02 0  0.78 0.02 0  0.79 0.02 0  0.8 0.02 0  0.8100000000000001 0.02 0  0.82 0.02 0  0.83 0.02 0  0.84 0.02 0  0.85 0.02 0  0.86 0.02 0  0.87 0.02 0  0.88 0.02 0  0.89 0.02 0  0.9 0.02 0  0.91 0.02 0  0.92 0.02 0  0.93 0.02 0  0.9399999999999999 0.02 0  0.95 0.02 0  0.96 0.02 0  0.97 0.02 0  0.98 0.02 0  0.99 0.02 0  1 0.02 0  0 0.03 0  0.01 0.03 0  0.02 0.03 0  0.03 0.03 0  0.04 0.03 0  0.05 0.03 0  0.06 0.03 0  0.07000000000000001 0.03 0  0.08 0.03 0  0.09 0.03 0  0.1 0.03 0  0.11 0.03 0  0.12 0.03 0  0.13 0.03 0  0.14 0.03 0  0.15 0.03 0  0.16 0.03 0  0.17 0.03 0  0.18 0.03 0  0.19 0.03 0  0.2 0.03 0  0.21 0.03 0  0.22 0.03 0  0.23 0.03 0  0.24 0.03 0  0.25 0.03 0  0.26 0.03 0  0.27 0.03 0  0.28 0.03 0  0.29 0.03 0  0.3 0.03 0  0.31 0.03 0  0.32 0.03 0  0.33 0.03 0  0.34 0.03 0  0.35 0.03 0  0.36 0.03 0  0.37 0.03 0  0.38 0.03 0  0.39 0.03 0  0.4 0.03 0  0.41 0.03 0  0.42 0.03 0  0.43 0.03 0  0.44 0.03 0  0.45 0.03 0  0.46 0.03 0  0.47 0.03 0  0.48 0.03 0  0.49 0.03 0  0.5 0.03 0  0.51 0.03 0  0.52 0.03 0  0.53 0.03 0  0.54 0.03 0  0.55 0.03 0  0.5600000000000001 0.03 0  0.57 0.03 0  0.58 0.03 0  0.59 0.03 0  0.6 0.03 0  0.61 0.03 0  0.62 0.03 0  0.63 0.03 0  0.64 0.03 0  0.65 0.03 0  0.66 0.03 0  0.67 0.03 0  0.68 0.03 0  0.6899999999999999 0.03 0  0.7 0.03 0  0.71 0.03 0  0.72 0.03 0  0.73 0.03 0  0.74 0.03 0  0.75 0.03 0  0.76 0.03 0  0.77 0.03 0  0.78 0.03 0  0.79 0.03 0  0.8 0.03 0  0.8100000000000001 0.03 0  0.82 0.03 0  0.83 0.03 0  0.84 0.03 0  0.85 0.03 0  0.86 0.03 0  0.87 0.03 0  0.88 0.03 0  0.89 0.03 0  0.9 0.03 0  0.91 0.03 0  0.92 0.03 0  0.93 0.03 0  0.9399999999999999 0.03 0  0.95 0.03 0  0.96 0.03 0  0.97 0.03 0  0.98 0.03 0  0.99 0.03 0  1 0.03 0  0 0.04 0  0.01 0.04 0  0.02 0.04 0  0.03 0.04 0  0.04 0.04 0  0.05 0.04 0  0.06 0.04 0  0.07000000000000001 0.04 0  0.08 0.04 0  0.09 0.04 0  0.1 0.04 0  0.11 0.04 0  0.12 0.04 0  0.13 0.04 0  0.14 0.04 0  0.15 0.04 0  0.16 0.04 0  0.17 0.04 0  0.18 0.04 0  0.19 0.04 0  0.2 0.04 0  0.21 0.04 0  0.22 0.04 0  0.23 0.04 0  0.24 0.04 0  0.25 0.04 0  0.26 0.04 0  0.27 0.04 0  0.28 0.04 0  0.29 0.04 0  0.3 0.04 0  0.31 0.04 0  0.32 0.04 0  0.33 0.04 0  0.34 0.04 0  0.35 0.04 0  0.36 0.04 0  0.37 0.04 0  0.38 0.04 0  0.39 0.04 0  0.4 0.04 0  0.41 0.04 0  0.42 0.04 0  0.43 0.04 0  0.44 0.04 0  0.45 0.04 0  0.46 0.04 0  0.47 0.04 0  0.48 0.04 0  0.49 0.04 0  0.5 0.04 0  0.51 0.04 0  0.52 0.04 0  0.53 0.04 0  0.54 0.04 0  0.55 0.04 0  0.5600000000000001 0.04 0  0.57 0.04 0  0.58 0.04 0  0.59 0.04 0  0.6 0.04 0  0.61 0.04 0  0.62 0.04 0  0.63 0.04 0  0.64 0.04 0  0.65 0.04 0  0.66 0.04 0  0.67 0.04 0  0.68 0.04 0  0.6899999999999999 0.04 0  0.7 0.04 0  0.71 0.04 0  0.72 0.04 0  0.73 0.04 0  0.74 0.04 0  0.75 0.04 0  0.76 0.04 0  0.77 0.04 0  0.78 0.04 0  0.79 0.04 0  0.8 0.04 0  0.8100000000000001 0.04 0  0.82 0.04 0  0.83 0.04 0  0.84 0.04 0  0.85 0.04 0  0.86 0.04 0  0.87 0.04 0  0.88 0.04 0  0.89 0.04 0  0.9 0.04 0  0.91 0.04 0  0.92 0.04 0  0.93 0.04 0  0.9399999999999999 0.04 0  0.95 0.04 0  0.96 0.04 0  0.97 0.04 0  0.98 0.04 0  0.99 0.04 0  1 0.04 0  0 0.05 0  0.01 0.05 0  0.02 0.05 0  0.03 0.05 0  0.04 0.05 0  0.05 0.05 0  0.06 0.05 0  0.07000000000000001 0.05 0  0.08 0.05 0  0.09 0.05 0  0.1 0.05 0  0.11 0.05 0  0.12 0.05 0  0.13 0.05 0  0.14 0.05 0  0.15 0.05 0  0.16 0.05 0  0.17 0.05 0  0.18 0.05 0  0.19 0.05 0  0.2 0.05 0  0.21 0.05 0  0.22 0.05 0  0.23 0.05 0  0.24 0.05 0  0.25 0.05 0  0.26 0.05 0  0.27 0.05 0  0.28 0.05 0  0.29 0.05 0  0.3 0.05 0  0.31 0.05 0  0.32 0.05 0  0.33 0.05 0  0.34 0.05 0  0.35 0.05 0  0.36 0.05 0  0.37 0.05 0  0.38 0.05 0  0.39 0.05 0  0.4 0.05 0  0.41 0.05 0  0.42 0.05 0  0.43 0.05 0  0.44 0.05 0  0.45 0.05 0  0.46 0.05 0  0.47 0.05 0  0.48 0.05 0  0.49 0.05 0  0.5 0.05 0  0.51 0.05 0  0.52 0.05 0  0.53 0.05 0  0.54 0.05 0  0.55 0.05 0  0.5600000000000001 0.05 0  0.57 0.05 0  0.58 0.05 0  0.59 0.05 0  0.6 0.05 0  0.61 0.05 0  0.62 0.05 0  0.63 0.05 0  0.64 0.05 0  0.65 0.05 0  0.66 0.05 0  0.67 0.05 0  0.68 0.05 0  0.6899999999999999 0.05 0  0.7 0.05 0  0.71 0.05 0  0.72 0.05 0  0.73 0.05 0  0.74 0.05 0  0.75 0.05 0  0.76 0.05 0  0.77 0.05 0  0.78 0.05 0  0.79 0.05 0  0.8 0.05 0  0.8100000000000001 0.05 0  0.82 0.05 0  0.83 0.05 0  0.84 0.05 0  0.85 0.05 0  0.86 0.05 0  0.87 0.05 0  0.88 0.05 0  0.89 0.05 0  0.9 0.05 0  0.91 0.05 0  0.92 0.05 0  0.93 0.05 0  0.9399999999999999 0.05 0  0.95 0.05 0  0.96 0.05 0  0.97 0.05 0  0.98 0.05 0  0.99 0.05 0  1 0.05 0  0 0.06 0  0.01 0.06 0  0.02 0.06 0  0.03 0.06 0  0.04 0.06 0  0.05 0.06 0  0.06 0.06 0  0.07000000000000001 0.06 0  0.08 0.06 0  0.09 0.06 0  0.1 0.06 0  0.11 0.06 0  0.12 0.06 0  0.13 0.06 0  0.14 0.06 0  0.15 0.06 0  0.16 0.06 0  0.17 0.06 0  0.18 0.06 0  0.19 0.06 0  0.2 0.06 0  0.21 0.06 0  0.22 0.06 0  0.23 0.06 0  0.24 0.06 0  0.25 0.06 0  0.26 0.06 0  0.27 0.06 0  0.28 0.06 0  0.29 0.06 0  0.3 0.06 0  0.31 0.06 0  0.32 0.06 0  0.33 0.06 0  0.34 0.06 0  0.35 0.06 0  0.36 0.06 0  0.37 0.06 0  0.38 0.06 0  0.39 0.06 0  0.4 0.06 0  0.41 0.06 0  0.42 0.06 0  0.43 0.06 0  0.44 0.06 0  0.45 0.06 0  0.46 0.06 0  0.47 0.06 0  0.48 0.06 0  0.49 0.06 0  0.5 0.06 0  0.51 0.06 0  0.52 0.06 0  0.53 0.06 0  0.54 0.06 0  0.55 0.06 0  0.5600000000000001 0.06 0  0.57 0.06 0  0.58 0.06 0  0.59 0.06 0  0.6 0.06 0  0.61 0.06 0  0.62 0.06 0  0.63 0.06 0  0.64 0.06 0  0.65 0.06 0  0.66 0.06 0  0.67 0.06 0  0.68 0.06 0  0.6899999999999999 0.06 0  0.7 0.06 0  0.71 0.06 0  0.72 0.06 0  0.73 0.06 0  0.74 0.06 0  0.75 0.06 0  0.76 0.06 0  0.77 0.06 0  0.78 0.06 0  0.79 0.06 0  0.8 0.06 0  0.8100000000000001 0.06 0  0.82 0.06 0  0.83 0.06 0  0.84 0.06 0  0.85 0.06 0  0.86 0.06 0  0.87 0.06 0  0.88 0.06 0  0.89 0.06 0  0.9 0.06 0  0.91 0.06 0  0.92 0.06 0  0.93 0.06 0  0.9399999999999999 0.06 0  0.95 0.06 0  0.96 0.06 0  0.97 0.06 0  0.98 0.06 0  0.99 0.06 0  1 0.06 0  0 0.07000000000000001 0  0.01 0.07000000000000001 0  0.02 0.07000000000000001 0  0.03 0.07000000000000001 0  0.04 0.07000000000000001 0  0.05 0.07000000000000001 0  0.06 0.07000000000000001 0  0.07000000000000001 0.07000000000000001 0  0.08 0.07000000000000001 0  0.09 0.07000000000000001 0  0.1 0.07000000000000001 0  0.11 0.07000000000000001 0  0.12 0.07000000000000001 0  0.13 0.07000000000000001 0  0.14 0.07000000000000001 0  0.15 0.07000000000000001 0  0.16 0.07000000000000001 0  0.17 0.0700
[...]
<PointData  Scalars="u"> 
<DataArray  type="Float64"  Name="u"  format="ascii">0.0000000000000000e+00  0.0000000000000000e+00  0.0000000000000000e+00  0.0000000000000000e+00  0.0000000000000000e+00  0.0000000000000000e+00  0.0000000000000000e+00  0.0000000000000000e+00  0.0000000000000000e+00  0.0000000000000000e+00  0.0000000000000000e+00  0.0000000000000000e+00  0.0000000000000000e+00  0.0000000000000000e+00  0.0000000000000000e+00  0.0000000000000000e+00  0.0000000000000000e+00  0.0000000000000000e+00  0.0000000000000000e+00  0.0000000000000000e+00  0.0000000000000000e+00  0.0000000000000000e+00  0.0000000000000000e+00  0.0000000000000000e+00  0.0000000000000000e+00  0.0000000000000000e+00  0.0000000000000000e+00  0.0000000000000000e+00  0.0000000000000000e+00  0.0000000000000000e+00  0.0000000000000000e+00  0.0000000000000000e+00  0.0000000000000000e+00  0.0000000000000000e+00  0.0000000000000000e+00  0.0000000000000000e+00  0.0000000000000000e+00  0.0000000000000000e+00  0.0000000000000000e+00  0.0000000000000000e+00  0.0000000000000000e+00  0.0000000000000000e+00  0.0000000000000000e+00  0.0000000000000000e+00  0.0000000000000000e+00  0.0000000000000000e+00  0.0000000000000000e+00  0.0000000000000000e+00  0.0000000000000000e+00  0.0000000000000000e+00  0.0000000000000000e+00  0.0000000000000000e+00  0.0000000000000000e+00  0.0000000000000000e+00  0.0000000000000000e+00  0.0000000000000000e+00  0.0000000000000000e+00  0.0000000000000000e+00  0.0000000000000000e+00  0.0000000000000000e+00  0.0000000000000000e+00  0.0000000000000000e+00  0.0000000000000000e+00  0.0000000000000000e+00  0.0000000000000000e+00  0.0000000000000000e+00  0.0000000000000000e+00  0.0000000000000000e+00  0.0000000000000000e+00  0.0000000000000000e+00  0.0000000000000000e+00  0.0000000000000000e+00  0.0000000000000000e+00  0.0000000000000000e+00  0.0000000000000000e+00  0.0000000000000000e+00  0.0000000000000000e+00  0.0000000000000000e+00  0.0000000000000000e+00  0.0000000000000000e+00  0.0000000000000000e+00  0.0000000000000000e+00  0.0000000000000000e+00  0.0000000000000000e+00  0.0000000000000000e+00  0.0000000000000000e+00  0.0000000000000000e+00  0.0000000000000000e+00  0.0000000000000000e+00  0.0000000000000000e+00  0.0000000000000000e+00  0.0000000000000000e+00  0.0000000000000000e+00  0.0000000000000000e+00  0.0000000000000000e+00  0.0000000000000000e+00  0.0000000000000000e+00  0.0000000000000000e+00  0.0000000000000000e+00  0.0000000000000000e+00  0.0000000000000000e+00  0.0000000000000000e+00  7.3772791773477550e-17  1.6989390891251210e-16  3.0317189061565718e-16  4.9476260936352927e-16  7.7534440176495784e-16  1.1895271843858575e-15  1.8021023925372269e-15  2.7068486903262141e-15  4.0388516331848534e-15  5.9916057217497151e-15  8.8405558853756778e-15  1.2975211757229947e-14  1.8942537266129361e-14  2.7504977501460591e-14  3.9717219639117923e-14  5.7026561959665767e-14  8.1402526637658407e-14  1.1550200746961850e-13  1.6287666257505864e-13  2.2822926819185065e-13  3.1772511882805518e-13  4.3936302274886708e-13  6.0340769995669957e-13  8.2288113547529700e-13  1.1141043995191730e-12  1.4972734319870370e-12  1.9970422749977606e-12  2.6430754387585112e-12  3.4705180439949120e-12  4.5203190393600260e-12  5.8393305295346322e-12  7.4800968911600313e-12  9.5002430787339402e-12  1.1961374697517342e-11  1.4927415329529108e-11  1.8462331083932881e-11  2.2627229382520314e-11  2.7476868266090274e-11  3.3055672033531481e-11  3.9393414929953020e-11  4.6500801136286386e-11  5.4365229173416833e-11  6.2947073797249867e-11  7.2176840339823891e-11  8.1953538255092225e-11  9.2144577784833350e-11  1.0258741510236150e-10  1.1309306019048773e-10  1.2345142567871075e-10  1.3343834551309677e-10  1.4282394416300799e-10  1.5138190581759049e-10  1.5889909366710470e-10  1.6518491408257516e-10  1.7007981694744626e-10  1.7346237350067250e-10  1.7525447268195914e-10  1.7542431637623063e-10  1.7398705903048556e-10  1.7100311123646211e-10  1.6657429301100278e-10  1.6083816531262953e-10  1.5396097586375381e-10  1.4612972022314576e-10  1.3754383892504422e-10  1.2840704883453143e-10  1.1891974814020145e-10  1.0927234890197653e-10  9.9639789506663550e-11  9.0177372535814450e-11  8.1017971108341344e-11  7.2270556481441487e-11  6.4019926930672990e-11  5.6327465517430778e-11  4.9232722792426240e-11  4.2755608354414168e-11  3.6898979665217416e-11  3.1651433962252791e-11  2.6990135545919820e-11  2.2883542314408438e-11  1.9293928780011072e-11  1.6179635177067557e-11  1.3497001635583247e-11  1.1201971437048403e-11  9.2513674232505103e-12  7.6038605541250938e-12  6.2206596565336630e-12  5.0659570751519709e-12  4.1071668590068655e-12  3.3149909397533978e-12  2.6633450554316641e-12  2.1291703771587234e-12  1.6921491360485974e-12  1.3343330063509317e-12  1.0396812749634786e-12  7.9349129582439724e-13  5.8168542618753036e-13  3.8989520698583026e-13  2.0225233230327204e-13  0.0000000000000000e+00  0.0000000000000000e+00  1.5110422187510867e-16  3.4822933023354687e-16  6.2190058557258128e-16  1.0158961071204691e-15  1.5937970247851395e-15  2.4482121066858202e-15  3.7138775999848333e-15  5.5861510907337977e-15  8.3469390502009884e-15  1.2400765463665982e-14  1.8324528557887733e-14  2.6935526050505110e-14  3.9383569840825918e-14  5.7274455893491078e-14  8.2833675350756790e-14  1.1912098077786323e-13  1.7030813465647409e-13  2.4203367212092162e-13  3.4184952442758746e-13  4.7977448940302316e-13  6.6896830685269797e-13  9.2653690475777328e-13  1.2744735536151038e-12  1.7407315054374064e-12  2.3604105672792444e-12  3.1770225191401693e-12  4.2437782302565419e-12  5.6248131850766265e-12  7.3962390556481090e-12  9.6468790045313180e-12  1.2478516633412413e-11  1.6005466972916147e-11  2.0353267539580568e-11  2.5656293627047902e-11  3.2054129866806183e-11  3.9686583945768889e-11  4.8687310534618992e-11  5.9176123370640168e-11  7.1250206676230325e-11  8.4974584994322473e-11  1.0037236010050196e-10  1.1741535833243289e-10  1.3601593276479526e-10  1.5602071351855411e-10  1.7720708023289593e-10  1.9928303301007878e-10  2.2189095968482662e-10  2.4461554552201589e-10  2.6699576403138987e-10  2.8854055122738257e-10  3.0874743357565402e-10  3.2712308790282440e-10  3.4320459355516622e-10  3.5658002026509563e-10  3.6690699609009220e-10  3.7392802180571593e-10  3.7748153072241552e-10  3.7750801285118471e-10  3.7405089683897653e-10  3.6725227400635311e-10  3.5734391763309192e-10  3.4463436317419229e-10  3.2949304535611277e-10  3.1233262076807947e-10  2.9359063581506366e-10  2.7371163673882890e-10  2.5313067665129357e-10  2.3225897592211088e-10  2.1147226133030666e-10  1.9110207031984578e-10  1.7143008081671749e-10  1.5268533104531230e-10  1.3504403871815528e-10  1.1863162025694180e-10  1.0352644856581681e-10  8.9764868392955072e-11  7.7347004639258721e-11  6.6242942621764590e-11  5.6398921317295941e-11  4.7743252505871362e-11  4.0191753139608794e-11  3.3652549334404390e-11  2.8030173927856037e-11  2.3228932974828543e-11  1.9155558669308039e-11  1.5721196917148425e-11  1.2842797879490550e-11  1.0443988507566355e-11  8.4555088739150043e-12  6.8152904494395714e-12  5.4682456695347314e-12  4.3658251321753473e-12  3.4653820866785817e-12  2.7293634769926692e-12  2.1243220579223457e-12  1.6197136933307716e-12  1.1864058585016648e-12  7.9477497869194739e-13  4.1220890146276379e-13  0.0000000000000000e+00  0.0000000000000000e+00  2.4207810136869436e-16  5.5831991836618622e-16  9.9824513187147319e-16  1.6330664871454470e-15  2.5664641066007616e-15  3.9498423178906844e-15  6.0040619145579906e-15  9.0502159040279574e-15  1.3552912126810530e-14  2.0180679150924363e-14  2.9889569706834140e-14  4.4037841157856789e-14  6.4541774109767917e-14  9.4085250837504078e-14  1.3639861316378802e-13  1.9662544602239455e-13  2.8179908429535584e-13  4.0145348598624667e-13  5.6839516467758872e-13  7.9966345185543348e-13  1.1177045855679912e-12  1.5517799201347335e-12  2.1396186913733316e-12  2.9293099573550737e-12  3.9814053571506563e-12  5.3711732890010508e-12  7.1909057043625312e-12  9.5521315917632761e-12  1.2587538347406660e-11  1.6452347214863692e-11  2.1324837322253948e-11  2.7405671954764980e-11  3.4915659599593501e-11  4.4091590968836462e-11  5.5179841469381715e-11  6.8427524598340768e-11  8.4071130151196744e-11  1.0232278118798329e-10  1.2335448758931292e-10  1.4728104580958018e-10  1.7414251000961850e-10  2.0388740818403573e-10  2.3635806317101078e-10  2.7127946759455928e-10  3.0825312407117854e-10  3.4675707820928696e-10  3.8615303815855642e-10  4.2570100533674127e-10  4.6458127032554668e-10  5.0192300670497600e-10  5.3683808666152340e-10  5.6845821286206354e-10  5.9597307417016787e-10  6.1866703779360060e-10  6.3595191617609027e-10  6.4739359686597022e-10  6.5273077491768541e-10  6.5188463389070499e-10  6.4495901975717078e-10  6.3223136984948373e-10  6.1413532490726351e-10  5.9123650439248667e-10  5.6420331809872048e-10  5.3377489593044884e-10  5.0072823954925285e-10  4.6584655118366964e-10  4.2989040868367478e-10  3.9357307419907804e-10  3.5754079281369600e-10  3.2235850136323377e-10  2.8850096442251000e-10  2.5634901262935052e-10  2.2619029597953094e-10  1.9822378878549857e-10  1.7256719170602863e-10  1.4926636051945912e-10  1.2830593726477172e-10  1.0962045077036182e-10  9.3105273893500678e-11  7.8626958789584484e-11  6.6032606409806481e-11  5.5158052351650531e-11  4.5834761418405997e-11  3.7895413926265600e-11  3.1178236524349847e-11  2.5530179555004504e-11  2.0809073584059841e-11  1.6884912243148364e-11  1.3640409804584521e-11  1.0970972705669484e-11  8.7842068991815949e-12  6.9990591424731837e-12  5.5446610574234437e-12  4.3589099681638054e-12  3.3867790737175890e-12  2.5782992168106865e-12  1.8860919542831521e-12  1.2622542655087760e-12  6.5429317846813117e-13  0.0000000000000000e+00  0.0000000000000000e+00  3.5718959632893891e-16  8.2458476144415574e-16  1.4764508279699296e-15  2.4199044693358498e-15  3.8113823991711127e-15  5.8800743799105812e-15  8.9614275965049602e-15  1.3544776923279430e-14  2.0340596194148266e-14  3.0374732604676848e-14  4.5119362963968976e-14  6.6673374951041184e-14  9.8008488037822571e-14  1.4330170653328008e-13  2.0837959111569785e-13  3.0130518694739352e-13  4.3314394146383431e-13  6.1895005682512492e-13  8.7901865408338674e-13  1.2404507580396720e-12  1.7390759644968372e-12  2.4217698881159996e-12  3.3491879732577818e-12  4.5989116892649171e-12  6.2689653264446380e-12  8.4816098300858915e-12  1.1387253603003336e-11  1.5168239807962692e-11  2.0042178505112826e-11  2.6264395951377228e-11  3.4128981897834738e-11  4.3967841527003934e-11  5.6147117577273767e-11  7.1060357905657348e-11  8.9117881913674944e-11  1.1073196084648071e-10  1.3629768089818012e-10  1.6616970374181715e-10  2.0063556337258988e-10  2.3988661321909777e-10  2.8398822076716308e-10  3.3285124335934749e-10  3.8620714575491719e-10  4.4358927484270607e-10  5.0432273633105350e-10  5.6752498824923565e-10  6.3211867054434415e-10  6.9685735643093014e-10  7.6036390175173894e-10  8.2117997631614004e-10  8.7782429977965883e-10  9.2885619475030875e-10  9.7294042254176448e-10  1.0089089677455736e-09  1.0358155332042663e-09  1.0529789972120919e-09  1.0600129226921763e-09  1.0568393053684150e-09  1.0436859872220110e-09  1.0210684124944136e-09  9.8975754017898731e-10  9.5073664335932677e-10  9.0515034777668030e-10  8.5424955383834726e-10  7.9933585109580552e-10  7.4170870959189582e-10  6.8261818179586528e-10  6.2322515059190773e-10  5.6457039542113817e-10  5.0755299677847334e-10  4.5291792204377941e-10  4.0125207837616629e-10  3.5298770694166266e-10  3.0841173444823615e-10  2.6767958468571403e-10  2.3083196491932622e-10  1.9781325295529014e-10  1.6849029103960189e-10  1.4267061367776602e-10  1.2011937241010226e-10  1.0057445079594016e-10  8.3759472104944064e-11  6.9394580696183276e-11  5.7205020878656543e-11  4.6927643271666059e-11  3.8315540356014885e-11  3.1141053991563846e-11  2.5197413138088362e-11  2.0299255046669362e-11  1.6282262603285566e-11  1.3002118297844962e-11  1.0332934315294234e-11  8.1652699928502006e-12  6.4037923183393416e-12  4.9645705414244765e-12  3.7719188099497966e-12  2.7546056188894852e-12  1.8411285219371414e-12  9.5359792240882473e-13  0.0000000000000000e+00  0.0000000000000000e+00  5.0862717526465412e-16  1.1754475614879341e-15  2.1082153336496983e-15  3.4628605380010863e-15  5.4679180487737491e-15  8.4594569164693451e-15  1.2931235889536088e-14  1.9606318472029193e-14  2.9538642476986846e-14  4.4255990657183273e-14  6.5959594270341220e-14  9.7800360999995205e-14  1.4425756834656428e-13  2.1165286137357458e-13  3.0884049218172297e-13  4.4812372114295393e-13  6.4645670007971596e-13  9.2700016261468152e-13  1.3211065943242504e-12  1.8708144334192049e-12  2.6319288269698468e-12  3.6777554629115095e-12  5.1035303745869028e-12  7.0315483845894032e-12  9.6169320838909963e-12  1.3053898674075752e-11  1.7582271916426523e-11  2.3493851721353297e-11  3.1138099268181709e-11  4.0926430626112504e-11  5.3334252163836346e-11  6.8899738265081524e-11  8.8218273244779440e-11  1.1193148583271098e-10  1.4070992753152790e-10  1.7522871263876544e-10  2.1613586467288326e-10  2.6401370183478963e-10  3.1933432127810125e-10  3.8241106068354850e-10  4.5334865173887114e-10  5.3199553675858194e-10  6.1790238618136382e-10  7.1029112016142663e-10  8.0803860770389969e-10  9.0967863212160113e-10  1.0134246626273007e-09  1.1172145097230336e-09  1.2187761801252824e-09  1.3157123528101637e-09  1.4055990749072078e-09  1.4860927381709444e-09  1.5550383372445159e-09  1.6105715746258818e-09  1.6512076371154003e-09  1.6759104132186084e-09  1.6841374550445696e-09  1.6758579451163728e-09  1.6515430940591465e-09  1.6121305375641339e-09  1.5589662020993845e-09  1.4937285912484677e-09  1.4183413915179780e-09  1.3348806610515661e-09  1.2454826686658766e-09  1.1522577739627954e-09  1.0572147033061207e-09  9.6219832388709045e-10  8.6884269329340406e-10  7.7853989419402192e-10  6.9242405515720086e-10  6.1136907794430818e-10  5.3599797295187380e-10  4.6670135047548934e-10  4.0366250359113727e-10  3.4688660865686675e-10  2.9623181214917386e-10  2.5144031575978852e-10  2.1216796661524053e-10  1.7801126448974352e-10  1.4853108057031777e-10  1.2327272019332736e-10  1.0178224182700403e-10  8.3619161246254801e-11  6.8365824403425276e-11  5.5633830396106791e-11  4.5067935254680667e-11  3.6347877222016522e-11  2.9188543897165266e-11  2.3338859213388788e-11  1.8579710280681297e-11  1.4721165217448576e-11  1.1599155550071324e-11  9.0717104632031914e-12  7.0147324305552732e-12  5.3171890797101120e-12  3.8754561993423853e-12  2.5863704102232405e-12  1.3383232388148492e-12  0.0000000000000000e+00  0.0000000000000000e+00  7.1144790297372393e-16  1.6461045590051758e-15  2.9577920805546665e-15  4.8698901565672101e-15  7.7110546801704938e-15  1.1966546377755178e-14  1.8352274701902177e-14  2.7921022846802961e-14  4.2213830635968210e-14  6.3474127955389217e-14  9.4948177515111992e-14  1.4130295067696410e-13  2.0920194325529482e-13  3.0809077825680308e-13  4.5125772197768534e-13  6.5724918107839242e-13  9.5173617873076466e-13  1.3699434970859141e-12  1.9597666498448999e-12  2.7857102184802549e-12  3.9337803835275318e-12  5.5174496080323004e-12  7.6847762346688444e-12  1.0626699360910852e-11  1.4586432779664453e-11  1.9869744962627427e-11  2.6855731342199956e-11  3.6007461061046739e-11  4.7881619793884516e-11  6.3135988556630125e-11  8.2533321143155039e-11  1.0693994646993680e-10  1.3731727332798809e-10  1.7470436769824696e-10  2.2018996237075523e-10  2.7487269402460818e-10  3.3980907612010440e-10  4.1594971054600770e-10  5.0406548174850081e-10  6.0466688277130848e-10  7.1792106447799767e-10  8.4357250745634871e-10  9.8087419566542887e-10  1.1285366257548909e-09  1.2847017497354429e-09  1.4469479168787077e-09  1.6123300393587209e-09  1.7774566498305613e-09  1.9386024538314918e-09  2.0918517071112751e-09  2.2332646309373718e-09  2.3590564939909825e-09  2.4657772737231918e-09  2.5504792062856932e-09  2.6108601532455621e-09  2.6453725136647544e-09  2.6532902014887085e-09  2.6347296784708659e-09  2.5906247934543570e-09  2.5226588200484320e-09  2.4331602317722327e-09  2.3249711139776562e-09  2.2012985065481170e-09  2.0655593480405277e-09  1.9212291177453395e-09  1.7717029113628807e-09  1.6201757672738855e-09  1.4695468400555573e-09  1.3223497454198859e-09  1.1807092908330014e-09  1.0463230202111672e-09  9.2046463927987138e-10  8.0400548986118272e-10  6.9744979345090984e-10  6.0097933393058292e-10  5.1450351750166298e-10  4.3771124463142631e-10  3.7012166385373802e-10  3.1113156963583793e-10  2.6005788985172419e-10  2.1617433359795672e-10  1.7874180538159434e-10  1.4703262093405987e-10  1.2034887966644989e-10  9.8035565175246275e-11  7.9489070543073975e-11  6.4161895061989474e-11  5.1564249943105501e-11  4.1263258167504787e-11  3.2880351322606523e-11  2.6087364548920567e-11  2.0601716685264353e-11  1.6180939790768844e-11  1.2616690085818560e-11  9.7282266896534978e-12  7.3551769026703834e-12  5.3492044349154495e-12  3.5639428683482129e-12  1.8422293966792123e-12  0.0000000000000000e+00  0.0000000000000000e+00  9.8485295192816526e-16  2.2815389883001126e-15  4.1075863249965488e-15  6.7800575448526018e-15  1.0767343239934922e-14  1.6763974910973342e-14  2.5799068558724499e-14  3.9392672211088344e-14  5.9779705245680172e-14  9.0228350345507462e-14  1.3548910478847334e-13  2.0242265045625655e-13  3.0086966637413868e-13  4.4484398091757182e-13  6.5415211360640355e-13  9.5656696499276299e-13  1.3907102374759964e-12  2.0098252775472423e-12  2.8866463786445169e-12  4.1195875914099794e-12  5.8404773438910404e-12  8.2240462726031090e-12  1.1499324276661181e-11  1.5963007125792919e-11  2.1994700679298651e-11  3.0073730772329045e-11  4.0796911555678834e-11  5.4896293761438551e-11  7.3255476736849142e-11  9.6922588235954595e-11  1.2711755563842171e-10  1.6523087266181278e-10  2.1281078646295723e-10  2.7153578483266774e-10  3.4316954999900565e-10  4.2949625262818665e-10  5.3223524707956094e-10  6.5293590834187128e-10  7.9285546594006973e-10  9.5282510236336502e-10  1.1331120699847364e-09  1.3332878435768317e-09  1.5521140213917939e-09  1.7874584695110833e-09  2.0362537773626766e-09  2.2945082737541225e-09  2.5573766220090819e-09  2.8192925446489046e-09  3.0741608965036667e-09  3.3156006530001938e-09  3.5372250558988581e-09  3.7329408270285008e-09  3.8972456040147490e-09  4.0255019774916471e-09  4.1141678794847134e-09  4.1609664749464157e-09  4.1649837679636623e-09  4.1266882687901506e-09  4.0478735747630656e-09  3.9315308762200921e-09  3.7816635682347456e-09  3.6030598533383836e-09  3.4010411949645815e-09  3.1812046883423302e-09  2.9491760236769771e-09  2.7103870539832399e-09  2.4698884720878056e-09  2.2322042037249418e-09  2.0012302625504138e-09  1.7801773396655894e-09  1.5715535640308447e-09  1.3771818089537886e-09  1.1982446673315417e-09  1.0353497220378061e-09  8.8860788368414888e-10  7.5771820634857935e-10  6.4205356158531740e-10  5.4074269867920480e-10  4.5274541248810375e-10  3.7691867596130347e-10  3.1207260043656126e-10  2.5701592072834419e-10  2.1059134696132199e-10  1.7170158411207113e-10  1.3932711025548592e-10  1.1253695085690702e-10  9.0493717977276176e-11  7.2454128734892173e-11  5.7766102841631403e-11  4.5863386162530011e-11  3.6258472384593971e-11  2.8534408661626771e-11  2.2335878343730172e-11  1.7359753582706528e-11  1.3345095800552284e-11  1.0062339689124412e-11  7.3011071774774578e-12  4.8557358029379990e-12  2.5071386472566706e-12  0.0000000000000000e+00  0.0000000000000000e+00  1.3536575070827187e-15  3.1400087730519523e-15  5.6646702169473100e-15  9.3748038653384443e-15  1.4933780355407293e-14  2.3329592554417210e-14  3.6032789622508014e-14  5.5225342594774479e-14  8.4130161840473493e-14  1.2748207965735945e-13  1.9219568284917015e-13  2.8830417899641759e-13  4.3026723827072318e-13  6.3877506654264563e-13  9.4321111108332801e-13  1.3849764648536606e-12  2.0219239548191577e-12  2.9341963950240305e-12  4.2318069153580651e-12  6.0643324490128404e-12  8.6331040802559326e-12  1