<?xml version="1.0"?>
<VTKFile type="UnstructuredGrid"  version="0.1"  >
<UnstructuredGrid>
<Piece  NumberOfPoints="10201" NumberOfCells="20000">
<Points>
<DataArray  type="Float64"  NumberOfComponents="3"  format="ascii">0 0 0  0.01 0 0  0.02 0 0  0.03 0 0  0.04 0 0  0.05 0 0  0.06 0 0  0.07000000000000001 0 0  0.08 0 0  0.09 0 0  0.1 0 0  0.11 0 0  0.12 0 0  0.13 0 0  0.14 0 0  0.15 0 0  0.16 0 0  0.17 0 0  0.18 0 0  0.19 0 0  0.2 0 0  0.21 0 0  0.22 0 0  0.23 0 0  0.24 0 0  0.25 0 0  0.26 0 0  0.27 0 0  0.28 0 0  0.29 0 0  0.3 0 0  0.31 0 0  0.32 0 0  0.33 0 0  0.34 0 0  0.35 0 0  0.36 0 0  0.37 0 0  0.38 0 0  0.39 0 0  0.4 0 0  0.41 0 0  0.42 0 0  0.43 0 0  0.44 0 0  0.45 0 0  0.46 0 0  0.47 0 0  0.48 0 0  0.49 0 0  0.5 0 0  0.51 0 0  0.52 0 0  0.53 0 0  0.54 0 0  0.55 0 0  0.5600000000000001 0 0  0.57 0 0  0.58 0 0  0.59 0 0  0.6 0 0  0.61 0 0  0.62 0 0  0.63 0 0  0.64 0 0  0.65 0 0  0.66 0 0  0.67 0 0  0.68 0 0  0.6899999999999999 0 0  0.7 0 0  0.71 0 0  0.72 0 0  0.73 0 0  0.74 0 0  0.75 0 0  0.76 0 0  0.77 0 0  0.78 0 0  0.79 0 0  0.8 0 0  0.8100000000000001 0 0  0.82 0 0  0.83 0 0  0.84 0 0  0.85 0 0  0.86 0 0  0.87 0 0  0.88 0 0  0.89 0 0  0.9 0 0  0.91 0 0  0.92 0 0  0.93 0 0  0.9399999999999999 0 0  0.95 0 0  0.96 0 0  0.97 0 0  0.98 0 0  0.99 0 0  1 0 0  0 0.01 0  0.01 0.01 0  0.02 0.01 0  0.03 0.01 0  0.04 0.01 0  0.05 0.01 0  0.06 0.01 0  0.07000000000000001 0.01 0  0.08 0.01 0  0.09 0.01 0  0.1 0.01 0  0.11 0.01 0  0.12 0.01 0  0.13 0.01 0  0.14 0.01 0  0.15 0.01 0  0.16 0.01 0  0.17 0.01 0  0.18 0.01 0  0.19 0.01 0  0.2 0.01 0  0.21 0.01 0  0.22 0.01 0  0.23 0.01 0  0.24 0.01 0  0.25 0.01 0  0.26 0.01 0  0.27 0.01 0  0.28 0.01 0  0.29 0.01 0  0.3 0.01 0  0.31 0.01 0  0.32 0.01 0  0.33 0.01 0  0.34 0.01 0  0.35 0.01 0  0.36 0.01 0  0.37 0.01 0  0.38 0.01 0  0.39 0.01 0  0.4 0.01 0  0.41 0.01 0  0.42 0.01 0  0.43 0.01 0  0.44 0.01 0  0.45 0.01 0  0.46 0.01 0  0.47 0.01 0  0.48 0.01 0  0.49 0.01 0  0.5 0.01 0  0.51 0.01 0  0.52 0.01 0  0.53 0.01 0  0.54 0.01 0  0.55 0.01 0  0.5600000000000001 0.01 0  0.57 0.01 0  0.58 0.01 0  0.59 0.01 0  0.6 0.01 0  0.61 0.01 0  0.62 0.01 0  0.63 0.01 0  0.64 0.01 0  0.65 0.01 0  0.66 0.01 0  0.67 0.01 0  0.68 0.01 0  0.6899999999999999 0.01 0  0.7 0.01 0  0.71 0.01 0  0.72 0.01 0  0.73 0.01 0  0.74 0.01 0  0.75 0.01 0  0.76 0.01 0  0.77 0.01 0  0.78 0.01 0  0.79 0.01 0  0.8 0.01 0  0.8100000000000001 0.01 0  0.82 0.01 0  0.83 0.01 0  0.84 0.01 0  0.85 0.01 0  0.86 0.01 0  0.87 0.01 0  0.88 0.01 0  0.89 0.01 0  0.9 0.01 0  0.91 0.01 0  0.92 0.01 0  0.93 0.01 0  0.9399999999999999 0.01 0  0.95 0.01 0  0.96 0.01 0  0.97 0.01 0  0.98 0.01 0  0.99 0.01 0  1 0.01 0  0 0.02 0  0.01 0.02 0  0.02 0.02 0  0.03 0.02 0  0.04 0.02 0  0.05 0.02 0  0.06 0.02 0  0.07000000000000001 0.02 0  0.08 0.02 0  0.09 0.02 0  0.1 0.02 0  0.11 0.02 0  0.12 0.02 0  0.13 0.02 0  0.14 0.02 0  0.15 0.02 0  0.16 0.02 0  0.17 0.02 0  0.18 0.02 0  0.19 0.02 0  0.2 0.02 0  0.21 0.02 0  0.22 0.02 0  0.23 0.02 0  0.24 0.02 0  0.25 0.02 0  0.26 0.02 0  0.27 0.02 0  0.28 0.02 0  0.29 0.02 0  0.3 0.02 0  0.31 0.02 0  0.32 0.02 0  0.33 0.02 0  0.34 0.02 0  0.35 0.02 0  0.36 0.02 0  0.37 0.02 0  0.38 0.02 0  0.39 0.02 0  0.4 0.02 0  0.41 0.02 0  0.42 0.02 0  0.43 0.02 0  0.44 0.02 0  0.45 0.02 0  0.46 0.02 0  0.47 0.02 0  0.48 0.02 0  0.49 0.02 0  0.5 0.02 0  0.51 0.02 0  0.52 0.02 0  0.53 0.02 0  0.54 0.02 0  0.55 0.02 0  0.5600000000000001 0.02 0  0.57 0.02 0  0.58 0.02 0  0.59 0.02 0  0.6 0.02 0  0.61 0.02 0  0.62 0.02 0  0.63 0.02 0  0.64 0.02 0  0.65 0.02 0  0.66 0.02 0  0.67 0.02 0  0.68 0.02 0  0.6899999999999999 0.02 0  0.7 0.02 0  0.71 0.02 0  0.72 0.02 0  0.73 0.02 0  0.74 0.02 0  0.75 0.02 0  0.76 0.02 0  0.77 0.02 0  0.78 0.02 0  0.79 0.02 0  0.8 0.02 0  0.8100000000000001 0.02 0  0.82 0.02 0  0.83 0.02 0  0.84 0.02 0  0.85 0.02 0  0.86 0.02 0  0.87 0.02 0  0.88 0.02 0  0.89 0.02 0  0.9 0.02 0  0.91 0.02 0  0.92 0.02 0  0.93 0.02 0  0.9399999999999999 0.02 0  0.95 0.02 0  0.96 0.02 0  0.97 0.02 0  0.98 0.02 0  0.99 0.02 0  1 0.02 0  0 0.03 0  0.01 0.03 0  0.02 0.03 0  0.03 0.03 0  0.04 0.03 0  0.05 0.03 0  0.06 0.03 0  0.07000000000000001 0.03 0  0.08 0.03 0  0.09 0.03 0  0.1 0.03 0  0.11 0.03 0  0.12 0.03 0  0.13 0.03 0  0.14 0.03 0  0.15 0.03 0  0.16 0.03 0  0.17 0.03 0  0.18 0.03 0  0.19 0.03 0  0.2 0.03 0  0.21 0.03 0  0.22 0.03 0  0.23 0.03 0  0.24 0.03 0  0.25 0.03 0  0.26 0.03 0  0.27 0.03 0  0.28 0.03 0  0.29 0.03 0  0.3 0.03 0  0.31 0.03 0  0.32 0.03 0  0.33 0.03 0  0.34 0.03 0  0.35 0.03 0  0.36 0.03 0  0.37 0.03 0  0.38 0.03 0  0.39 0.03 0  0.4 0.03 0  0.41 0.03 0  0.42 0.03 0  0.43 0.03 0  0.44 0.03 0  0.45 0.03 0  0.46 0.03 0  0.47 0.03 0  0.48 0.03 0  0.49 0.03 0  0.5 0.03 0  0.51 0.03 0  0.52 0.03 0  0.53 0.03 0  0.54 0.03 0  0.55 0.03 0  0.5600000000000001 0.03 0  0.57 0.03 0  0.58 0.03 0  0.59 0.03 0  0.6 0.03 0  0.61 0.03 0  0.62 0.03 0  0.63 0.03 0  0.64 0.03 0  0.65 0.03 0  0.66 0.03 0  0.67 0.03 0  0.68 0.03 0  0.6899999999999999 0.03 0  0.7 0.03 0  0.71 0.03 0  0.72 0.03 0  0.73 0.03 0  0.74 0.03 0  0.75 0.03 0  0.76 0.03 0  0.77 0.03 0  0.78 0.03 0  0.79 0.03 0  0.8 0.03 0  0.8100000000000001 0.03 0  0.82 0.03 0  0.83 0.03 0  0.84 0.03 0  0.85 0.03 0  0.86 0.03 0  0.87 0.03 0  0.88 0.03 0  0.89 0.03 0  0.9 0.03 0  0.91 0.03 0  0.92 0.03 0  0.93 0.03 0  0.9399999999999999 0.03 0  0.95 0.03 0  0.96 0.03 0  0.97 0.03 0  0.98 0.03 0  0.99 0.03 0  1 0.03 0  0 0.04 0  0.01 0.04 0  0.02 0.04 0  0.03 0.04 0  0.04 0.04 0  0.05 0.04 0  0.06 0.04 0  0.07000000000000001 0.04 0  0.08 0.04 0  0.09 0.04 0  0.1 0.04 0  0.11 0.04 0  0.12 0.04 0  0.13 0.04 0  0.14 0.04 0  0.15 0.04 0  0.16 0.04 0  0.17 0.04 0  0.18 0.04 0  0.19 0.04 0  0.2 0.04 0  0.21 0.04 0  0.22 0.04 0  0.23 0.04 0  0.24 0.04 0  0.25 0.04 0  0.26 0.04 0  0.27 0.04 0  0.28 0.04 0  0.29 0.04 0  0.3 0.04 0  0.31 0.04 0  0.32 0.04 0  0.33 0.04 0  0.34 0.04 0  0.35 0.04 0  0.36 0.04 0  0.37 0.04 0  0.38 0.04 0  0.39 0.04 0  0.4 0.04 0  0.41 0.04 0  0.42 0.04 0  0.43 0.04 0  0.44 0.04 0  0.45 0.04 0  0.46 0.04 0  0.47 0.04 0  0.48 0.04 0  0.49 0.04 0  0.5 0.04 0  0.51 0.04 0  0.52 0.04 0  0.53 0.04 0  0.54 0.04 0  0.55 0.04 0  0.5600000000000001 0.04 0  0.57 0.04 0  0.58 0.04 0  0.59 0.04 0  0.6 0.04 0  0.61 0.04 0  0.62 0.04 0  0.63 0.04 0  0.64 0.04 0  0.65 0.04 0  0.66 0.04 0  0.67 0.04 0  0.68 0.04 0  0.6899999999999999 0.04 0  0.7 0.04 0  0.71 0.04 0  0.72 0.04 0  0.73 0.04 0  0.74 0.04 0  0.75 0.04 0  0.76 0.04 0  0.77 0.04 0  0.78 0.04 0  0.79 0.04 0  0.8 0.04 0  0.8100000000000001 0.04 0  0.82 0.04 0  0.83 0.04 0  0.84 0.04 0  0.85 0.04 0  0.86 0.04 0  0.87 0.04 0  0.88 0.04 0  0.89 0.04 0  0.9 0.04 0  0.91 0.04 0  0.92 0.04 0  0.93 0.04 0  0.9399999999999999 0.04 0  0.95 0.04 0  0.96 0.04 0  0.97 0.04 0  0.98 0.04 0  0.99 0.04 0  1 0.04 0  0 0.05 0  0.01 0.05 0  0.02 0.05 0  0.03 0.05 0  0.04 0.05 0  0.05 0.05 0  0.06 0.05 0  0.07000000000000001 0.05 0  0.08 0.05 0  0.09 0.05 0  0.1 0.05 0  0.11 0.05 0  0.12 0.05 0  0.13 0.05 0  0.14 0.05 0  0.15 0.05 0  0.16 0.05 0  0.17 0.05 0  0.18 0.05 0  0.19 0.05 0  0.2 0.05 0  0.21 0.05 0  0.22 0.05 0  0.23 0.05 0  0.24 0.05 0  0.25 0.05 0  0.26 0.05 0  0.27 0.05 0  0.28 0.05 0  0.29 0.05 0  0.3 0.05 0  0.31 0.05 0  0.32 0.05 0  0.33 0.05 0  0.34 0.05 0  0.35 0.05 0  0.36 0.05 0  0.37 0.05 0  0.38 0.05 0  0.39 0.05 0  0.4 0.05 0  0.41 0.05 0  0.42 0.05 0  0.43 0.05 0  0.44 0.05 0  0.45 0.05 0  0.46 0.05 0  0.47 0.05 0  0.48 0.05 0  0.49 0.05 0  0.5 0.05 0  0.51 0.05 0  0.52 0.05 0  0.53 0.05 0  0.54 0.05 0  0.55 0.05 0  0.5600000000000001 0.05 0  0.57 0.05 0  0.58 0.05 0  0.59 0.05 0  0.6 0.05 0  0.61 0.05 0  0.62 0.05 0  0.63 0.05 0  0.64 0.05 0  0.65 0.05 0  0.66 0.05 0  0.67 0.05 0  0.68 0.05 0  0.6899999999999999 0.05 0  0.7 0.05 0  0.71 0.05 0  0.72 0.05 0  0.73 0.05 0  0.74 0.05 0  0.75 0.05 0  0.76 0.05 0  0.77 0.05 0  0.78 0.05 0  0.79 0.05 0  0.8 0.05 0  0.8100000000000001 0.05 0  0.82 0.05 0  0.83 0.05 0  0.84 0.05 0  0.85 0.05 0  0.86 0.05 0  0.87 0.05 0  0.88 0.05 0  0.89 0.05 0  0.9 0.05 0  0.91 0.05 0  0.92 0.05 0  0.93 0.05 0  0.9399999999999999 0.05 0  0.95 0.05 0  0.96 0.05 0  0.97 0.05 0  0.98 0.05 0  0.99 0.05 0  1 0.05 0  0 0.06 0  0.01 0.06 0  0.02 0.06 0  0.03 0.06 0  0.04 0.06 0  0.05 0.06 0  0.06 0.06 0  0.07000000000000001 0.06 0  0.08 0.06 0  0.09 0.06 0  0.1 0.06 0  0.11 0.06 0  0.12 0.06 0  0.13 0.06 0  0.14 0.06 0  0.15 0.06 0  0.16 0.06 0  0.17 0.06 0  0.18 0.06 0  0.19 0.06 0  0.2 0.06 0  0.21 0.06 0  0.22 0.06 0  0.23 0.06 0  0.24 0.06 0  0.25 0.06 0  0.26 0.06 0  0.27 0.06 0  0.28 0.06 0  0.29 0.06 0  0.3 0.06 0  0.31 0.06 0  0.32 0.06 0  0.33 0.06 0  0.34 0.06 0  0.35 0.06 0  0.36 0.06 0  0.37 0.06 0  0.38 0.06 0  0.39 0.06 0  0.4 0.06 0  0.41 0.06 0  0.42 0.06 0  0.43 0.06 0  0.44 0.06 0  0.45 0.06 0  0.46 0.06 0  0.47 0.06 0  0.48 0.06 0  0.49 0.06 0  0.5 0.06 0  0.51 0.06 0  0.52 0.06 0  0.53 0.06 0  0.54 0.06 0  0.55 0.06 0  0.5600000000000001 0.06 0  0.57 0.06 0  0.58 0.06 0  0.59 0.06 0  0.6 0.06 0  0.61 0.06 0  0.62 0.06 0  0.63 0.06 0  0.64 0.06 0  0.65 0.06 0  0.66 0.06 0  0.67 0.06 0  0.68 0.06 0  0.6899999999999999 0.06 0  0.7 0.06 0  0.71 0.06 0  0.72 0.06 0  0.73 0.06 0  0.74 0.06 0  0.75 0.06 0  0.76 0.06 0  0.77 0.06 0  0.78 0.06 0  0.79 0.06 0  0.8 0.06 0  0.8100000000000001 0.06 0  0.82 0.06 0  0.83 0.06 0  0.84 0.06 0  0.85 0.06 0  0.86 0.06 0  0.87 0.06 0  0.88 0.06 0  0.89 0.06 0  0.9 0.06 0  0.91 0.06 0  0.92 0.06 0  0.93 0.06 0  0.9399999999999999 0.06 0  0.95 0.06 0  0.96 0.06 0  0.97 0.06 0  0.98 0.06 0  0.99 0.06 0  1 0.06 0  0 0.07000000000000001 0  0.01 0.07000000000000001 0  0.02 0.07000000000000001 0  0.03 0.07000000000000001 0  0.04 0.07000000000000001 0  0.05 0.07000000000000001 0  0.06 0.07000000000000001 0  0.07000000000000001 0.07000000000000001 0  0.08 0.07000000000000001 0  0.09 0.07000000000000001 0  0.1 0.07000000000000001 0  0.11 0.07000000000000001 0  0.12 0.07000000000000001 0  0.13 0.07000000000000001 0  0.14 0.07000000000000001 0  0.15 0.07000000000000001 0  0.16 0.07000000000000001 0  0.17 0.0700
[...]
<PointData  Scalars="u"> 
<DataArray  type="Float64"  Name="u"  format="ascii">0.0000000000000000e+00  0.0000000000000000e+00  0.0000000000000000e+00  0.0000000000000000e+00  0.0000000000000000e+00  0.0000000000000000e+00  0.0000000000000000e+00  0.0000000000000000e+00  0.0000000000000000e+00  0.0000000000000000e+00  0.0000000000000000e+00  0.0000000000000000e+00  0.0000000000000000e+00  0.0000000000000000e+00  0.0000000000000000e+00  0.0000000000000000e+00  0.0000000000000000e+00  0.0000000000000000e+00  0.0000000000000000e+00  0.0000000000000000e+00  0.0000000000000000e+00  0.0000000000000000e+00  0.0000000000000000e+00  0.0000000000000000e+00  0.0000000000000000e+00  0.0000000000000000e+00  0.0000000000000000e+00  0.0000000000000000e+00  0.0000000000000000e+00  0.0000000000000000e+00  0.0000000000000000e+00  0.0000000000000000e+00  0.0000000000000000e+00  0.0000000000000000e+00  0.0000000000000000e+00  0.0000000000000000e+00  0.0000000000000000e+00  0.0000000000000000e+00  0.0000000000000000e+00  0.0000000000000000e+00  0.0000000000000000e+00  0.0000000000000000e+00  0.0000000000000000e+00  0.0000000000000000e+00  0.0000000000000000e+00  0.0000000000000000e+00  0.0000000000000000e+00  0.0000000000000000e+00  0.0000000000000000e+00  0.0000000000000000e+00  0.0000000000000000e+00  0.0000000000000000e+00  0.0000000000000000e+00  0.0000000000000000e+00  0.0000000000000000e+00  0.0000000000000000e+00  0.0000000000000000e+00  0.0000000000000000e+00  0.0000000000000000e+00  0.0000000000000000e+00  0.0000000000000000e+00  0.0000000000000000e+00  0.0000000000000000e+00  0.0000000000000000e+00  0.0000000000000000e+00  0.0000000000000000e+00  0.0000000000000000e+00  0.0000000000000000e+00  0.0000000000000000e+00  0.0000000000000000e+00  0.0000000000000000e+00  0.0000000000000000e+00  0.0000000000000000e+00  0.0000000000000000e+00  0.0000000000000000e+00  0.0000000000000000e+00  0.0000000000000000e+00  0.0000000000000000e+00  0.0000000000000000e+00  0.0000000000000000e+00  0.0000000000000000e+00  0.0000000000000000e+00  0.0000000000000000e+00  0.0000000000000000e+00  0.0000000000000000e+00  0.0000000000000000e+00  0.0000000000000000e+00  0.0000000000000000e+00  0.0000000000000000e+00  0.0000000000000000e+00  0.0000000000000000e+00  0.0000000000000000e+00  0.0000000000000000e+00  0.0000000000000000e+00  0.0000000000000000e+00  0.0000000000000000e+00  0.0000000000000000e+00  0.0000000000000000e+00  0.0000000000000000e+00  0.0000000000000000e+00  0.0000000000000000e+00  0.0000000000000000e+00  1.0425789563036350e-05  1.8974507616385762e-05  2.5981193048304068e-05  3.1718570664310129e-05  3.6409323016850962e-05  4.0235000868037023e-05  4.3343401795085066e-05  4.5854670683292200e-05  4.7866337227041382e-05  4.9457470615385357e-05  5.0692102235339045e-05  5.1622042462444959e-05  5.2289196688208947e-05  5.2727468084717808e-05  5.2964319749660685e-05  5.3022056398971371e-05  5.2918875323568589e-05  5.2669727593528673e-05  5.2287023212378826e-05  5.1781207868707345e-05  5.1161233907853624e-05  5.0434943988141485e-05  4.9609382454396737e-05  4.8691046638698910e-05  4.7686087985658280e-05  4.6600471014193836e-05  4.5440096600603051e-05  4.4210894840787432e-05  4.2918891774418976e-05  4.1570253489896083e-05  4.0171310541744255e-05  3.8728565172263176e-05  3.7248683511252033e-05  3.5738474709176850e-05  3.4204858820138045e-05  3.2654825173241175e-05  3.1095382937707992e-05  2.9533505582745137e-05  2.7976070943448132e-05  2.6429798615689771e-05  2.4901186404247948e-05  2.3396447529201344e-05  2.1921450247601527e-05  2.0481661464547824e-05  1.9082095786423912e-05  1.7727271308203908e-05  1.6421173228094420e-05  1.5167226150660745e-05  1.3968275680698970e-05  1.2826579633182327e-05  1.1743808899845746e-05  1.0721057731448312e-05  9.7588629277009703e-06  8.8572311849322768e-06  8.0156736442135386e-06  7.2332465174702749e-06  6.5085965513846119e-06  5.8400100214049586e-06  5.2254639310478446e-06  4.6626781224926279e-06  4.1491670785704092e-06  3.6822903071382129e-06  3.2593003386963420e-06  2.8773875283923565e-06  2.5337210255189609e-06  2.2254854488600318e-06  1.9499129771605150e-06  1.7043107241119190e-06  1.4860834114260734e-06  1.2927514781415694e-06  1.1219648670478673e-06  9.7151280915521807e-07  8.3932998480811918e-07  7.2349947663755518e-07  6.2225294711535969e-07  5.3396847455862890e-07  4.5716646885771224e-07  3.9050406487379541e-07  3.3276836019547711e-07  2.8286882737542075e-07  2.3982919121189453e-07  2.0277902107401529e-07  1.7094524830536080e-07  1.4364378062658983e-07  1.2027135010103415e-07  1.0029769922923729e-07  8.3258181437167123e-08  6.8746827739224468e-08  5.6409910640647108e-08  4.5940019215493615e-08  3.7070645487279292e-08  2.9571271424089734e-08  2.3242937684065871e-08  1.7914269348893093e-08  1.3437929910908669e-08  9.6874724067312858e-09  6.5545555294724274e-09  3.9464925752089604e-09  1.7841021611824857e-09  0.0000000000000000e+00  0.0000000000000000e+00  2.1275913093554311e-05  3.8723636618640442e-05  5.3025024780951117e-05  6.4736866846350138e-05  7.4313727124266456e-05  8.2126161916398711e-05  8.8475795373978508e-05  9.3607783244378047e-05  9.7721103864816292e-05  1.0097704465548406e-04  1.0350619256134203e-04  1.0541418628579432e-04  1.0678644536163039e-04  1.0769205498729152e-04  1.0818695515352445e-04  1.0831655705817492e-04  1.0811788842691455e-04  1.0762135149441219e-04  1.0685216251043059e-04  1.0583152925247476e-04  1.0457761275316085e-04  1.0310631094850033e-04  1.0143189493697832e-04  9.9567522767785092e-05  9.7525650947665588e-05  9.5318360000261763e-05  9.2957607288063219e-05  9.0455417796990554e-05  8.7824021588400858e-05  8.5075945059992362e-05  8.2224061955633309e-05  7.9281609164739609e-05  7.6262171702748681e-05  7.3179640819970152e-05  7.0048148905909092e-05  6.6881984702941581e-05  6.3695492282760474e-05  6.0502957239440990e-05  5.7318483584719288e-05  5.4155864866876973e-05  5.1028453049929183e-05  4.7949028663273325e-05  4.4929675646033272e-05  4.1981664151946943e-05  3.9115344341720801e-05  3.6340053867686971e-05  3.3664041353332388e-05  3.1094407696344889e-05  2.8637066491844112e-05  2.6296724300389485e-05  2.4076880894391395e-05  2.1979849029870014e-05  2.0006792731747214e-05  1.8157782572627562e-05  1.6431865987418452e-05  1.4827150315490580e-05  1.3340896009970881e-05  1.1969617306412234e-05  1.0709187601147218e-05  9.5549468483797972e-06  8.5018084349709449e-06  7.5443632194724799e-06  6.6769787109632796e-06  5.8938916957108975e-06  5.1892929772592326e-06  4.5574032605538132e-06  3.9925395671227278e-06  3.4891719024570780e-06  3.0419701977463424e-06  2.6458418082552942e-06  2.2959600651768444e-06  1.9877845449176218e-06  1.7170738401383785e-06  1.4798916932068258e-06  1.2726073893144526e-06  1.0918913087039336e-06  9.3470651117509995e-07  7.9829717737465196e-07  6.8017466624019585e-07  5.7810187183505562e-07  4.9007648052770046e-07  4.1431364516141181e-07  3.4922850987738410e-07  2.9341894018731182e-07  2.4564873961502275e-07  2.0483156797747936e-07  1.7001571784145067e-07  1.4036985511009555e-07  1.1516978694511234e-07  9.3786284931396491e-08  7.5673962974277017e-08  6.0361187200878400e-08  4.7440978375070941e-08  3.6562855274684207e-08  2.7425559386317697e-08  1.9770596460683441e-08  1.3376528323366727e-08  8.0539483482353241e-09  3.6410760340325976e-09  0.0000000000000000e+00  0.0000000000000000e+00  3.2693097806309106e-05  5.9505680355751236e-05  8.1485523559136756e-05  9.9488648502212129e-05  1.1421379637763009e-04  1.2623045791659528e-04  1.3600208309013905e-04  1.4390526808018947e-04  1.5024559455790152e-04  1.5527068881733720e-04  1.5918097645816064e-04  1.6213853027904069e-04  1.6427434298272399e-04  1.6569430053578701e-04  1.6648408509674072e-04  1.6671319703286434e-04  1.6643825256225551e-04  1.6570568600667523e-04  1.6455396268129715e-04  1.6301538935793822e-04  1.6111759340321918e-04  1.5888472858976340e-04  1.5633845476517594e-04  1.5349872966814246e-04  1.5038444389144152e-04  1.4701392404693449e-04  1.4340532436971114e-04  1.3957692312577778e-04  1.3554733710819140e-04  1.3133566509321409e-04  1.2696156927364055e-04  1.2244530229959066e-04  1.1780768655877951e-04  1.1307005164921058e-04  1.0825413557515493e-04  1.0338195497543131e-04  9.8475649618746838e-05  9.3557306424984588e-05  8.8648768347699303e-05  8.3771433538888838e-05  7.8946050273301824e-05  7.4192513101781411e-05  6.9529665602712816e-05  6.4975114885621883e-05  6.0545062657173670e-05  5.6254157181623579e-05  5.2115369858507758e-05  4.8139899412314240e-05  4.4337105862698184e-05  4.0714475547409709e-05  3.7277617537005997e-05  3.4030290847681318e-05  3.0974460964379764e-05  2.8110383367652063e-05  2.5436711047628978e-05  2.2950622414304415e-05  2.0647965594797297e-05  1.8523414856516702e-05  1.6570634812253456e-05  1.4782448142430513e-05  1.3151002796400616e-05  1.1667934987593408e-05  1.0324524750523536e-05  9.1118413524128877e-06  8.0208764188594059e-06  7.0426632130284931e-06  6.1683810752572712e-06  5.3894445625516786e-06  4.6975773076115168e-06  4.0848710321044210e-06  3.5438304912588452e-06  3.0674053934355262e-06  2.6490105302141221e-06  2.2825354740788930e-06  1.9623452589063772e-06  1.6832734617473550e-06  1.4406090623795668e-06  1.2300783795623654e-06  1.0478232793224508e-06  8.9037672969058369e-07  7.5463664582940089e-07  6.3783883599859531e-07  5.3752972760699481e-07  4.5153942778781350e-07  3.7795555744576888e-07  3.1509819348580698e-07  2.6149616199367818e-07  2.1586484583528476e-07  1.7708560325185682e-07  1.4418683891416840e-07  1.1632672463738602e-07  9.2777532448392397e-08  7.2911516752283183e-08  5.6188263760702404e-08  4.2143413954431806e-08  3.0378656061065331e-08  2.0552887830194957e-08  1.2374438842922203e-08  5.5942526186006961e-09  0.0000000000000000e+00  0.0000000000000000e+00  4.4823358105563968e-05  8.1587147652050976e-05  1.1172896255472154e-04  1.3642333546825861e-04  1.5662872359319940e-04  1.7312606322918543e-04  1.8655068252664816e-04  1.9741867519679394e-04  2.0614866583502209e-04  2.1307974933180033e-04  2.1848626014050142e-04  2.2258991945653126e-04  2.2556981716273896e-04  2.2757060843770369e-04  2.2870924017451665e-04  2.2908046802901029e-04  2.2876137944627948e-04  2.2781510004891363e-04  2.2629382914319339e-04  2.2424132381102359e-04  2.2169492925347927e-04  2.1868723501353586e-04  2.1524742182015900e-04  2.1140235154967502e-04  2.0717744276273163e-04  2.0259736608643588e-04  1.9768658707164334e-04  1.9246977881522796e-04  1.8697212238853294e-04  1.8121950978229438e-04  1.7523866151896022e-04  1.6905716917128884e-04  1.6270347165428663e-04  1.5620677323185500e-04  1.4959691061555751e-04  1.4290417625341346e-04  1.3615910483951419e-04  1.2939223015256455e-04  1.2263381948885650e-04  1.1591359313213861e-04  1.0926043644343523e-04  1.0270211220797190e-04  9.6264980801220851e-05  8.9973735498016143e-05  8.3851159824693730e-05  7.7917913233349937e-05  7.2192350561541157e-05  6.6690379745171167e-05  6.1425361104570659e-05  5.6408050262623646e-05  5.1646585426896887e-05  4.7146518428646189e-05  4.2910887616369044e-05  3.8940329505091205e-05  3.5233225034770264e-05  3.1785875433901587e-05  2.8592702048625672e-05  2.5646464101788702e-05  2.2938488195541088e-05  2.0458903457051646e-05  1.8196876529697810e-05  1.6140841101636082e-05  1.4278717302569822e-05  1.2598117045980962e-05  1.1086532204767414e-05  9.7315033411297342e-06  8.5207675283582625e-06  7.4423845700935021e-06  6.4848416156101882e-06  5.6371367689877981e-06  4.8888427842919645e-06  4.2301523235798607e-06  3.6519065311410320e-06  3.1456088522878188e-06  2.7034261083056706e-06  2.3181788434262368e-06  1.9833228987890184e-06  1.6929240565411687e-06  1.4416274482433512e-06  1.2246232482680331e-06  1.0376099860563256e-06  8.7675662036039621e-07  7.3866433153557090e-07  6.2032881036742396e-07  5.1910365797282175e-07  4.3266536367653346e-07  3.5898019786152545e-07  2.9627324502695953e-07  2.4299970827623168e-07  1.9781853922852195e-07  1.5956838553443225e-07  1.2724580017240979e-07  9.9985620788428687e-08  7.7043401784331740e-08  5.7779764987980086e-08  4.1646524988236790e-08  2.8174441164974420e-08  1.6962448813181633e-08  7.6682255247198347e-09  0.0000000000000000e+00  0.0000000000000000e+00  5.7819037168782107e-05  1.0524599846391413e-04  1.4413744476801676e-04  1.7600992918366114e-04  2.0210055113795641e-04  2.2341690123644424e-04  2.4077838111201692e-04  2.5485033598077504e-04  2.6617221101449761e-04  2.7518074882712323e-04  2.8222908012323855e-04  2.8760241922224327e-04  2.9153095743500375e-04  2.9420044713556127e-04  2.9576088517357870e-04  2.9633363366825564e-04  2.9601725716512641e-04  2.9489230585089853e-04  2.9302523348220149e-04  2.9047160458530049e-04  2.8727871721266732e-04  2.8348774415556271e-04  2.7913547621348294e-04  2.7425573524269810e-04  2.6888051168733561e-04  2.6304087067063669e-04  2.5676766210263696e-04  2.5009206332096863e-04  2.4304597725564270e-04  2.3566230477334511e-04  2.2797510652480764e-04  2.2001966713184405e-04  2.1183247277248605e-04  2.0345111203390502e-04  1.9491410919626154e-04  1.8626069878778794e-04  1.7753055021968282e-04  1.6876345148064657e-04  1.5999896116043548e-04  1.5127603839884800e-04  1.4263266064494474e-04  1.3410543929144643e-04  1.2572924326022123e-04  1.1753684040689358e-04  1.0955856614998675e-04  1.0182202799277113e-04  9.4351853591875898e-05  8.7169488751885743e-05  8.0293050223687105e-05  7.3737236506786068e-05  6.7513298066232343e-05  6.1629066546833191e-05  5.6089040779494471e-05  5.0894525704847090e-05  4.6043818860079095e-05  4.1532437847776808e-05  3.7353381277545980e-05  3.3497415071710802e-05  2.9953375765970544e-05  2.6708482506184708e-05  2.3748649817744295e-05  2.1058793863947484e-05  1.8623125763135848e-05  1.6425426542965566e-05  1.4449299413465075e-05  1.2678396179368889e-05  1.1096615732503047e-05  9.6882736203076886e-06  8.4382426399648774e-06  7.3320652324706951e-06  6.3560391311518997e-06  5.4972782480986638e-06  4.7437511617762790e-06  4.0842998086224669e-06  3.5086410948484932e-06  3.0073541494983148e-06  2.5718558554538601e-06  2.1943671412951527e-06  1.8678723127917794e-06  1.5860734658040548e-06  1.3433417678480709e-06  1.1346671364111190e-06  9.5560758861426131e-07  8.0223929684089900e-07  6.7110816401929911e-07  5.5918353387573123e-07  4.6381447746505149e-07  3.8268894805892400e-07  3.1379597138477341e-07  2.5539093584439456e-07  2.0596396576401086e-07  1.6421129769694337e-07  1.2900953294263466e-07  9.9392606388788224e-08  7.4531290251312823e-08  5.3715039167912930e-08  3.6335978489591742e-08  2.1874838839397541e-08  9.8886456879972317e-09  0.0000000000000000e+00  0.0000000000000000e+00  7.1839581734282654e-05  1.3077317561747433e-04  1.7911101873599781e-04  2.1873964085006989e-04  2.5119726132457021e-04  2.7773616166673268e-04  2.9937425705355106e-04  3.1693767392000649e-04  3.3109585430561041e-04  3.4239046312091280e-04  3.5125916635452285e-04  3.5805517170937407e-04  3.6306327394340448e-04  3.6651302146348643e-04  3.6858951509060076e-04  3.6944226140190592e-04  3.6919242906857300e-04  3.6793879490382782e-04  3.6576261498480738e-04  3.6273161356513005e-04  3.5890324714928627e-04  3.5432737186694141e-04  3.4904841816370871e-04  3.4310715697457455e-04  3.3654212526473668e-04  3.2939076552544473e-04  3.2169032301417543e-04  3.1347853582713598e-04  3.0479414595491877e-04  2.9567725402308126e-04  2.8616953622836929e-04  2.7631433885430637e-04  2.6615666352106495e-04  2.5574305484879782e-04  2.4512140136071956e-04  2.3434066010196016e-04  2.2345051548876833e-04  2.1250098322007568e-04  2.0154197057266967e-04  1.9062280495786777e-04  1.7979174314136656e-04  1.6909547392477295e-04  1.5857862727263676e-04  1.4828330277095021e-04  1.3824862986744216e-04  1.2851037153628544e-04  1.1910058181915389e-04  1.1004732613494515e-04  1.0137447136120496e-04  9.3101550534186884e-05  8.5243704674702498e-05  7.7811701821761342e-05  7.0812030952537624e-05  6.4247066193961103e-05  5.8115294690633476e-05  5.2411599774996565e-05  4.7127589758585797e-05  4.2251961773894994e-05  3.7770889664710519e-05  3.3668424942104789e-05  2.9926900262232547e-05  2.6527325688190415e-05  2.3449769102940865e-05  2.0673713464868911e-05  1.8178385058970001e-05  1.5943048413574178e-05  1.3947265050081162e-05  1.2171114647052135e-05  1.0595378478869955e-05  9.2016860960777617e-06  7.9726271268930836e-06  6.8918307881985260e-06  5.9440162022167569e-06  5.1150169343143110e-06  4.3917833172812594e-06  3.7623661319995339e-06  3.2158851000528364e-06  2.7424854374218279e-06  2.3332854457357936e-06  1.9803178021577251e-06  1.6764668714094462e-06  1.4154040208394260e-06  1.1915225854348617e-06  9.9987381453071361e-07  8.3610484282144738e-07  6.9639946957448601e-07  5.7742230384620231e-07  4.7626664036196460e-07  3.9040626950659376e-07  3.1765129355301756e-07  2.5610791715549391e-07  2.0414210020112151e-07  1.6034690215791581e-07  1.2351330591671011e-07  9.2604282787503251e-08  6.6731846004633061e-08  4.5136835332309626e-08  2.7171177968521304e-08  1.2282379074419913e-08  0.0000000000000000e+00  0.0000000000000000e+00  8.7052256742229967e-05  1.5847393714732796e-04  2.1706953820598541e-04  2.6512821340479286e-04  3.0451551856153306e-04  3.3674943598440061e-04  3.6306319230734068e-04  3.8445708819755944e-04  4.0174120483552056e-04  4.1557055073198571e-04  4.2647395628783301e-04  4.3487780651478184e-04  4.4112551913336889e-04  4.4549352105918038e-04  4.4820434685426624e-04  4.4943737435905034e-04  4.4933762221579995e-04  4.4802295857120669e-04  4.4559000751883603e-04  4.4211898777630668e-04  4.3767767495735886e-04  4.3232464313284867e-04  4.2611191194609613e-04  4.1908710132549537e-04  4.1129517596014787e-04  4.0277984545749760e-04  3.9358467289343638e-04  3.8375393380637345e-04  3.7333325917430837e-04  3.6237008921567000e-04  3.5091395969491068e-04  3.3901663856212937e-04  3.2673212801626690e-04  3.1411654528311719e-04  3.0122789438957027e-04  2.8812574085253104e-04  2.7487080134933273e-04  2.6152446096361901e-04  2.4814823137468174e-04  2.3480316424792232e-04  2.2154923495999770e-04  2.0844471252982045e-04  1.9554553211021419e-04  1.8290468652321264e-04  1.7057165301295239e-04  1.5859187058732277e-04  1.4700628199649105e-04  1.3585095255994493e-04  1.2515677574526088e-04  1.1494927269652703e-04  1.0524848991312693e-04  9.6068996118988214e-05  8.7419976182069841e-05  7.9305416892681157e-05  7.1724376630555038e-05  6.4671328572039170e-05  5.8136565213060925e-05  5.2106650681694552e-05  4.6564906621367949e-05  4.1491917340260841e-05  3.6866040407617406e-05  3.2663909866701508e-05  2.8860920636734461e-05  2.5431684386855118e-05  2.2350449071635239e-05  1.9591476309093102e-05  1.7129372756087581e-05  1.4939373504136352e-05  1.2997577210576737e-05  1.1281134144750061e-05  9.7683895355274730e-06  8.4389855424997836e-06  7.2739258421245878e-06  6.2556072386693569e-06  5.3678229041379797e-06  4.5957418539798545e-06  3.9258691118436264e-06  3.3459907430158635e-06  2.8451075769049675e-06  2.4133610252531434e-06  2.0419539617903638e-06  1.7230691832392224e-06  1.4497875386413502e-06  1.2160074070629453e-06  1.0163668318815133e-06  8.4616928851629816e-07  7.0131377413357715e-07  5.7822966268010483e-07  4.7381656495181830e-07  3.8538926842519458e-07  3.1062770160390373e-07  2.4753176857416409e-07  1.9438082709062017e-07  1.4969753368177867e-07  1.1221574805416678e-07  8.0852172904801418e-08  5.4681400930260128e-08  3.2914045568948203e-08  1.4877643463092126e-08  0.0000000000000000e+00  0.0000000000000000e+00  1.0363275274386885e-04  1.8866897900180233e-04  2.5845423226315140e-04  3.1571789134707051e-04  3.6268300842127267e-04  4.0115740852436730e-04  4.3260890865367782e-04  4.5822733532265025e-04  4.7897559048565416e-04  4.9563165030044778e-04  5.0882307096005569e-04  5.1905531336487879e-04  5.2673497708172125e-04  5.3218884795694431e-04  5.3567950773160953e-04  5.3741812351974371e-04  5.3757492612952851e-04  5.3628779554607832e-04  5.3366929655179187e-04  5.2981244496191730e-04  5.2479543319999811e-04  5