<?xml version="1.0"?>
<VTKFile type="UnstructuredGrid"  version="0.1"  >
<UnstructuredGrid>
<Piece  NumberOfPoints="10201" NumberOfCells="20000">
<Points>
<DataArray  type="Float64"  NumberOfComponents="3"  format="ascii">0 0 0  0.01 0 0  0.02 0 0  0.03 0 0  0.04 0 0  0.05 0 0  0.06 0 0  0.07000000000000001 0 0  0.08 0 0  0.09 0 0  0.1 0 0  0.11 0 0  0.12 0 0  0.13 0 0  0.14 0 0  0.15 0 0  0.16 0 0  0.17 0 0  0.18 0 0  0.19 0 0  0.2 0 0  0.21 0 0  0.22 0 0  0.23 0 0  0.24 0 0  0.25 0 0  0.26 0 0  0.27 0 0  0.28 0 0  0.29 0 0  0.3 0 0  0.31 0 0  0.32 0 0  0.33 0 0  0.34 0 0  0.35 0 0  0.36 0 0  0.37 0 0  0.38 0 0  0.39 0 0  0.4 0 0  0.41 0 0  0.42 0 0  0.43 0 0  0.44 0 0  0.45 0 0  0.46 0 0  0.47 0 0  0.48 0 0  0.49 0 0  0.5 0 0  0.51 0 0  0.52 0 0  0.53 0 0  0.54 0 0  0.55 0 0  0.5600000000000001 0 0  0.57 0 0  0.58 0 0  0.59 0 0  0.6 0 0  0.61 0 0  0.62 0 0  0.63 0 0  0.64 0 0  0.65 0 0  0.66 0 0  0.67 0 0  0.68 0 0  0.6899999999999999 0 0  0.7 0 0  0.71 0 0  0.72 0 0  0.73 0 0  0.74 0 0  0.75 0 0  0.76 0 0  0.77 0 0  0.78 0 0  0.79 0 0  0.8 0 0  0.8100000000000001 0 0  0.82 0 0  0.83 0 0  0.84 0 0  0.85 0 0  0.86 0 0  0.87 0 0  0.88 0 0  0.89 0 0  0.9 0 0  0.91 0 0  0.92 0 0  0.93 0 0  0.9399999999999999 0 0  0.95 0 0  0.96 0 0  0.97 0 0  0.98 0 0  0.99 0 0  1 0 0  0 0.01 0  0.01 0.01 0  0.02 0.01 0  0.03 0.01 0  0.04 0.01 0  0.05 0.01 0  0.06 0.01 0  0.07000000000000001 0.01 0  0.08 0.01 0  0.09 0.01 0  0.1 0.01 0  0.11 0.01 0  0.12 0.01 0  0.13 0.01 0  0.14 0.01 0  0.15 0.01 0  0.16 0.01 0  0.17 0.01 0  0.18 0.01 0  0.19 0.01 0  0.2 0.01 0  0.21 0.01 0  0.22 0.01 0  0.23 0.01 0  0.24 0.01 0  0.25 0.01 0  0.26 0.01 0  0.27 0.01 0  0.28 0.01 0  0.29 0.01 0  0.3 0.01 0  0.31 0.01 0  0.32 0.01 0  0.33 0.01 0  0.34 0.01 0  0.35 0.01 0  0.36 0.01 0  0.37 0.01 0  0.38 0.01 0  0.39 0.01 0  0.4 0.01 0  0.41 0.01 0  0.42 0.01 0  0.43 0.01 0  0.44 0.01 0  0.45 0.01 0  0.46 0.01 0  0.47 0.01 0  0.48 0.01 0  0.49 0.01 0  0.5 0.01 0  0.51 0.01 0  0.52 0.01 0  0.53 0.01 0  0.54 0.01 0  0.55 0.01 0  0.5600000000000001 0.01 0  0.57 0.01 0  0.58 0.01 0  0.59 0.01 0  0.6 0.01 0  0.61 0.01 0  0.62 0.01 0  0.63 0.01 0  0.64 0.01 0  0.65 0.01 0  0.66 0.01 0  0.67 0.01 0  0.68 0.01 0  0.6899999999999999 0.01 0  0.7 0.01 0  0.71 0.01 0  0.72 0.01 0  0.73 0.01 0  0.74 0.01 0  0.75 0.01 0  0.76 0.01 0  0.77 0.01 0  0.78 0.01 0  0.79 0.01 0  0.8 0.01 0  0.8100000000000001 0.01 0  0.82 0.01 0  0.83 0.01 0  0.84 0.01 0  0.85 0.01 0  0.86 0.01 0  0.87 0.01 0  0.88 0.01 0  0.89 0.01 0  0.9 0.01 0  0.91 0.01 0  0.92 0.01 0  0.93 0.01 0  0.9399999999999999 0.01 0  0.95 0.01 0  0.96 0.01 0  0.97 0.01 0  0.98 0.01 0  0.99 0.01 0  1 0.01 0  0 0.02 0  0.01 0.02 0  0.02 0.02 0  0.03 0.02 0  0.04 0.02 0  0.05 0.02 0  0.06 0.02 0  0.07000000000000001 0.02 0  0.08 0.02 0  0.09 0.02 0  0.1 0.02 0  0.11 0.02 0  0.12 0.02 0  0.13 0.02 0  0.14 0.02 0  0.15 0.02 0  0.16 0.02 0  0.17 0.02 0  0.18 0.02 0  0.19 0.02 0  0.2 0.02 0  0.21 0.02 0  0.22 0.02 0  0.23 0.02 0  0.24 0.02 0  0.25 0.02 0  0.26 0.02 0  0.27 0.02 0  0.28 0.02 0  0.29 0.02 0  0.3 0.02 0  0.31 0.02 0  0.32 0.02 0  0.33 0.02 0  0.34 0.02 0  0.35 0.02 0  0.36 0.02 0  0.37 0.02 0  0.38 0.02 0  0.39 0.02 0  0.4 0.02 0  0.41 0.02 0  0.42 0.02 0  0.43 0.02 0  0.44 0.02 0  0.45 0.02 0  0.46 0.02 0  0.47 0.02 0  0.48 0.02 0  0.49 0.02 0  0.5 0.02 0  0.51 0.02 0  0.52 0.02 0  0.53 0.02 0  0.54 0.02 0  0.55 0.02 0  0.5600000000000001 0.02 0  0.57 0.02 0  0.58 0.02 0  0.59 0.02 0  0.6 0.02 0  0.61 0.02 0  0.62 0.02 0  0.63 0.02 0  0.64 0.02 0  0.65 0.02 0  0.66 0.02 0  0.67 0.02 0  0.68 0.02 0  0.6899999999999999 0.02 0  0.7 0.02 0  0.71 0.02 0  0.72 0.02 0  0.73 0.02 0  0.74 0.02 0  0.75 0.02 0  0.76 0.02 0  0.77 0.02 0  0.78 0.02 0  0.79 0.02 0  0.8 0.02 0  0.8100000000000001 0.02 0  0.82 0.02 0  0.83 0.02 0  0.84 0.02 0  0.85 0.02 0  0.86 0.02 0  0.87 0.02 0  0.88 0.02 0  0.89 0.02 0  0.9 0.02 0  0.91 0.02 0  0.92 0.02 0  0.93 0.02 0  0.9399999999999999 0.02 0  0.95 0.02 0  0.96 0.02 0  0.97 0.02 0  0.98 0.02 0  0.99 0.02 0  1 0.02 0  0 0.03 0  0.01 0.03 0  0.02 0.03 0  0.03 0.03 0  0.04 0.03 0  0.05 0.03 0  0.06 0.03 0  0.07000000000000001 0.03 0  0.08 0.03 0  0.09 0.03 0  0.1 0.03 0  0.11 0.03 0  0.12 0.03 0  0.13 0.03 0  0.14 0.03 0  0.15 0.03 0  0.16 0.03 0  0.17 0.03 0  0.18 0.03 0  0.19 0.03 0  0.2 0.03 0  0.21 0.03 0  0.22 0.03 0  0.23 0.03 0  0.24 0.03 0  0.25 0.03 0  0.26 0.03 0  0.27 0.03 0  0.28 0.03 0  0.29 0.03 0  0.3 0.03 0  0.31 0.03 0  0.32 0.03 0  0.33 0.03 0  0.34 0.03 0  0.35 0.03 0  0.36 0.03 0  0.37 0.03 0  0.38 0.03 0  0.39 0.03 0  0.4 0.03 0  0.41 0.03 0  0.42 0.03 0  0.43 0.03 0  0.44 0.03 0  0.45 0.03 0  0.46 0.03 0  0.47 0.03 0  0.48 0.03 0  0.49 0.03 0  0.5 0.03 0  0.51 0.03 0  0.52 0.03 0  0.53 0.03 0  0.54 0.03 0  0.55 0.03 0  0.5600000000000001 0.03 0  0.57 0.03 0  0.58 0.03 0  0.59 0.03 0  0.6 0.03 0  0.61 0.03 0  0.62 0.03 0  0.63 0.03 0  0.64 0.03 0  0.65 0.03 0  0.66 0.03 0  0.67 0.03 0  0.68 0.03 0  0.6899999999999999 0.03 0  0.7 0.03 0  0.71 0.03 0  0.72 0.03 0  0.73 0.03 0  0.74 0.03 0  0.75 0.03 0  0.76 0.03 0  0.77 0.03 0  0.78 0.03 0  0.79 0.03 0  0.8 0.03 0  0.8100000000000001 0.03 0  0.82 0.03 0  0.83 0.03 0  0.84 0.03 0  0.85 0.03 0  0.86 0.03 0  0.87 0.03 0  0.88 0.03 0  0.89 0.03 0  0.9 0.03 0  0.91 0.03 0  0.92 0.03 0  0.93 0.03 0  0.9399999999999999 0.03 0  0.95 0.03 0  0.96 0.03 0  0.97 0.03 0  0.98 0.03 0  0.99 0.03 0  1 0.03 0  0 0.04 0  0.01 0.04 0  0.02 0.04 0  0.03 0.04 0  0.04 0.04 0  0.05 0.04 0  0.06 0.04 0  0.07000000000000001 0.04 0  0.08 0.04 0  0.09 0.04 0  0.1 0.04 0  0.11 0.04 0  0.12 0.04 0  0.13 0.04 0  0.14 0.04 0  0.15 0.04 0  0.16 0.04 0  0.17 0.04 0  0.18 0.04 0  0.19 0.04 0  0.2 0.04 0  0.21 0.04 0  0.22 0.04 0  0.23 0.04 0  0.24 0.04 0  0.25 0.04 0  0.26 0.04 0  0.27 0.04 0  0.28 0.04 0  0.29 0.04 0  0.3 0.04 0  0.31 0.04 0  0.32 0.04 0  0.33 0.04 0  0.34 0.04 0  0.35 0.04 0  0.36 0.04 0  0.37 0.04 0  0.38 0.04 0  0.39 0.04 0  0.4 0.04 0  0.41 0.04 0  0.42 0.04 0  0.43 0.04 0  0.44 0.04 0  0.45 0.04 0  0.46 0.04 0  0.47 0.04 0  0.48 0.04 0  0.49 0.04 0  0.5 0.04 0  0.51 0.04 0  0.52 0.04 0  0.53 0.04 0  0.54 0.04 0  0.55 0.04 0  0.5600000000000001 0.04 0  0.57 0.04 0  0.58 0.04 0  0.59 0.04 0  0.6 0.04 0  0.61 0.04 0  0.62 0.04 0  0.63 0.04 0  0.64 0.04 0  0.65 0.04 0  0.66 0.04 0  0.67 0.04 0  0.68 0.04 0  0.6899999999999999 0.04 0  0.7 0.04 0  0.71 0.04 0  0.72 0.04 0  0.73 0.04 0  0.74 0.04 0  0.75 0.04 0  0.76 0.04 0  0.77 0.04 0  0.78 0.04 0  0.79 0.04 0  0.8 0.04 0  0.8100000000000001 0.04 0  0.82 0.04 0  0.83 0.04 0  0.84 0.04 0  0.85 0.04 0  0.86 0.04 0  0.87 0.04 0  0.88 0.04 0  0.89 0.04 0  0.9 0.04 0  0.91 0.04 0  0.92 0.04 0  0.93 0.04 0  0.9399999999999999 0.04 0  0.95 0.04 0  0.96 0.04 0  0.97 0.04 0  0.98 0.04 0  0.99 0.04 0  1 0.04 0  0 0.05 0  0.01 0.05 0  0.02 0.05 0  0.03 0.05 0  0.04 0.05 0  0.05 0.05 0  0.06 0.05 0  0.07000000000000001 0.05 0  0.08 0.05 0  0.09 0.05 0  0.1 0.05 0  0.11 0.05 0  0.12 0.05 0  0.13 0.05 0  0.14 0.05 0  0.15 0.05 0  0.16 0.05 0  0.17 0.05 0  0.18 0.05 0  0.19 0.05 0  0.2 0.05 0  0.21 0.05 0  0.22 0.05 0  0.23 0.05 0  0.24 0.05 0  0.25 0.05 0  0.26 0.05 0  0.27 0.05 0  0.28 0.05 0  0.29 0.05 0  0.3 0.05 0  0.31 0.05 0  0.32 0.05 0  0.33 0.05 0  0.34 0.05 0  0.35 0.05 0  0.36 0.05 0  0.37 0.05 0  0.38 0.05 0  0.39 0.05 0  0.4 0.05 0  0.41 0.05 0  0.42 0.05 0  0.43 0.05 0  0.44 0.05 0  0.45 0.05 0  0.46 0.05 0  0.47 0.05 0  0.48 0.05 0  0.49 0.05 0  0.5 0.05 0  0.51 0.05 0  0.52 0.05 0  0.53 0.05 0  0.54 0.05 0  0.55 0.05 0  0.5600000000000001 0.05 0  0.57 0.05 0  0.58 0.05 0  0.59 0.05 0  0.6 0.05 0  0.61 0.05 0  0.62 0.05 0  0.63 0.05 0  0.64 0.05 0  0.65 0.05 0  0.66 0.05 0  0.67 0.05 0  0.68 0.05 0  0.6899999999999999 0.05 0  0.7 0.05 0  0.71 0.05 0  0.72 0.05 0  0.73 0.05 0  0.74 0.05 0  0.75 0.05 0  0.76 0.05 0  0.77 0.05 0  0.78 0.05 0  0.79 0.05 0  0.8 0.05 0  0.8100000000000001 0.05 0  0.82 0.05 0  0.83 0.05 0  0.84 0.05 0  0.85 0.05 0  0.86 0.05 0  0.87 0.05 0  0.88 0.05 0  0.89 0.05 0  0.9 0.05 0  0.91 0.05 0  0.92 0.05 0  0.93 0.05 0  0.9399999999999999 0.05 0  0.95 0.05 0  0.96 0.05 0  0.97 0.05 0  0.98 0.05 0  0.99 0.05 0  1 0.05 0  0 0.06 0  0.01 0.06 0  0.02 0.06 0  0.03 0.06 0  0.04 0.06 0  0.05 0.06 0  0.06 0.06 0  0.07000000000000001 0.06 0  0.08 0.06 0  0.09 0.06 0  0.1 0.06 0  0.11 0.06 0  0.12 0.06 0  0.13 0.06 0  0.14 0.06 0  0.15 0.06 0  0.16 0.06 0  0.17 0.06 0  0.18 0.06 0  0.19 0.06 0  0.2 0.06 0  0.21 0.06 0  0.22 0.06 0  0.23 0.06 0  0.24 0.06 0  0.25 0.06 0  0.26 0.06 0  0.27 0.06 0  0.28 0.06 0  0.29 0.06 0  0.3 0.06 0  0.31 0.06 0  0.32 0.06 0  0.33 0.06 0  0.34 0.06 0  0.35 0.06 0  0.36 0.06 0  0.37 0.06 0  0.38 0.06 0  0.39 0.06 0  0.4 0.06 0  0.41 0.06 0  0.42 0.06 0  0.43 0.06 0  0.44 0.06 0  0.45 0.06 0  0.46 0.06 0  0.47 0.06 0  0.48 0.06 0  0.49 0.06 0  0.5 0.06 0  0.51 0.06 0  0.52 0.06 0  0.53 0.06 0  0.54 0.06 0  0.55 0.06 0  0.5600000000000001 0.06 0  0.57 0.06 0  0.58 0.06 0  0.59 0.06 0  0.6 0.06 0  0.61 0.06 0  0.62 0.06 0  0.63 0.06 0  0.64 0.06 0  0.65 0.06 0  0.66 0.06 0  0.67 0.06 0  0.68 0.06 0  0.6899999999999999 0.06 0  0.7 0.06 0  0.71 0.06 0  0.72 0.06 0  0.73 0.06 0  0.74 0.06 0  0.75 0.06 0  0.76 0.06 0  0.77 0.06 0  0.78 0.06 0  0.79 0.06 0  0.8 0.06 0  0.8100000000000001 0.06 0  0.82 0.06 0  0.83 0.06 0  0.84 0.06 0  0.85 0.06 0  0.86 0.06 0  0.87 0.06 0  0.88 0.06 0  0.89 0.06 0  0.9 0.06 0  0.91 0.06 0  0.92 0.06 0  0.93 0.06 0  0.9399999999999999 0.06 0  0.95 0.06 0  0.96 0.06 0  0.97 0.06 0  0.98 0.06 0  0.99 0.06 0  1 0.06 0  0 0.07000000000000001 0  0.01 0.07000000000000001 0  0.02 0.07000000000000001 0  0.03 0.07000000000000001 0  0.04 0.07000000000000001 0  0.05 0.07000000000000001 0  0.06 0.07000000000000001 0  0.07000000000000001 0.07000000000000001 0  0.08 0.07000000000000001 0  0.09 0.07000000000000001 0  0.1 0.07000000000000001 0  0.11 0.07000000000000001 0  0.12 0.07000000000000001 0  0.13 0.07000000000000001 0  0.14 0.07000000000000001 0  0.15 0.07000000000000001 0  0.16 0.07000000000000001 0  0.17 0.0700
[...]
<PointData  Scalars="u"> 
<DataArray  type="Float64"  Name="u"  format="ascii">0.0000000000000000e+00  0.0000000000000000e+00  0.0000000000000000e+00  0.0000000000000000e+00  0.0000000000000000e+00  0.0000000000000000e+00  0.0000000000000000e+00  0.0000000000000000e+00  0.0000000000000000e+00  0.0000000000000000e+00  0.0000000000000000e+00  0.0000000000000000e+00  0.0000000000000000e+00  0.0000000000000000e+00  0.0000000000000000e+00  0.0000000000000000e+00  0.0000000000000000e+00  0.0000000000000000e+00  0.0000000000000000e+00  0.0000000000000000e+00  0.0000000000000000e+00  0.0000000000000000e+00  0.0000000000000000e+00  0.0000000000000000e+00  0.0000000000000000e+00  0.0000000000000000e+00  0.0000000000000000e+00  0.0000000000000000e+00  0.0000000000000000e+00  0.0000000000000000e+00  0.0000000000000000e+00  0.0000000000000000e+00  0.0000000000000000e+00  0.0000000000000000e+00  0.0000000000000000e+00  0.0000000000000000e+00  0.0000000000000000e+00  0.0000000000000000e+00  0.0000000000000000e+00  0.0000000000000000e+00  0.0000000000000000e+00  0.0000000000000000e+00  0.0000000000000000e+00  0.0000000000000000e+00  0.0000000000000000e+00  0.0000000000000000e+00  0.0000000000000000e+00  0.0000000000000000e+00  0.0000000000000000e+00  0.0000000000000000e+00  0.0000000000000000e+00  0.0000000000000000e+00  0.0000000000000000e+00  0.0000000000000000e+00  0.0000000000000000e+00  0.0000000000000000e+00  0.0000000000000000e+00  0.0000000000000000e+00  0.0000000000000000e+00  0.0000000000000000e+00  0.0000000000000000e+00  0.0000000000000000e+00  0.0000000000000000e+00  0.0000000000000000e+00  0.0000000000000000e+00  0.0000000000000000e+00  0.0000000000000000e+00  0.0000000000000000e+00  0.0000000000000000e+00  0.0000000000000000e+00  0.0000000000000000e+00  0.0000000000000000e+00  0.0000000000000000e+00  0.0000000000000000e+00  0.0000000000000000e+00  0.0000000000000000e+00  0.0000000000000000e+00  0.0000000000000000e+00  0.0000000000000000e+00  0.0000000000000000e+00  0.0000000000000000e+00  0.0000000000000000e+00  0.0000000000000000e+00  0.0000000000000000e+00  0.0000000000000000e+00  0.0000000000000000e+00  0.0000000000000000e+00  0.0000000000000000e+00  0.0000000000000000e+00  0.0000000000000000e+00  0.0000000000000000e+00  0.0000000000000000e+00  0.0000000000000000e+00  0.0000000000000000e+00  0.0000000000000000e+00  0.0000000000000000e+00  0.0000000000000000e+00  0.0000000000000000e+00  0.0000000000000000e+00  0.0000000000000000e+00  0.0000000000000000e+00  0.0000000000000000e+00  1.0985706042832370e-09  2.2901430492153256e-09  3.5934418870128038e-09  5.0286786499702877e-09  6.6181742020533288e-09  8.3865702726150241e-09  1.0361053064168704e-08  1.2571582537764464e-08  1.5051123805358807e-08  1.7835876938747903e-08  2.0965500843591340e-08  2.4483326031705707e-08  2.8436550238107182e-08  3.2876409904604219e-08  3.7858319617135453e-08  4.3441970671635555e-08  4.9691379091696680e-08  5.6674872676686405e-08  6.4465006074592908e-08  7.3138392509680604e-08  8.2775440716462547e-08  9.3459985907373407e-08  1.0527880430138646e-07  1.1832100193123332e-07  1.3267727018701415e-07  1.4843900289039392e-07  1.6569727265434887e-07  1.8454166787207555e-07  2.0505899586802120e-07  2.2733186247058685e-07  2.5143714342575533e-07  2.7744436851618727e-07  3.0541404479008235e-07  3.3539595070639909e-07  3.6742743800154872e-07  4.0153178238690260e-07  4.3771662749561769e-07  4.7597256851800754e-07  5.1627192243075113e-07  5.5856773041928351e-07  6.0279303486730214e-07  6.4886046808403923e-07  6.9666218280432265e-07  7.4607014558701083e-07  7.9693680382671224e-07  8.4909612556135253e-07  9.0236499907417141e-07  9.5654496698907987e-07  1.0114242577134662e-06  1.0667800662613798e-06  1.1223810272221587e-06  1.1779898153795631e-06  1.2333658045823353e-06  1.2882677131372609e-06  1.3424561643150398e-06  1.3956960934564374e-06  1.4477589384322884e-06  1.4984245575176161e-06  1.5474828276662076e-06  1.5947348862350953e-06  1.6399939898998313e-06  1.6830859753195558e-06  1.7238493165921185e-06  1.7621347842836387e-06  1.7978047195055057e-06  1.8307319439193190e-06  1.8607983325478629e-06  1.8878930808225271e-06  1.9119107004546091e-06  1.9327487806021367e-06  1.9503055515953419e-06  1.9644772884041776e-06  1.9751555903276643e-06  1.9822245723154144e-06  1.9855580021532698e-06  1.9850164167023592e-06  1.9804442496993037e-06  1.9716670035051348e-06  1.9584884978035048e-06  1.9406882297373840e-06  1.9180188824488828e-06  1.8902040225316073e-06  1.8569360315712887e-06  1.8178743227629262e-06  1.7726439005471712e-06  1.7208343292728329e-06  1.6619991860033588e-06  1.5956560826479509e-06  1.5212873534812260e-06  1.4383415156447990e-06  1.3462356221744229e-06  1.2443586391726642e-06  1.1320759905468261e-06  1.0087354246318283e-06  8.7367436577929950e-07  7.2622891711417792e-07  5.6574466424394196e-07  3.9158932280160022e-07  2.0316681439258203e-07  0.0000000000000000e+00  0.0000000000000000e+00  2.4137653884064622e-09  5.0323587781280875e-09  7.8965652786630845e-09  1.1050902797345223e-08  1.4544519912413177e-08  1.8431679146492561e-08  2.2772254314671312e-08  2.7632238429796265e-08  3.3084256134048241e-08  3.9208072859007789e-08  4.6091091189242478e-08  5.3828823039924268e-08  6.2525324273763017e-08  7.2293576318822178e-08  8.3255797261509160e-08  9.5543662847438573e-08  1.0929841591216637e-07  1.2467084108602294e-07  1.4182108029107340e-07  1.6091826370749818e-07  1.8213993067783025e-07  2.0567121559507834e-07  2.3170377534142310e-07  2.6043443745852796e-07  2.9206355207312483e-07  3.2679303577941132e-07  3.6482410225893137e-07  4.0635468241034281e-07  4.5157654610832973e-07  5.0067214827400426e-07  5.5381123348765728e-07  6.1114724557973331e-07  6.7281360106927802e-07  7.3891989745967313e-07  8.0954813864897543e-07  8.8474906941033832e-07  9.6453871836588233e-07  1.0488952534494324e-06  1.1377562549247824e-06  1.2310165081014173e-06  1.3285264106325277e-06  1.4300910775560913e-06  1.5354702111513273e-06  1.6443787825898663e-06  1.7564885488838437e-06  1.8714304026362265e-06  1.9887975246522804e-06  2.1081492817958266e-06  2.2290157858666381e-06  2.3509030050283129e-06  2.4732982986281517e-06  2.5956762301471817e-06  2.7175045022783128e-06  2.8382498532342424e-06  2.9573837544850322e-06  3.0743877570367203e-06  3.1887583455905127e-06  3.3000111767035803e-06  3.4076845974339527e-06  3.5113423637890656e-06  3.6105755024498694e-06  3.7050032835742695e-06  3.7942732959514251e-06  3.8780606374879854e-06  3.9560662532554825e-06  4.0280144696242625e-06  4.0936497860841494e-06  4.1527329961474260e-06  4.2050367153782399e-06  4.2503403983883748e-06  4.2884249280021228e-06  4.3190668592319439e-06  4.3420323987839757e-06  4.3570711981107793e-06  4.3639100351231390e-06  4.3622464571082514e-06  4.3517424556766740e-06  4.3320182441151845e-06  4.3026462087325810e-06  4.2631451089590103e-06  4.2129746063364107e-06  4.1515302102929947e-06  4.0781387388377932e-06  3.9920544050907129e-06  3.8924556558659474e-06  3.7784429062765271e-06  3.6490373343855883e-06  3.5031809220856929e-06  3.3397379523534376e-06  3.1574981984244104e-06  2.9551820667790268e-06  2.7314479825045932e-06  2.4849023318060105e-06  2.2141123011061114e-06  1.9176219737654633e-06  1.5939720616873862e-06  1.2417236585407596e-06  8.5948642976821462e-07  4.4595219066719202e-07  0.0000000000000000e+00  0.0000000000000000e+00  3.9808427975674981e-09  8.2998764569631975e-09  1.3024338084548834e-08  1.8227868964712406e-08  2.3991788825056349e-08  3.0405898545325008e-08  3.7569309626378608e-08  4.5591291809574203e-08  5.4592128858936670e-08  6.4703969714848203e-08  7.6071659270298353e-08  8.8853529858940889e-08  1.0322213119208904e-07  1.1936487299593501e-07  1.3748455106663582e-07  1.5779972399279252e-07  1.8054490453400398e-07  2.0597052676154717e-07  2.3434264776265853e-07  2.6594234120994747e-07  3.0106473965101646e-07  3.4001768324445128e-07  3.8311993512601551e-07  4.3069892789352895e-07  4.8308801208551211e-07  5.4062318618664604e-07  6.0363929874364714e-07  6.7246572664716048e-07  7.4742154944074794e-07  8.2881025742959918e-07  9.1691405099362745e-07  1.0119878093065837e-06  1.1142528278960638e-06  1.2238904452572352e-06  1.3410356980236875e-06  1.4657711608693463e-06  1.5981211401865188e-06  1.7380463985000428e-06  1.8854395884814908e-06  2.0401215704546206e-06  2.2018387748421956e-06  2.3702617508560898e-06  2.5449850150521884e-06  2.7255282787855403e-06  2.9113390931925838e-06  3.1017969056076100e-06  3.2962184741622926e-06  3.4938645398526432e-06  3.6939476098519196e-06  3.8956406645488034e-06  4.0980865657765387e-06  4.3004079167342233e-06  4.5017171065102819e-06  4.7011262646919117e-06  4.8977568544943991e-06  5.0907486457945749e-06  5.2792678314825465e-06  5.4625140802708736e-06  5.6397263547854486e-06  5.8101873634542797e-06  5.9732265563814393e-06  6.1282216170735953e-06  6.2745984417879488e-06  6.4118296348789558e-06  6.5394315806694891e-06  6.6569601792681431e-06  6.7640053549952829e-06  6.8601844616256747e-06  6.9451347187911819e-06  7.0185048191671548e-06  7.0799458472523537e-06  7.1291016485447905e-06  7.1655987836957774e-06  7.1890361967937865e-06  7.1989747212662675e-06  7.1949265419093313e-06  7.1763447280913100e-06  7.1426129519527834e-06  7.0930355070546123e-06  7.0268277479023723e-06  6.9431070794823578e-06  6.8408846386511307e-06  6.7190578260936165e-06  6.5764038686677477e-06  6.4115746172516919e-06  6.2230928145693893e-06  6.0093501006538021e-06  5.7686070602657260e-06  5.4989956562468209e-06  5.1985244348343535e-06  4.8650869326239031e-06  4.4964737591658222e-06  4.0903888729317237e-06  3.6444706101677247e-06  3.1563180644271893e-06  2.6235234484478986e-06  2.0437111025244754e-06  1.4145838602802570e-06  7.3397770917713684e-07  0.0000000000000000e+00  0.0000000000000000e+00  5.8401627452137993e-09  1.2176960955140877e-08  1.9109263593681568e-08  2.6745554408265063e-08  3.5205665093212998e-08  4.4621968357273114e-08  5.5140612561929525e-08  6.6922785164530615e-08  8.0145990027582078e-08  9.5005319698812149e-08  1.1171469938351199e-07  1.3050807458141352e-07  1.5164050930263875e-07  1.7538915649944551e-07  2.0205405697899508e-07  2.3195871776458302e-07  2.6545041585984205e-07  3.0290016889881828e-07  3.4470231053632472e-07  3.9127360599178832e-07  4.4305184228645939e-07  5.0049382881467244e-07  5.6407274738201414e-07  6.3427479713426569e-07  7.1159508926288945e-07  7.9653275931160399e-07  8.8958528152851065e-07  9.9124199007405905e-07  1.1019768358932493e-06  1.2222404353619291e-06  1.3524514968471041e-06  1.4929877432380881e-06  1.6441764811940989e-06  1.8062849999385077e-06  1.9795110123081065e-06  2.1639733766683860e-06  2.3597033583821073e-06  2.5666367019444525e-06  2.7846067880033429e-06  3.0133391418903371e-06  3.2524475410486196e-06  3.5014319374703715e-06  3.7596783682147289e-06  4.0264609732579386e-06  4.3009461770471271e-06  4.5821990205909361e-06  4.8691915577009042e-06  5.1608131554864715e-06  5.4558824689947945e-06  5.7531607965268273e-06  6.0513664689196390e-06  6.3491898857054562e-06  6.6453087855635816e-06  6.9384033290310404e-06  7.2271705782516406e-06  7.5103379809038553e-06  7.7866755017767168e-06  8.0550060934595534e-06  8.3142142544446578e-06  8.5632524854695562e-06  8.8011455199233523e-06  9.0269922685223716e-06  9.2399654794585280e-06  9.4393091705461325e-06  9.6243339378125927e-06  9.7944102843829531e-06  9.9489601438956949e-06  1.0087446794126275e-05  1.0209363369548896e-05  1.0314220187200409e-05  1.0401531099683920e-05  1.0470799083917677e-05  1.0521501265841406e-05  1.0553073571296759e-05  1.0564895183191143e-05  1.0556272976218332e-05  1.0526426094074794e-05  1.0474470831337648e-05  1.0399405983838165e-05  1.0300098838173033e-05  1.0175271983471306e-05  1.0023491147038306e-05  9.8431542802377454e-06  9.6324821520126633e-06  9.3895107447046192e-06  9.1120857900942213e-06  8.7978598324899781e-06  8.4442922597192984e-06  8.0486528013338156e-06  7.6080290553424833e-06  7.1193386692167991e-06  6.5793468664040112e-06  5.9846900744885422e-06  5.3319064735489026e-06  4.6174743411116426e-06  3.8378591215510131e-06  2.9895701912947900e-06  2.0692283215103756e-06  1.0736450496768594e-06  0.0000000000000000e+00  0.0000000000000000e+00  8.0383259850145614e-09  1.6760919795496317e-08  2.6304408593626798e-08  3.6818896487682555e-08  4.8470252625635777e-08  6.1441782113959738e-08  7.5935957303863529e-08  9.2176192259936597e-08  1.1040863976012948e-07  1.3090398463792334e-07  1.5395920111392283e-07  1.7989923503691663e-07  2.0907856475107499e-07  2.4188258675214419e-07  2.7872876456699859e-07  3.2006747162100873e-07  3.6638245154282998e-07  4.1819081275944465e-07  4.7604246878608721e-07  5.4051893181087789e-07  6.1223136556376321e-07  6.9181780463741875e-07  7.7993945200904229e-07  8.7727597510399366e-07  9.8451973390789456e-07  1.1023688928463291e-06  1.2315193917419940e-06  1.3726557802605189e-06  1.5264409547423357e-06  1.6935048757481621e-06  1.8744323882148681e-06  2.0697503126225021e-06  2.2799140233947200e-06  2.5052937778769795e-06  2.7461611032916429e-06  3.0026755874231782e-06  3.2748724486671585e-06  3.5626512797344557e-06  3.8657663642054562e-06  4.1838189541757174e-06  4.5162518689681017e-06  4.8623467286916779e-06  5.2212240726936634e-06  5.5918465331630002e-06  5.9730251409108700e-06  6.3634287373274920e-06  6.7615963582302324e-06  7.1659523469323870e-06  7.5748238508271918e-06  7.9864602634676444e-06  8.3990540974324599e-06  8.8107627162686258e-06  9.2197303194229578e-06  9.6241095638961701e-06  1.0022082220497861e-05  1.0411878299736944e-05  1.0791793139934955e-05  1.1160202024420476e-05  1.1515571981210714e-05  1.1856470512568212e-05  1.2181571098338178e-05  1.2489655411413178e-05  1.2779612271984288e-05  1.3050433446142025e-05  1.3301206461507271e-05  1.3531104666474977e-05  1.3739374799838624e-05  1.3925322364371924e-05  1.4088295112428912e-05  1.4227664955395786e-05  1.4342808603891626e-05  1.4433087234209543e-05  1.4497825460936531e-05  1.4536289878281594e-05  1.4547667415531898e-05  1.4531043737201654e-05  1.4485381907550129e-05  1.4409501533662730e-05  1.4302058602386952e-05  1.4161526234996378e-05  1.3986176600183675e-05  1.3774064251284051e-05  1.3523011187730054e-05  1.3230593983659769e-05  1.2894133378191303e-05  1.2510686781797203e-05  1.2077044220941201e-05  1.1589728317949082e-05  1.1044998984027956e-05  1.0438863589215125e-05  9.7670934623298349e-06  9.0252476648811731e-06  8.2087050731426505e-06  7.3127058896275023e-06  6.3324037859586382e-06  5.2629299500469964e-06  4.0994703667096846e-06  2.8373576947276866e-06  1.4721793529910230e-06  0.0000000000000000e+00  0.0000000000000000e+00  1.0629073447278174e-08  2.2163991679073566e-08  3.4786386723015580e-08  4.8696012538522814e-08  6.4113704841130119e-08  8.1283637730201609e-08  1.0047566537086387e-07  1.2198772645202324e-07  1.4614828412300109e-07  1.7331876657176388e-07  2.0389596500209730e-07  2.3831433655044754e-07  2.7704814976193718e-07  3.2061339978274389e-07  3.6956940965497444e-07  4.2452002333248385e-07  4.8611428567249814e-07  5.5504649519413982e-07  6.3205550742436448e-07  7.1792316086269267e-07  8.1347169476241303e-07  9.1956002888933992e-07  1.0370787810611854e-06  1.1669439094731165e-06  1.3100888844087958e-06  1.4674553186370042e-06  1.6399820181276330e-06  1.8285924549398009e-06  2.0341807121300906e-06  2.2575960057438262e-06  2.4996259503055143e-06  2.7609788000533018e-06  3.0422649661925800e-06  3.3439781778050345e-06  3.6664767173346183e-06  4.0099652169599134e-06  4.3744775455970917e-06  4.7598613437088819e-06  5.1657647707653261e-06  5.5916260149678009e-06  6.0366660745063230e-06  6.4998852532140367e-06  6.9800637215464001e-06  7.4757663785285319e-06  7.9853521155457262e-06  8.5069874340392905e-06  9.0386642130705706e-06  9.5782212670160913e-06  1.0123369186458925e-05  1.0671717824591024e-05  1.1220805684327357e-05  1.1768130383736290e-05  1.2311179333425246e-05  1.2847459751224047e-05  1.3374527166705712e-05  1.3890011628446952e-05  1.4391640916208738e-05  1.4877260172629815e-05  1.5344847497751123e-05  1.5792525187416065e-05  1.6218566436061629e-05  1.6621397458923066e-05  1.6999595112466397e-05  1.7351880200429054e-05  1.7677106743078407e-05  1.7974247557521592e-05  1.8242376546808741e-05  1.8480648126063509e-05  1.8688274226835780e-05  1.8864499318924818e-05  1.9008573875175396e-05  1.9119726682562588e-05  1.9197136375641380e-05  1.9239902539410616e-05  1.9247016700825385e-05  1.9217333504250670e-05  1.9149542348348573e-05  1.9042139752099231e-05  1.8893402717335625e-05  1.8701363365422515e-05  1.8463785147282861e-05  1.8178140959324363e-05  1.7841593543126294e-05  1.7450978603950005e-05  1.7002791151949404e-05  1.6493175649872749e-05  1.5917920641330112e-05  1.5272458633374922e-05  1.4551872114956801e-05  1.3750906707175011e-05  1.2863992560250445e-05  1.1885275233366479e-05  1.0808657414126793e-05  9.6278529508956988e-06  8.3364547795784194e-06  6.9280184214110102e-06  5.3961628036411700e-06  3.7346902032179942e-06  1.9377274103430350e-06  0.0000000000000000e+00  0.0000000000000000e+00  1.3674297696269106e-08  2.8515466810341965e-08  4.4758712936548585e-08  6.2662948203293023e-08  8.2514565351789596e-08  1.0463041334989652e-07  1.2936089074145102e-07  1.5709312860325443e-07  1.8825422807643813e-07  2.2331450742094758e-07  2.6279070232852733e-07  3.0724905087369924e-07  3.5730818110678595e-07  4.1364170510009122e-07  4.7698040854379412e-07  5.4811391015680290e-07  6.2789165075700705e-07  7.1722305848528115e-07  8.1707672519742510e-07  9.2847842036501980e-07  1.0525077640249492e-06  1.1902933805594796e-06  1.3430063616159873e-06  1.5118518805478040e-06  1.6980588235837776e-06  1.9028673355823248e-06  2.1275142215185593e-06  2.3732161992473705e-06  2.6411510645428598e-06  2.9324369052733829e-06  3.2481095864269738e-06  3.5890988193131554e-06  3.9562032235040497e-06  4.3500648849246095e-06  4.7711440031358865e-06  5.2196942998085903e-06  5.6957399227993934e-06  6.1990546202188011e-06  6.7291439708962131e-06  7.2852314370422192e-06  7.8662489483700503e-06  8.4708326329741329e-06  9.0973241795810568e-06  9.7437781515376853e-06  1.0407975380741688e-05  1.1087442357660270e-05  1.1779476311598336e-05  1.2481175454807217e-05  1.3189473656798703e-05  1.3901178632977669e-05  1.4613012584860592e-05  1.5321654126090714e-05  1.6023780274859948e-05  1.6716107291696341e-05  1.7395429191040833e-05  1.8058652851574957e-05  1.8702828787045969e-05  1.9325176807364518e-05  1.9923105988657564e-05  2.0494228569836161e-05  2.1036367591483965e-05  2.1547558280900607e-05  2.2026043356960836e-05  2.2470262574056820e-05  2.2878836941917460e-05  2.3250548145820149e-05  2.3584313749878166e-05  2.3879158796636142e-05  2.4134184422392667e-05  2.4348534093686037e-05  2.4521358040963446e-05  2.4651776425547101e-05  2.4738841730466089e-05  2.4781500819074372e-05  2.4778557061695460e-05  2.4728632893320286e-05  2.4630133137541319e-05  2.4481209415728209e-05  2.4279725957677011e-05  2.4023227141817620e-05  2.3708907120317905e-05  2.3333581927466235e-05  2.2893664528601210e-05  2.2385143341355573e-05  2.1803564850592922e-05  2.1144021042398838e-05  2.0401142499834242e-05  1.9569098132583834e-05  1.8641602652527938e-05  1.7611933055636888e-05  1.6472955524994937e-05  1.5217164327222968e-05  1.3836734431474699e-05  1.2323589732165171e-05  1.0669488898390875e-05  8.8661309982623944e-06  6.9052831474487823e-06  4.7789325000752231e-06  2.4794652495517075e-06  0.0000000000000000e+00  0.0000000000000000e+00  1.7245174508181562e-08  3.5964059102010262e-08  5.6455559108392141e-08  7.9048998104793237e-08  1.0410888017086526e-07  1.3203874921124372e-07  1.6328520935724796e-07  1.9834207170160391e-07  2.3775458339665134e-07  2.8212368206683090e-07  3.3211020376617833e-07  3.8843895639827630e-07  4.5190255274618728e-07  5.2336487827396816e-07  6.0376404902519232e-07  6.9411469476977560e-07  7.9550938271739465e-07  9.0911897848680532e-07  1.0361917246535992e-06  1.1780508043505059e-06  1.3360901495095517e-06  1