<?xml version="1.0"?>
<VTKFile type="UnstructuredGrid"  version="0.1"  >
<UnstructuredGrid>
<Piece  NumberOfPoints="10201" NumberOfCells="20000">
<Points>
<DataArray  type="Float64"  NumberOfComponents="3"  format="ascii">0 0 0  0.01 0 0  0.02 0 0  0.03 0 0  0.04 0 0  0.05 0 0  0.06 0 0  0.07000000000000001 0 0  0.08 0 0  0.09 0 0  0.1 0 0  0.11 0 0  0.12 0 0  0.13 0 0  0.14 0 0  0.15 0 0  0.16 0 0  0.17 0 0  0.18 0 0  0.19 0 0  0.2 0 0  0.21 0 0  0.22 0 0  0.23 0 0  0.24 0 0  0.25 0 0  0.26 0 0  0.27 0 0  0.28 0 0  0.29 0 0  0.3 0 0  0.31 0 0  0.32 0 0  0.33 0 0  0.34 0 0  0.35 0 0  0.36 0 0  0.37 0 0  0.38 0 0  0.39 0 0  0.4 0 0  0.41 0 0  0.42 0 0  0.43 0 0  0.44 0 0  0.45 0 0  0.46 0 0  0.47 0 0  0.48 0 0  0.49 0 0  0.5 0 0  0.51 0 0  0.52 0 0  0.53 0 0  0.54 0 0  0.55 0 0  0.5600000000000001 0 0  0.57 0 0  0.58 0 0  0.59 0 0  0.6 0 0  0.61 0 0  0.62 0 0  0.63 0 0  0.64 0 0  0.65 0 0  0.66 0 0  0.67 0 0  0.68 0 0  0.6899999999999999 0 0  0.7 0 0  0.71 0 0  0.72 0 0  0.73 0 0  0.74 0 0  0.75 0 0  0.76 0 0  0.77 0 0  0.78 0 0  0.79 0 0  0.8 0 0  0.8100000000000001 0 0  0.82 0 0  0.83 0 0  0.84 0 0  0.85 0 0  0.86 0 0  0.87 0 0  0.88 0 0  0.89 0 0  0.9 0 0  0.91 0 0  0.92 0 0  0.93 0 0  0.9399999999999999 0 0  0.95 0 0  0.96 0 0  0.97 0 0  0.98 0 0  0.99 0 0  1 0 0  0 0.01 0  0.01 0.01 0  0.02 0.01 0  0.03 0.01 0  0.04 0.01 0  0.05 0.01 0  0.06 0.01 0  0.07000000000000001 0.01 0  0.08 0.01 0  0.09 0.01 0  0.1 0.01 0  0.11 0.01 0  0.12 0.01 0  0.13 0.01 0  0.14 0.01 0  0.15 0.01 0  0.16 0.01 0  0.17 0.01 0  0.18 0.01 0  0.19 0.01 0  0.2 0.01 0  0.21 0.01 0  0.22 0.01 0  0.23 0.01 0  0.24 0.01 0  0.25 0.01 0  0.26 0.01 0  0.27 0.01 0  0.28 0.01 0  0.29 0.01 0  0.3 0.01 0  0.31 0.01 0  0.32 0.01 0  0.33 0.01 0  0.34 0.01 0  0.35 0.01 0  0.36 0.01 0  0.37 0.01 0  0.38 0.01 0  0.39 0.01 0  0.4 0.01 0  0.41 0.01 0  0.42 0.01 0  0.43 0.01 0  0.44 0.01 0  0.45 0.01 0  0.46 0.01 0  0.47 0.01 0  0.48 0.01 0  0.49 0.01 0  0.5 0.01 0  0.51 0.01 0  0.52 0.01 0  0.53 0.01 0  0.54 0.01 0  0.55 0.01 0  0.5600000000000001 0.01 0  0.57 0.01 0  0.58 0.01 0  0.59 0.01 0  0.6 0.01 0  0.61 0.01 0  0.62 0.01 0  0.63 0.01 0  0.64 0.01 0  0.65 0.01 0  0.66 0.01 0  0.67 0.01 0  0.68 0.01 0  0.6899999999999999 0.01 0  0.7 0.01 0  0.71 0.01 0  0.72 0.01 0  0.73 0.01 0  0.74 0.01 0  0.75 0.01 0  0.76 0.01 0  0.77 0.01 0  0.78 0.01 0  0.79 0.01 0  0.8 0.01 0  0.8100000000000001 0.01 0  0.82 0.01 0  0.83 0.01 0  0.84 0.01 0  0.85 0.01 0  0.86 0.01 0  0.87 0.01 0  0.88 0.01 0  0.89 0.01 0  0.9 0.01 0  0.91 0.01 0  0.92 0.01 0  0.93 0.01 0  0.9399999999999999 0.01 0  0.95 0.01 0  0.96 0.01 0  0.97 0.01 0  0.98 0.01 0  0.99 0.01 0  1 0.01 0  0 0.02 0  0.01 0.02 0  0.02 0.02 0  0.03 0.02 0  0.04 0.02 0  0.05 0.02 0  0.06 0.02 0  0.07000000000000001 0.02 0  0.08 0.02 0  0.09 0.02 0  0.1 0.02 0  0.11 0.02 0  0.12 0.02 0  0.13 0.02 0  0.14 0.02 0  0.15 0.02 0  0.16 0.02 0  0.17 0.02 0  0.18 0.02 0  0.19 0.02 0  0.2 0.02 0  0.21 0.02 0  0.22 0.02 0  0.23 0.02 0  0.24 0.02 0  0.25 0.02 0  0.26 0.02 0  0.27 0.02 0  0.28 0.02 0  0.29 0.02 0  0.3 0.02 0  0.31 0.02 0  0.32 0.02 0  0.33 0.02 0  0.34 0.02 0  0.35 0.02 0  0.36 0.02 0  0.37 0.02 0  0.38 0.02 0  0.39 0.02 0  0.4 0.02 0  0.41 0.02 0  0.42 0.02 0  0.43 0.02 0  0.44 0.02 0  0.45 0.02 0  0.46 0.02 0  0.47 0.02 0  0.48 0.02 0  0.49 0.02 0  0.5 0.02 0  0.51 0.02 0  0.52 0.02 0  0.53 0.02 0  0.54 0.02 0  0.55 0.02 0  0.5600000000000001 0.02 0  0.57 0.02 0  0.58 0.02 0  0.59 0.02 0  0.6 0.02 0  0.61 0.02 0  0.62 0.02 0  0.63 0.02 0  0.64 0.02 0  0.65 0.02 0  0.66 0.02 0  0.67 0.02 0  0.68 0.02 0  0.6899999999999999 0.02 0  0.7 0.02 0  0.71 0.02 0  0.72 0.02 0  0.73 0.02 0  0.74 0.02 0  0.75 0.02 0  0.76 0.02 0  0.77 0.02 0  0.78 0.02 0  0.79 0.02 0  0.8 0.02 0  0.8100000000000001 0.02 0  0.82 0.02 0  0.83 0.02 0  0.84 0.02 0  0.85 0.02 0  0.86 0.02 0  0.87 0.02 0  0.88 0.02 0  0.89 0.02 0  0.9 0.02 0  0.91 0.02 0  0.92 0.02 0  0.93 0.02 0  0.9399999999999999 0.02 0  0.95 0.02 0  0.96 0.02 0  0.97 0.02 0  0.98 0.02 0  0.99 0.02 0  1 0.02 0  0 0.03 0  0.01 0.03 0  0.02 0.03 0  0.03 0.03 0  0.04 0.03 0  0.05 0.03 0  0.06 0.03 0  0.07000000000000001 0.03 0  0.08 0.03 0  0.09 0.03 0  0.1 0.03 0  0.11 0.03 0  0.12 0.03 0  0.13 0.03 0  0.14 0.03 0  0.15 0.03 0  0.16 0.03 0  0.17 0.03 0  0.18 0.03 0  0.19 0.03 0  0.2 0.03 0  0.21 0.03 0  0.22 0.03 0  0.23 0.03 0  0.24 0.03 0  0.25 0.03 0  0.26 0.03 0  0.27 0.03 0  0.28 0.03 0  0.29 0.03 0  0.3 0.03 0  0.31 0.03 0  0.32 0.03 0  0.33 0.03 0  0.34 0.03 0  0.35 0.03 0  0.36 0.03 0  0.37 0.03 0  0.38 0.03 0  0.39 0.03 0  0.4 0.03 0  0.41 0.03 0  0.42 0.03 0  0.43 0.03 0  0.44 0.03 0  0.45 0.03 0  0.46 0.03 0  0.47 0.03 0  0.48 0.03 0  0.49 0.03 0  0.5 0.03 0  0.51 0.03 0  0.52 0.03 0  0.53 0.03 0  0.54 0.03 0  0.55 0.03 0  0.5600000000000001 0.03 0  0.57 0.03 0  0.58 0.03 0  0.59 0.03 0  0.6 0.03 0  0.61 0.03 0  0.62 0.03 0  0.63 0.03 0  0.64 0.03 0  0.65 0.03 0  0.66 0.03 0  0.67 0.03 0  0.68 0.03 0  0.6899999999999999 0.03 0  0.7 0.03 0  0.71 0.03 0  0.72 0.03 0  0.73 0.03 0  0.74 0.03 0  0.75 0.03 0  0.76 0.03 0  0.77 0.03 0  0.78 0.03 0  0.79 0.03 0  0.8 0.03 0  0.8100000000000001 0.03 0  0.82 0.03 0  0.83 0.03 0  0.84 0.03 0  0.85 0.03 0  0.86 0.03 0  0.87 0.03 0  0.88 0.03 0  0.89 0.03 0  0.9 0.03 0  0.91 0.03 0  0.92 0.03 0  0.93 0.03 0  0.9399999999999999 0.03 0  0.95 0.03 0  0.96 0.03 0  0.97 0.03 0  0.98 0.03 0  0.99 0.03 0  1 0.03 0  0 0.04 0  0.01 0.04 0  0.02 0.04 0  0.03 0.04 0  0.04 0.04 0  0.05 0.04 0  0.06 0.04 0  0.07000000000000001 0.04 0  0.08 0.04 0  0.09 0.04 0  0.1 0.04 0  0.11 0.04 0  0.12 0.04 0  0.13 0.04 0  0.14 0.04 0  0.15 0.04 0  0.16 0.04 0  0.17 0.04 0  0.18 0.04 0  0.19 0.04 0  0.2 0.04 0  0.21 0.04 0  0.22 0.04 0  0.23 0.04 0  0.24 0.04 0  0.25 0.04 0  0.26 0.04 0  0.27 0.04 0  0.28 0.04 0  0.29 0.04 0  0.3 0.04 0  0.31 0.04 0  0.32 0.04 0  0.33 0.04 0  0.34 0.04 0  0.35 0.04 0  0.36 0.04 0  0.37 0.04 0  0.38 0.04 0  0.39 0.04 0  0.4 0.04 0  0.41 0.04 0  0.42 0.04 0  0.43 0.04 0  0.44 0.04 0  0.45 0.04 0  0.46 0.04 0  0.47 0.04 0  0.48 0.04 0  0.49 0.04 0  0.5 0.04 0  0.51 0.04 0  0.52 0.04 0  0.53 0.04 0  0.54 0.04 0  0.55 0.04 0  0.5600000000000001 0.04 0  0.57 0.04 0  0.58 0.04 0  0.59 0.04 0  0.6 0.04 0  0.61 0.04 0  0.62 0.04 0  0.63 0.04 0  0.64 0.04 0  0.65 0.04 0  0.66 0.04 0  0.67 0.04 0  0.68 0.04 0  0.6899999999999999 0.04 0  0.7 0.04 0  0.71 0.04 0  0.72 0.04 0  0.73 0.04 0  0.74 0.04 0  0.75 0.04 0  0.76 0.04 0  0.77 0.04 0  0.78 0.04 0  0.79 0.04 0  0.8 0.04 0  0.8100000000000001 0.04 0  0.82 0.04 0  0.83 0.04 0  0.84 0.04 0  0.85 0.04 0  0.86 0.04 0  0.87 0.04 0  0.88 0.04 0  0.89 0.04 0  0.9 0.04 0  0.91 0.04 0  0.92 0.04 0  0.93 0.04 0  0.9399999999999999 0.04 0  0.95 0.04 0  0.96 0.04 0  0.97 0.04 0  0.98 0.04 0  0.99 0.04 0  1 0.04 0  0 0.05 0  0.01 0.05 0  0.02 0.05 0  0.03 0.05 0  0.04 0.05 0  0.05 0.05 0  0.06 0.05 0  0.07000000000000001 0.05 0  0.08 0.05 0  0.09 0.05 0  0.1 0.05 0  0.11 0.05 0  0.12 0.05 0  0.13 0.05 0  0.14 0.05 0  0.15 0.05 0  0.16 0.05 0  0.17 0.05 0  0.18 0.05 0  0.19 0.05 0  0.2 0.05 0  0.21 0.05 0  0.22 0.05 0  0.23 0.05 0  0.24 0.05 0  0.25 0.05 0  0.26 0.05 0  0.27 0.05 0  0.28 0.05 0  0.29 0.05 0  0.3 0.05 0  0.31 0.05 0  0.32 0.05 0  0.33 0.05 0  0.34 0.05 0  0.35 0.05 0  0.36 0.05 0  0.37 0.05 0  0.38 0.05 0  0.39 0.05 0  0.4 0.05 0  0.41 0.05 0  0.42 0.05 0  0.43 0.05 0  0.44 0.05 0  0.45 0.05 0  0.46 0.05 0  0.47 0.05 0  0.48 0.05 0  0.49 0.05 0  0.5 0.05 0  0.51 0.05 0  0.52 0.05 0  0.53 0.05 0  0.54 0.05 0  0.55 0.05 0  0.5600000000000001 0.05 0  0.57 0.05 0  0.58 0.05 0  0.59 0.05 0  0.6 0.05 0  0.61 0.05 0  0.62 0.05 0  0.63 0.05 0  0.64 0.05 0  0.65 0.05 0  0.66 0.05 0  0.67 0.05 0  0.68 0.05 0  0.6899999999999999 0.05 0  0.7 0.05 0  0.71 0.05 0  0.72 0.05 0  0.73 0.05 0  0.74 0.05 0  0.75 0.05 0  0.76 0.05 0  0.77 0.05 0  0.78 0.05 0  0.79 0.05 0  0.8 0.05 0  0.8100000000000001 0.05 0  0.82 0.05 0  0.83 0.05 0  0.84 0.05 0  0.85 0.05 0  0.86 0.05 0  0.87 0.05 0  0.88 0.05 0  0.89 0.05 0  0.9 0.05 0  0.91 0.05 0  0.92 0.05 0  0.93 0.05 0  0.9399999999999999 0.05 0  0.95 0.05 0  0.96 0.05 0  0.97 0.05 0  0.98 0.05 0  0.99 0.05 0  1 0.05 0  0 0.06 0  0.01 0.06 0  0.02 0.06 0  0.03 0.06 0  0.04 0.06 0  0.05 0.06 0  0.06 0.06 0  0.07000000000000001 0.06 0  0.08 0.06 0  0.09 0.06 0  0.1 0.06 0  0.11 0.06 0  0.12 0.06 0  0.13 0.06 0  0.14 0.06 0  0.15 0.06 0  0.16 0.06 0  0.17 0.06 0  0.18 0.06 0  0.19 0.06 0  0.2 0.06 0  0.21 0.06 0  0.22 0.06 0  0.23 0.06 0  0.24 0.06 0  0.25 0.06 0  0.26 0.06 0  0.27 0.06 0  0.28 0.06 0  0.29 0.06 0  0.3 0.06 0  0.31 0.06 0  0.32 0.06 0  0.33 0.06 0  0.34 0.06 0  0.35 0.06 0  0.36 0.06 0  0.37 0.06 0  0.38 0.06 0  0.39 0.06 0  0.4 0.06 0  0.41 0.06 0  0.42 0.06 0  0.43 0.06 0  0.44 0.06 0  0.45 0.06 0  0.46 0.06 0  0.47 0.06 0  0.48 0.06 0  0.49 0.06 0  0.5 0.06 0  0.51 0.06 0  0.52 0.06 0  0.53 0.06 0  0.54 0.06 0  0.55 0.06 0  0.5600000000000001 0.06 0  0.57 0.06 0  0.58 0.06 0  0.59 0.06 0  0.6 0.06 0  0.61 0.06 0  0.62 0.06 0  0.63 0.06 0  0.64 0.06 0  0.65 0.06 0  0.66 0.06 0  0.67 0.06 0  0.68 0.06 0  0.6899999999999999 0.06 0  0.7 0.06 0  0.71 0.06 0  0.72 0.06 0  0.73 0.06 0  0.74 0.06 0  0.75 0.06 0  0.76 0.06 0  0.77 0.06 0  0.78 0.06 0  0.79 0.06 0  0.8 0.06 0  0.8100000000000001 0.06 0  0.82 0.06 0  0.83 0.06 0  0.84 0.06 0  0.85 0.06 0  0.86 0.06 0  0.87 0.06 0  0.88 0.06 0  0.89 0.06 0  0.9 0.06 0  0.91 0.06 0  0.92 0.06 0  0.93 0.06 0  0.9399999999999999 0.06 0  0.95 0.06 0  0.96 0.06 0  0.97 0.06 0  0.98 0.06 0  0.99 0.06 0  1 0.06 0  0 0.07000000000000001 0  0.01 0.07000000000000001 0  0.02 0.07000000000000001 0  0.03 0.07000000000000001 0  0.04 0.07000000000000001 0  0.05 0.07000000000000001 0  0.06 0.07000000000000001 0  0.07000000000000001 0.07000000000000001 0  0.08 0.07000000000000001 0  0.09 0.07000000000000001 0  0.1 0.07000000000000001 0  0.11 0.07000000000000001 0  0.12 0.07000000000000001 0  0.13 0.07000000000000001 0  0.14 0.07000000000000001 0  0.15 0.07000000000000001 0  0.16 0.07000000000000001 0  0.17 0.0700
[...]
<PointData  Scalars="u"> 
<DataArray  type="Float64"  Name="u"  format="ascii">0.0000000000000000e+00  0.0000000000000000e+00  0.0000000000000000e+00  0.0000000000000000e+00  0.0000000000000000e+00  0.0000000000000000e+00  0.0000000000000000e+00  0.0000000000000000e+00  0.0000000000000000e+00  0.0000000000000000e+00  0.0000000000000000e+00  0.0000000000000000e+00  0.0000000000000000e+00  0.0000000000000000e+00  0.0000000000000000e+00  0.0000000000000000e+00  0.0000000000000000e+00  0.0000000000000000e+00  0.0000000000000000e+00  0.0000000000000000e+00  0.0000000000000000e+00  0.0000000000000000e+00  0.0000000000000000e+00  0.0000000000000000e+00  0.0000000000000000e+00  0.0000000000000000e+00  0.0000000000000000e+00  0.0000000000000000e+00  0.0000000000000000e+00  0.0000000000000000e+00  0.0000000000000000e+00  0.0000000000000000e+00  0.0000000000000000e+00  0.0000000000000000e+00  0.0000000000000000e+00  0.0000000000000000e+00  0.0000000000000000e+00  0.0000000000000000e+00  0.0000000000000000e+00  0.0000000000000000e+00  0.0000000000000000e+00  0.0000000000000000e+00  0.0000000000000000e+00  0.0000000000000000e+00  0.0000000000000000e+00  0.0000000000000000e+00  0.0000000000000000e+00  0.0000000000000000e+00  0.0000000000000000e+00  0.0000000000000000e+00  0.0000000000000000e+00  0.0000000000000000e+00  0.0000000000000000e+00  0.0000000000000000e+00  0.0000000000000000e+00  0.0000000000000000e+00  0.0000000000000000e+00  0.0000000000000000e+00  0.0000000000000000e+00  0.0000000000000000e+00  0.0000000000000000e+00  0.0000000000000000e+00  0.0000000000000000e+00  0.0000000000000000e+00  0.0000000000000000e+00  0.0000000000000000e+00  0.0000000000000000e+00  0.0000000000000000e+00  0.0000000000000000e+00  0.0000000000000000e+00  0.0000000000000000e+00  0.0000000000000000e+00  0.0000000000000000e+00  0.0000000000000000e+00  0.0000000000000000e+00  0.0000000000000000e+00  0.0000000000000000e+00  0.0000000000000000e+00  0.0000000000000000e+00  0.0000000000000000e+00  0.0000000000000000e+00  0.0000000000000000e+00  0.0000000000000000e+00  0.0000000000000000e+00  0.0000000000000000e+00  0.0000000000000000e+00  0.0000000000000000e+00  0.0000000000000000e+00  0.0000000000000000e+00  0.0000000000000000e+00  0.0000000000000000e+00  0.0000000000000000e+00  0.0000000000000000e+00  0.0000000000000000e+00  0.0000000000000000e+00  0.0000000000000000e+00  0.0000000000000000e+00  0.0000000000000000e+00  0.0000000000000000e+00  0.0000000000000000e+00  0.0000000000000000e+00  0.0000000000000000e+00  4.6233456104924473e-09  9.1873486376972560e-09  1.3751094931678429e-08  1.8368929305761001e-08  2.3092095431554068e-08  2.7969166213425903e-08  3.3046401562197316e-08  3.8368022916037655e-08  4.3976406116346871e-08  4.9912195634800924e-08  5.6214343026695947e-08  6.2920072228351487e-08  7.0064774190360874e-08  7.7681833408832043e-08  8.5802389203526186e-08  9.4455035102039150e-08  1.0366546042350407e-07  1.1345603910865736e-07  1.2384537200372656e-07  1.3484779015366302e-07  1.4647282816635719e-07  1.5872467833331089e-07  1.7160163788142416e-07  1.8509556342011485e-07  1.9919134826025288e-07  2.1386643972700803e-07  2.2909041476832857e-07  2.4482463296814157e-07  2.6102198639954512e-07  2.7762676549201867e-07  2.9457465914115363e-07  3.1179290557967914e-07  3.2920060799968288e-07  3.4670922554616346e-07  3.6422324611039765e-07  3.8164104240410067e-07  3.9885590720899875e-07  4.1575725764056868e-07  4.3223199195813309e-07  4.4816597615838673e-07  4.6344563159982804e-07  4.7795958953303356e-07  4.9160037396644210e-07  5.0426607106806676e-07  5.1586194153562564e-07  5.2630193224307565e-07  5.3551004509130318e-07  5.4342152436226223e-07  5.4998382890653544e-07  5.5515736199289807e-07  5.5891593933358219e-07  5.6124698431557694e-07  5.6215144840994663e-07  5.6164346366676163e-07  5.5974974270579024e-07  5.5650874928816724e-07  5.5196966906493191e-07  5.4619121518578562e-07  5.3924030694792765e-07  5.3119066150025861e-07  5.2212133881751062e-07  5.1211527883438344e-07  5.0125786696600658e-07  4.8963556047726990e-07  4.7733460357289128e-07  4.6443985394940518e-07  4.5103373816110486e-07  4.3719534776452345e-07  4.2299968304652252e-07  4.0851704639347739e-07  3.9381258316082350e-07  3.7894596434369755e-07  3.6397120247629792e-07  3.4893659000609214e-07  3.3388474787207011e-07  3.1885277111121984e-07  3.0387245795313939e-07  2.8897060895697016e-07  2.7416938321032544e-07  2.5948669935976887e-07  2.4493667019417612e-07  2.3053006058107550e-07  2.1627475969623943e-07  2.0217625963332427e-07  1.8823813358876392e-07  1.7446250785337821e-07  1.6085052278169865e-07  1.4740277873686657e-07  1.3411976371435617e-07  1.2100225992898841e-07  1.0805172710847917e-07  9.5270660577855436e-08  8.2662922447529301e-08  7.0234044333514518e-08  5.7991500018354231e-08  4.5944946193235679e-08  3.4106428395591344e-08  2.2490544919227947e-08  1.1114544065351455e-08  0.0000000000000000e+00  0.0000000000000000e+00  1.0237102653761008e-08  2.0343998176640141e-08  3.0450734963087877e-08  4.0677998004603175e-08  5.1139541428041538e-08  6.1943203427420511e-08  7.3191712870916152e-08  8.4983303075155872e-08  9.7412142584113495e-08  1.1056859070697913e-07  1.2453928437224385e-07  1.3940706207395573e-07  1.5525073034187959e-07  1.7214467829493198e-07  1.9015834645763421e-07  2.0935555714295231e-07  2.2979371533267605e-07  2.5152289110804077e-07  2.7458479727385464e-07  2.9901167883638630e-07  3.2482513437478022e-07  3.5203489299933394e-07  3.8063757440192654e-07  4.1061546332990823e-07  4.4193533348163078e-07  4.7454735912909870e-07  5.0838415549740960e-07  5.4335999083139860e-07  5.7937021390958311e-07  6.1629094028141197e-07  6.5397903848289241e-07  6.9227245374193442e-07  7.3099090108747563e-07  7.6993695226933226e-07  8.0889753151429526e-07  8.4764582403037591e-07  8.8594358858399787e-07  9.2354385179284599e-07  9.6019394749310075e-07  9.9563885024761859e-07  1.0296247384305426e-06  1.0619027100652845e-06  1.0922325644183759e-06  1.1203865549254363e-06  1.1461530149147208e-06  1.1693397572213469e-06  1.1897771523893734e-06  1.2073207977623682e-06  1.2218537011590762e-06  1.2332879175843016e-06  1.2415655948931783e-06  1.2466594036959643e-06  1.2485723471278359e-06  1.2473369664242743e-06  1.2430139775579484e-06  1.2356903916031038e-06  1.2254771862281506e-06  1.2125066071867745e-06  1.1969291865038556e-06  1.1789105680813834e-06  1.1586282317472500e-06  1.1362682036022319e-06  1.1120218343187433e-06  1.0860827183634403e-06  1.0586438165846190e-06  1.0298948328832813e-06  1.0000198834174667e-06  9.6919548456474154e-07  9.3758887419956023e-07  9.0535667014385075e-07  8.7264386022622491e-07  8.3958311043515069e-07  8.0629437126988643e-07  7.7288475758598578e-07  7.3944867393119014e-07  7.0606815544656551e-07  6.7281339370081190e-07  6.3974341714249873e-07  6.0690689699572851e-07  5.7434305119154268e-07  5.4208262113365875e-07  5.1014889857417550e-07  4.7855878247599455e-07  4.4732384834117740e-07  4.1645141499017230e-07  3.8594559611096761e-07  3.5580832600665373e-07  3.2604035082048437e-07  2.9664217809153329e-07  2.6761497878694708e-07  2.3896143697445236e-07  2.1068654305426034e-07  1.8279832697946518e-07  1.5530852817315112e-07  1.2823319890178424e-07  1.0159323766545278e-07  7.5414848712495642e-08  4.9729923933977261e-08  2.4576358615814035e-08  0.0000000000000000e+00  0.0000000000000000e+00  1.7031115671034502e-08  3.3846872504496692e-08  5.0663775840928745e-08  6.7683337922049616e-08  8.5095551839590819e-08  1.0308059271269824e-07  1.2181017547750485e-07  1.4144858828719653e-07  1.6215341862761739e-07  1.8407598552909790e-07  2.0736148882562548e-07  2.3214888490666256e-07  2.5857049773147925e-07  2.8675137402801636e-07  3.1680839259374006e-07  3.4884913946814580e-07  3.8297056345834845e-07  4.1925743005635612e-07  4.5778059615186576e-07  4.9859513305074141e-07  5.4173833105384510e-07  5.8722762508884773e-07  6.3505848742778630e-07  6.8520234012429005e-07  7.3760454617504636e-07  7.9218254421017906e-07  8.4882419636483268e-07  9.0738642246567697e-07  9.6769419535176630e-07  1.0295399716139969e-06  1.0926836288864810e-06  1.1568529747211143e-06  1.2217448827805174e-06  1.2870270994768654e-06  1.3523407483049109e-06  1.4173035401911471e-06  1.4815136766355798e-06  1.5445544088972105e-06  1.6059991918127991e-06  1.6654173460652256e-06  1.7223801189975074e-06  1.7764670126459757e-06  1.8272722297949775e-06  1.8744110757118245e-06  1.9175261458168986e-06  1.9562931286412309e-06  1.9904260594603660e-06  2.0196818730269286e-06  2.0438641235057155e-06  2.0628257652887202e-06  2.0764709187066149e-06  2.0847555783259416e-06  2.0876872568829953e-06  2.0853235932096001e-06  2.0777699860246775e-06  2.0651763456063979e-06  2.0477330807713485e-06  2.0256664582420291e-06  1.9992334847324842e-06  1.9687164686743360e-06  1.9344174185831902e-06  1.8966524291202062e-06  1.8557461947176649e-06  1.8120267752040835e-06  1.7658207193043135e-06  1.7174486313658979e-06  1.6672212453029187e-06  1.6154360485814815e-06  1.5623744789789416e-06  1.5082996985350843e-06  1.4534549330894812e-06  1.3980623523848818e-06  1.3423224550549033e-06  1.2864139148926545e-06  1.2304938394763418e-06  1.1746983892725048e-06  1.1191437044465186e-06  1.0639270874444073e-06  1.0091283916186498e-06  9.5481156940925168e-07  9.0102633753841487e-07  8.4780992104456214e-07  7.9518884252091732e-07  7.4318072742983767e-07  6.9179610067380786e-07  6.4104015359537401e-07  5.9091446416612834e-07  5.4141865625636747e-07  4.9255198652691797e-07  4.4431484964979635e-07  3.9671019425936056e-07  3.4974484328782555e-07  3.0343071318514319e-07  2.5778592700678217e-07  2.1283581652844248e-07  1.6861380851056755e-07  1.2516219026025563e-07  8.2532750561416834e-08  4.0787299427917491e-08  0.0000000000000000e+00  0.0000000000000000e+00  2.5229273293241984e-08  5.0141431325509157e-08  7.5058257152243083e-08  1.0027974335390531e-07  1.2608885330454361e-07  1.5275406868879414e-07  1.8053142688671049e-07  2.0966607474294895e-07  2.4039336315768442e-07  2.7293950204324326e-07  3.0752179154909231e-07  3.4434844308042562e-07  3.8361800250311448e-07  4.2551838805035271e-07  4.7022555684892598e-07  5.1790181668940157e-07  5.6869380368518488e-07  6.2273015178728376e-07  6.8011888669808142e-07  7.4094458446774856e-07  8.0526534381638825e-07  8.7310963079485545e-07  9.4447306449702341e-07  1.0193152228076161e-06  1.0975565571740966e-06  1.1790755146119089e-06  1.2637059730032639e-06  1.3512351015892254e-06  1.4414017617098990e-06  1.5338955626434689e-06  1.6283566831956714e-06  1.7243765609450514e-06  1.8214995373404045e-06  1.9192255279489155e-06  2.0170137630833057e-06  2.1142876150977060e-06  2.2104404954615538e-06  2.3048427682633092e-06  2.3968495883580035e-06  2.4858095335502582e-06  2.5710738628298044e-06  2.6520061987264705e-06  2.7279924033326002e-06  2.7984503963517440e-06  2.8628396513216009e-06  2.9206701041832876e-06  2.9715102173691555e-06  3.0149939626899543e-06  3.0508265169925699e-06  3.0787885046446483e-06  3.0987386685908095e-06  3.1106149047253217e-06  3.1144336499988371e-06  3.1102876702164911e-06  3.0983423461170965e-06  3.0788306034977617e-06  3.0520466727122489e-06  3.0183388932009365e-06  2.9781017988021782e-06  2.9317677290946815e-06  2.8797982112066730e-06  2.8226753462407931e-06  2.7608934160037947e-06  2.6949509007250049e-06  2.6253430687140967e-06  2.5525552663136348e-06  2.4770570028388430e-06  2.3992968920844223e-06  2.3196984807847256e-06  2.2386569662128067e-06  2.1565367806565107e-06  2.0736700002699716e-06  1.9903555199401394e-06  1.9068589242623295e-06  1.8234129772247006e-06  1.7402186493537056e-06  1.6574466003717664e-06  1.5752390373156547e-06  1.4937118719991198e-06  1.4129571071352155e-06  1.3330453868635614e-06  1.2540286544135496e-06  1.1759428668005981e-06  1.0988107234920264e-06  1.0226443726528674e-06  9.4744806471437922e-07  8.7322072848027538e-07  7.9995844972819953e-07  7.2765683624822359e-07  6.5631325649078294e-07  5.8592894150398262e-07  5.1651094167430888e-07  4.4807393101013267e-07  3.8064185240104627e-07  3.1424939754260008e-07  2.4894331516289578e-07  1.8478354100095222e-07  1.2184414276500207e-07  6.0214078441172006e-08  0.0000000000000000e+00  0.0000000000000000e+00  3.5096148822886102e-08  6.9754183031856425e-08  1.0442401116849241e-07  1.3952557452385533e-07  1.7545518820275811e-07  2.1258913775700054e-07  2.5128655989105487e-07  2.9189164446718090e-07  3.3473519115470831e-07  3.8013554729249388e-07  4.2839894835802287e-07  4.7981927893807204e-07  5.3467727032153568e-07  5.9323915083206368e-07  6.5575476683816892e-07  7.2245519606819406e-07  7.9354988044603389e-07  8.6922331314846079e-07  9.4963132391794919e-07  1.0348970177362587e-06  1.1251064345872326e-06  1.2203040119336976e-06  1.3204879463196478e-06  1.4256055656857893e-06  1.5355488389341133e-06  1.6501501632549301e-06  1.7691785818865403e-06  1.8923365943702710e-06  2.0192577269891058e-06  2.1495050319161988e-06  2.2825706786712492e-06  2.4178767899166067e-06  2.5547776547374152e-06  2.6925634259259926e-06  2.8304653733684558e-06  2.9676627237756107e-06  3.1032910685611841e-06  3.2364522680167043e-06  3.3662257229501478e-06  3.4916808270043296e-06  3.6118903566983455e-06  3.7259445048384879e-06  3.8329652193977249e-06  3.9321204772040660e-06  4.0226381023885465e-06  4.1038187355194365e-06  4.1750475719057575e-06  4.2358045169679808e-06  4.2856724521031474e-06  4.3243433643402951e-06  4.3516221645664545e-06  4.3674280986923732e-06  4.3717937397623268e-06  4.3648616323719754e-06  4.3468787395733319e-06  4.3181889128022597e-06  4.2792236639776238e-06  4.2304915633460379e-06  4.1725666154081041e-06  4.1060759779061075e-06  4.0316873859027797e-06  3.9500966258246717e-06  3.8620153750641052e-06  3.7681596838945788e-06  3.6692393308822201e-06  3.5659482335391822e-06  3.4589560453876920e-06  3.3489010213089214e-06  3.2363841870550876e-06  3.1219648076514711e-06  3.0061571141653592e-06  2.8894282195580395e-06  2.7721971322295723e-06  2.6548347602222791e-06  2.5376647893980300e-06  2.4209653145761289e-06  2.3049711028192672e-06  2.1898763719336932e-06  2.0758379739552881e-06  1.9629788821169189e-06  1.8513918898006919e-06  1.7411434406312197e-06  1.6322775196277773e-06  1.5248195457743906e-06  1.4187802161607888e-06  1.3141592607599371e-06  1.2109490747889858e-06  1.1091382023692718e-06  1.0087146508349330e-06  9.0966901956140889e-07  8.1199743065261063e-07  7.1570425132190126e-07  6.2080459942898313e-07  5.2732662450706180e-07  4.3531355685803726e-07  3.4482551703803891e-07  2.5594107740561622e-07  1.6875856635552696e-07  8.3397111265180930e-08  0.0000000000000000e+00  0.0000000000000000e+00  4.6943866262750676e-08  9.3306379003087647e-08  1.3969328208690311e-07  1.8667054296468558e-07  2.3477263212717244e-07  2.8450742225407803e-07  3.3636011882144576e-07  3.9079627271579992e-07  4.4826391897287038e-07  5.0919487632258792e-07  5.7400523495868805e-07  6.4309505492516537e-07  7.1684729480537438e-07  7.9562599010198636e-07  8.7977370289996724e-07  9.6960826919635116e-07  1.0654188777240308e-06  1.1674615242163259e-06  1.2759538978188402e-06  1.3910697716371111e-06  1.5129329869901201e-06  1.6416111404704051e-06  1.7771091038926681e-06  1.9193625289794956e-06  2.0682315103427448e-06  2.2234946009496432e-06  2.3848433926190408e-06  2.5518778888323106e-06  2.7241029068133901e-06  2.9009257489326560e-06  3.0816553785482435e-06  3.2655033210737999e-06  3.4515864862521854e-06  3.6389320715871823e-06  3.8264846594012633e-06  4.0131155614214596e-06  4.1976343962349391e-06  4.3788028082628592e-06  4.5553501547244366e-06  4.7259909027925251e-06  4.8894433967853448e-06  5.0444495792339453e-06  5.1897951846149867e-06  5.3243298749025836e-06  5.4469867558339506e-06  5.5568007050239306e-06  5.6529249597639578e-06  5.7346454540557628e-06  5.8013924601550098e-06  5.8527491770540643e-06  5.8884570128670263e-06  5.9084174247302201e-06  5.9126903024801558e-06  5.9014890044953674e-06  5.8751722692469814e-06  5.8342333284118170e-06  5.7792866319576514e-06  5.7110526588125598e-06  5.6303413264812777e-06  5.5380345287381105e-06  5.4350683232638603e-06  5.3224152630608899e-06  5.2010673199524341e-06  5.0720197894159088e-06  4.9362564977206689e-06  4.7947365591525737e-06  4.6483828570458357e-06  4.4980723509388099e-06  4.3446282463021181e-06  4.1888140050981952e-06  4.0313291263187858e-06  3.8728065863074014e-06  3.7138117991830617e-06  3.5548429376095385e-06  3.3963324426822445e-06  3.2386495477514157e-06  3.0821036433325412e-06  2.9269483175877682e-06  2.7733859179365068e-06  2.6215724929973268e-06  2.4716229892317152e-06  2.3236165924590390e-06  2.1776021201080282e-06  2.0336033850886447e-06  1.8916244660843870e-06  1.7516548315875578e-06  1.6136742759537018e-06  1.4776576350574329e-06  1.3435792567887711e-06  1.2114172076954914e-06  1.0811572016550610e-06  9.5279623968273018e-07  8.2634595200315283e-07  7.0183563449547561e-07  5.7931497173279869e-07  4.5885643823371599e-07  3.4055736835248451e-07  2.2454168354950748e-07  1.1096127187197086e-07  0.0000000000000000e+00  0.0000000000000000e+00  6.1139983951581411e-08  1.2152974432246296e-07  1.8196442904226350e-07  2.4318767117420457e-07  3.0590224851406319e-07  3.7077660197144339e-07  4.3845007602325949e-07  5.0953694792451247e-07  5.8462930261785418e-07  6.6429879732275959e-07  7.4909734970536507e-07  8.3955677639563108e-07  9.3618740454521793e-07  1.0394756782465355e-06  1.1498807841120215e-06  1.2678303262896489e-06  1.3937150907893854e-06  1.5278829522912180e-06  1.6706319935987545e-06  1.8222029284874994e-06  1.9827709426294003e-06  2.1524370941383662e-06  2.3312194444539889e-06  2.5190441209074030e-06  2.7157365432847409e-06  2.9210130766437866e-06  3.1344733999120639e-06  3.3555939025262453e-06  3.5837224375034248e-06  3.8180747666930839e-06  4.0577330303706412e-06  4.3016465567581448e-06  4.5486352957531222e-06  4.7973961138517905e-06  5.0465121233850628e-06  5.2944651390238564e-06  5.5396512593610596e-06  5.7803994636870073e-06  6.0149929974765347e-06  6.2416931993685384e-06  6.4587653033024127e-06  6.6645056384543610e-06  6.8572695535100413e-06  7.0354993173106389e-06  7.1977512010568870e-06  7.3427209328947600e-06  7.4692667369901208e-06  7.5764292271797677e-06  7.6634475186737240e-06  7.7297710463800420e-06  7.7750667292893856e-06  7.7992212891747991e-06  7.8023387095010907e-06  7.7847329971360211e-06  7.7469165755805979e-06  7.6895847852218373e-06  7.6135970863119919e-06  7.5199556487573220e-06  7.4097820664306584e-06  7.2842929520597638e-06  7.1447751534937327e-06  6.9925612869470906e-06  6.8290062127861036e-06  6.6554649906307417e-06  6.4732727494943044e-06  6.2837268017786272e-06  6.0880712230831317e-06  5.8874840180295422e-06  5.6830668996742723e-06  5.4758376294628012e-06  5.2667247978415585e-06  5.0565648733121104e-06  4.8461013097323070e-06  4.6359854771728632e-06  4.4267791692412628e-06  4.2189584377701788e-06  4.0129185122518622e-06  3.8089795744726377e-06  3.6073931766362181e-06  3.4083491121949992e-06  3.2119825711814492e-06  3.0183814348300719e-06  2.8275935867306033e-06  2.6396341389138131e-06  2.4544924906155279e-06  2.2721391546516150e-06  2.0925323011844203e-06  1.9156239811151342e-06  1.7413660014430600e-06  1.5697154328120666e-06  1.4006397352900586e-06  1.2341214924060824e-06  1.0701627458281155e-06  9.0878892403558570e-07  7.5005235815359428e-07  5.9403537698594556e-07  4.4085297140385299e-07  2.9065501581615363e-07  1.4362804112569054e-07  0.0000000000000000e+00  0.0000000000000000e+00  7.8116515326571500e-08  1.5528448330364380e-07  2.3252907107327327e-07  3.1080991688408818e-07  3.9103471441405911e-07  4.7406774631510858e-07  5.6073676142673724e-07  6.5183828183014788e-07  7.4814141184157251e-07  8.5039020347397621e-07  9.5930461904827050e-07  1.0755801215947725e-06  1.1998859176162940e-06  1.3328618748937851e-06  1.4751141405370410e-06  1.6272094916549607e-06  1.7896684630589031e-06  1.9629573134824561e-06  2.1474789139750038e-06  2.3435626693462856e-06  2.5514536155675595e-06  2