<?xml version="1.0"?>
<VTKFile type="UnstructuredGrid"  version="0.1"  >
<UnstructuredGrid>
<Piece  NumberOfPoints="10201" NumberOfCells="20000">
<Points>
<DataArray  type="Float64"  NumberOfComponents="3"  format="ascii">0 0 0  0.01 0 0  0.02 0 0  0.03 0 0  0.04 0 0  0.05 0 0  0.06 0 0  0.07000000000000001 0 0  0.08 0 0  0.09 0 0  0.1 0 0  0.11 0 0  0.12 0 0  0.13 0 0  0.14 0 0  0.15 0 0  0.16 0 0  0.17 0 0  0.18 0 0  0.19 0 0  0.2 0 0  0.21 0 0  0.22 0 0  0.23 0 0  0.24 0 0  0.25 0 0  0.26 0 0  0.27 0 0  0.28 0 0  0.29 0 0  0.3 0 0  0.31 0 0  0.32 0 0  0.33 0 0  0.34 0 0  0.35 0 0  0.36 0 0  0.37 0 0  0.38 0 0  0.39 0 0  0.4 0 0  0.41 0 0  0.42 0 0  0.43 0 0  0.44 0 0  0.45 0 0  0.46 0 0  0.47 0 0  0.48 0 0  0.49 0 0  0.5 0 0  0.51 0 0  0.52 0 0  0.53 0 0  0.54 0 0  0.55 0 0  0.5600000000000001 0 0  0.57 0 0  0.58 0 0  0.59 0 0  0.6 0 0  0.61 0 0  0.62 0 0  0.63 0 0  0.64 0 0  0.65 0 0  0.66 0 0  0.67 0 0  0.68 0 0  0.6899999999999999 0 0  0.7 0 0  0.71 0 0  0.72 0 0  0.73 0 0  0.74 0 0  0.75 0 0  0.76 0 0  0.77 0 0  0.78 0 0  0.79 0 0  0.8 0 0  0.8100000000000001 0 0  0.82 0 0  0.83 0 0  0.84 0 0  0.85 0 0  0.86 0 0  0.87 0 0  0.88 0 0  0.89 0 0  0.9 0 0  0.91 0 0  0.92 0 0  0.93 0 0  0.9399999999999999 0 0  0.95 0 0  0.96 0 0  0.97 0 0  0.98 0 0  0.99 0 0  1 0 0  0 0.01 0  0.01 0.01 0  0.02 0.01 0  0.03 0.01 0  0.04 0.01 0  0.05 0.01 0  0.06 0.01 0  0.07000000000000001 0.01 0  0.08 0.01 0  0.09 0.01 0  0.1 0.01 0  0.11 0.01 0  0.12 0.01 0  0.13 0.01 0  0.14 0.01 0  0.15 0.01 0  0.16 0.01 0  0.17 0.01 0  0.18 0.01 0  0.19 0.01 0  0.2 0.01 0  0.21 0.01 0  0.22 0.01 0  0.23 0.01 0  0.24 0.01 0  0.25 0.01 0  0.26 0.01 0  0.27 0.01 0  0.28 0.01 0  0.29 0.01 0  0.3 0.01 0  0.31 0.01 0  0.32 0.01 0  0.33 0.01 0  0.34 0.01 0  0.35 0.01 0  0.36 0.01 0  0.37 0.01 0  0.38 0.01 0  0.39 0.01 0  0.4 0.01 0  0.41 0.01 0  0.42 0.01 0  0.43 0.01 0  0.44 0.01 0  0.45 0.01 0  0.46 0.01 0  0.47 0.01 0  0.48 0.01 0  0.49 0.01 0  0.5 0.01 0  0.51 0.01 0  0.52 0.01 0  0.53 0.01 0  0.54 0.01 0  0.55 0.01 0  0.5600000000000001 0.01 0  0.57 0.01 0  0.58 0.01 0  0.59 0.01 0  0.6 0.01 0  0.61 0.01 0  0.62 0.01 0  0.63 0.01 0  0.64 0.01 0  0.65 0.01 0  0.66 0.01 0  0.67 0.01 0  0.68 0.01 0  0.6899999999999999 0.01 0  0.7 0.01 0  0.71 0.01 0  0.72 0.01 0  0.73 0.01 0  0.74 0.01 0  0.75 0.01 0  0.76 0.01 0  0.77 0.01 0  0.78 0.01 0  0.79 0.01 0  0.8 0.01 0  0.8100000000000001 0.01 0  0.82 0.01 0  0.83 0.01 0  0.84 0.01 0  0.85 0.01 0  0.86 0.01 0  0.87 0.01 0  0.88 0.01 0  0.89 0.01 0  0.9 0.01 0  0.91 0.01 0  0.92 0.01 0  0.93 0.01 0  0.9399999999999999 0.01 0  0.95 0.01 0  0.96 0.01 0  0.97 0.01 0  0.98 0.01 0  0.99 0.01 0  1 0.01 0  0 0.02 0  0.01 0.02 0  0.02 0.02 0  0.03 0.02 0  0.04 0.02 0  0.05 0.02 0  0.06 0.02 0  0.07000000000000001 0.02 0  0.08 0.02 0  0.09 0.02 0  0.1 0.02 0  0.11 0.02 0  0.12 0.02 0  0.13 0.02 0  0.14 0.02 0  0.15 0.02 0  0.16 0.02 0  0.17 0.02 0  0.18 0.02 0  0.19 0.02 0  0.2 0.02 0  0.21 0.02 0  0.22 0.02 0  0.23 0.02 0  0.24 0.02 0  0.25 0.02 0  0.26 0.02 0  0.27 0.02 0  0.28 0.02 0  0.29 0.02 0  0.3 0.02 0  0.31 0.02 0  0.32 0.02 0  0.33 0.02 0  0.34 0.02 0  0.35 0.02 0  0.36 0.02 0  0.37 0.02 0  0.38 0.02 0  0.39 0.02 0  0.4 0.02 0  0.41 0.02 0  0.42 0.02 0  0.43 0.02 0  0.44 0.02 0  0.45 0.02 0  0.46 0.02 0  0.47 0.02 0  0.48 0.02 0  0.49 0.02 0  0.5 0.02 0  0.51 0.02 0  0.52 0.02 0  0.53 0.02 0  0.54 0.02 0  0.55 0.02 0  0.5600000000000001 0.02 0  0.57 0.02 0  0.58 0.02 0  0.59 0.02 0  0.6 0.02 0  0.61 0.02 0  0.62 0.02 0  0.63 0.02 0  0.64 0.02 0  0.65 0.02 0  0.66 0.02 0  0.67 0.02 0  0.68 0.02 0  0.6899999999999999 0.02 0  0.7 0.02 0  0.71 0.02 0  0.72 0.02 0  0.73 0.02 0  0.74 0.02 0  0.75 0.02 0  0.76 0.02 0  0.77 0.02 0  0.78 0.02 0  0.79 0.02 0  0.8 0.02 0  0.8100000000000001 0.02 0  0.82 0.02 0  0.83 0.02 0  0.84 0.02 0  0.85 0.02 0  0.86 0.02 0  0.87 0.02 0  0.88 0.02 0  0.89 0.02 0  0.9 0.02 0  0.91 0.02 0  0.92 0.02 0  0.93 0.02 0  0.9399999999999999 0.02 0  0.95 0.02 0  0.96 0.02 0  0.97 0.02 0  0.98 0.02 0  0.99 0.02 0  1 0.02 0  0 0.03 0  0.01 0.03 0  0.02 0.03 0  0.03 0.03 0  0.04 0.03 0  0.05 0.03 0  0.06 0.03 0  0.07000000000000001 0.03 0  0.08 0.03 0  0.09 0.03 0  0.1 0.03 0  0.11 0.03 0  0.12 0.03 0  0.13 0.03 0  0.14 0.03 0  0.15 0.03 0  0.16 0.03 0  0.17 0.03 0  0.18 0.03 0  0.19 0.03 0  0.2 0.03 0  0.21 0.03 0  0.22 0.03 0  0.23 0.03 0  0.24 0.03 0  0.25 0.03 0  0.26 0.03 0  0.27 0.03 0  0.28 0.03 0  0.29 0.03 0  0.3 0.03 0  0.31 0.03 0  0.32 0.03 0  0.33 0.03 0  0.34 0.03 0  0.35 0.03 0  0.36 0.03 0  0.37 0.03 0  0.38 0.03 0  0.39 0.03 0  0.4 0.03 0  0.41 0.03 0  0.42 0.03 0  0.43 0.03 0  0.44 0.03 0  0.45 0.03 0  0.46 0.03 0  0.47 0.03 0  0.48 0.03 0  0.49 0.03 0  0.5 0.03 0  0.51 0.03 0  0.52 0.03 0  0.53 0.03 0  0.54 0.03 0  0.55 0.03 0  0.5600000000000001 0.03 0  0.57 0.03 0  0.58 0.03 0  0.59 0.03 0  0.6 0.03 0  0.61 0.03 0  0.62 0.03 0  0.63 0.03 0  0.64 0.03 0  0.65 0.03 0  0.66 0.03 0  0.67 0.03 0  0.68 0.03 0  0.6899999999999999 0.03 0  0.7 0.03 0  0.71 0.03 0  0.72 0.03 0  0.73 0.03 0  0.74 0.03 0  0.75 0.03 0  0.76 0.03 0  0.77 0.03 0  0.78 0.03 0  0.79 0.03 0  0.8 0.03 0  0.8100000000000001 0.03 0  0.82 0.03 0  0.83 0.03 0  0.84 0.03 0  0.85 0.03 0  0.86 0.03 0  0.87 0.03 0  0.88 0.03 0  0.89 0.03 0  0.9 0.03 0  0.91 0.03 0  0.92 0.03 0  0.93 0.03 0  0.9399999999999999 0.03 0  0.95 0.03 0  0.96 0.03 0  0.97 0.03 0  0.98 0.03 0  0.99 0.03 0  1 0.03 0  0 0.04 0  0.01 0.04 0  0.02 0.04 0  0.03 0.04 0  0.04 0.04 0  0.05 0.04 0  0.06 0.04 0  0.07000000000000001 0.04 0  0.08 0.04 0  0.09 0.04 0  0.1 0.04 0  0.11 0.04 0  0.12 0.04 0  0.13 0.04 0  0.14 0.04 0  0.15 0.04 0  0.16 0.04 0  0.17 0.04 0  0.18 0.04 0  0.19 0.04 0  0.2 0.04 0  0.21 0.04 0  0.22 0.04 0  0.23 0.04 0  0.24 0.04 0  0.25 0.04 0  0.26 0.04 0  0.27 0.04 0  0.28 0.04 0  0.29 0.04 0  0.3 0.04 0  0.31 0.04 0  0.32 0.04 0  0.33 0.04 0  0.34 0.04 0  0.35 0.04 0  0.36 0.04 0  0.37 0.04 0  0.38 0.04 0  0.39 0.04 0  0.4 0.04 0  0.41 0.04 0  0.42 0.04 0  0.43 0.04 0  0.44 0.04 0  0.45 0.04 0  0.46 0.04 0  0.47 0.04 0  0.48 0.04 0  0.49 0.04 0  0.5 0.04 0  0.51 0.04 0  0.52 0.04 0  0.53 0.04 0  0.54 0.04 0  0.55 0.04 0  0.5600000000000001 0.04 0  0.57 0.04 0  0.58 0.04 0  0.59 0.04 0  0.6 0.04 0  0.61 0.04 0  0.62 0.04 0  0.63 0.04 0  0.64 0.04 0  0.65 0.04 0  0.66 0.04 0  0.67 0.04 0  0.68 0.04 0  0.6899999999999999 0.04 0  0.7 0.04 0  0.71 0.04 0  0.72 0.04 0  0.73 0.04 0  0.74 0.04 0  0.75 0.04 0  0.76 0.04 0  0.77 0.04 0  0.78 0.04 0  0.79 0.04 0  0.8 0.04 0  0.8100000000000001 0.04 0  0.82 0.04 0  0.83 0.04 0  0.84 0.04 0  0.85 0.04 0  0.86 0.04 0  0.87 0.04 0  0.88 0.04 0  0.89 0.04 0  0.9 0.04 0  0.91 0.04 0  0.92 0.04 0  0.93 0.04 0  0.9399999999999999 0.04 0  0.95 0.04 0  0.96 0.04 0  0.97 0.04 0  0.98 0.04 0  0.99 0.04 0  1 0.04 0  0 0.05 0  0.01 0.05 0  0.02 0.05 0  0.03 0.05 0  0.04 0.05 0  0.05 0.05 0  0.06 0.05 0  0.07000000000000001 0.05 0  0.08 0.05 0  0.09 0.05 0  0.1 0.05 0  0.11 0.05 0  0.12 0.05 0  0.13 0.05 0  0.14 0.05 0  0.15 0.05 0  0.16 0.05 0  0.17 0.05 0  0.18 0.05 0  0.19 0.05 0  0.2 0.05 0  0.21 0.05 0  0.22 0.05 0  0.23 0.05 0  0.24 0.05 0  0.25 0.05 0  0.26 0.05 0  0.27 0.05 0  0.28 0.05 0  0.29 0.05 0  0.3 0.05 0  0.31 0.05 0  0.32 0.05 0  0.33 0.05 0  0.34 0.05 0  0.35 0.05 0  0.36 0.05 0  0.37 0.05 0  0.38 0.05 0  0.39 0.05 0  0.4 0.05 0  0.41 0.05 0  0.42 0.05 0  0.43 0.05 0  0.44 0.05 0  0.45 0.05 0  0.46 0.05 0  0.47 0.05 0  0.48 0.05 0  0.49 0.05 0  0.5 0.05 0  0.51 0.05 0  0.52 0.05 0  0.53 0.05 0  0.54 0.05 0  0.55 0.05 0  0.5600000000000001 0.05 0  0.57 0.05 0  0.58 0.05 0  0.59 0.05 0  0.6 0.05 0  0.61 0.05 0  0.62 0.05 0  0.63 0.05 0  0.64 0.05 0  0.65 0.05 0  0.66 0.05 0  0.67 0.05 0  0.68 0.05 0  0.6899999999999999 0.05 0  0.7 0.05 0  0.71 0.05 0  0.72 0.05 0  0.73 0.05 0  0.74 0.05 0  0.75 0.05 0  0.76 0.05 0  0.77 0.05 0  0.78 0.05 0  0.79 0.05 0  0.8 0.05 0  0.8100000000000001 0.05 0  0.82 0.05 0  0.83 0.05 0  0.84 0.05 0  0.85 0.05 0  0.86 0.05 0  0.87 0.05 0  0.88 0.05 0  0.89 0.05 0  0.9 0.05 0  0.91 0.05 0  0.92 0.05 0  0.93 0.05 0  0.9399999999999999 0.05 0  0.95 0.05 0  0.96 0.05 0  0.97 0.05 0  0.98 0.05 0  0.99 0.05 0  1 0.05 0  0 0.06 0  0.01 0.06 0  0.02 0.06 0  0.03 0.06 0  0.04 0.06 0  0.05 0.06 0  0.06 0.06 0  0.07000000000000001 0.06 0  0.08 0.06 0  0.09 0.06 0  0.1 0.06 0  0.11 0.06 0  0.12 0.06 0  0.13 0.06 0  0.14 0.06 0  0.15 0.06 0  0.16 0.06 0  0.17 0.06 0  0.18 0.06 0  0.19 0.06 0  0.2 0.06 0  0.21 0.06 0  0.22 0.06 0  0.23 0.06 0  0.24 0.06 0  0.25 0.06 0  0.26 0.06 0  0.27 0.06 0  0.28 0.06 0  0.29 0.06 0  0.3 0.06 0  0.31 0.06 0  0.32 0.06 0  0.33 0.06 0  0.34 0.06 0  0.35 0.06 0  0.36 0.06 0  0.37 0.06 0  0.38 0.06 0  0.39 0.06 0  0.4 0.06 0  0.41 0.06 0  0.42 0.06 0  0.43 0.06 0  0.44 0.06 0  0.45 0.06 0  0.46 0.06 0  0.47 0.06 0  0.48 0.06 0  0.49 0.06 0  0.5 0.06 0  0.51 0.06 0  0.52 0.06 0  0.53 0.06 0  0.54 0.06 0  0.55 0.06 0  0.5600000000000001 0.06 0  0.57 0.06 0  0.58 0.06 0  0.59 0.06 0  0.6 0.06 0  0.61 0.06 0  0.62 0.06 0  0.63 0.06 0  0.64 0.06 0  0.65 0.06 0  0.66 0.06 0  0.67 0.06 0  0.68 0.06 0  0.6899999999999999 0.06 0  0.7 0.06 0  0.71 0.06 0  0.72 0.06 0  0.73 0.06 0  0.74 0.06 0  0.75 0.06 0  0.76 0.06 0  0.77 0.06 0  0.78 0.06 0  0.79 0.06 0  0.8 0.06 0  0.8100000000000001 0.06 0  0.82 0.06 0  0.83 0.06 0  0.84 0.06 0  0.85 0.06 0  0.86 0.06 0  0.87 0.06 0  0.88 0.06 0  0.89 0.06 0  0.9 0.06 0  0.91 0.06 0  0.92 0.06 0  0.93 0.06 0  0.9399999999999999 0.06 0  0.95 0.06 0  0.96 0.06 0  0.97 0.06 0  0.98 0.06 0  0.99 0.06 0  1 0.06 0  0 0.07000000000000001 0  0.01 0.07000000000000001 0  0.02 0.07000000000000001 0  0.03 0.07000000000000001 0  0.04 0.07000000000000001 0  0.05 0.07000000000000001 0  0.06 0.07000000000000001 0  0.07000000000000001 0.07000000000000001 0  0.08 0.07000000000000001 0  0.09 0.07000000000000001 0  0.1 0.07000000000000001 0  0.11 0.07000000000000001 0  0.12 0.07000000000000001 0  0.13 0.07000000000000001 0  0.14 0.07000000000000001 0  0.15 0.07000000000000001 0  0.16 0.07000000000000001 0  0.17 0.0700
[...]
<PointData  Scalars="u"> 
<DataArray  type="Float64"  Name="u"  format="ascii">0.0000000000000000e+00  0.0000000000000000e+00  0.0000000000000000e+00  0.0000000000000000e+00  0.0000000000000000e+00  0.0000000000000000e+00  0.0000000000000000e+00  0.0000000000000000e+00  0.0000000000000000e+00  0.0000000000000000e+00  0.0000000000000000e+00  0.0000000000000000e+00  0.0000000000000000e+00  0.0000000000000000e+00  0.0000000000000000e+00  0.0000000000000000e+00  0.0000000000000000e+00  0.0000000000000000e+00  0.0000000000000000e+00  0.0000000000000000e+00  0.0000000000000000e+00  0.0000000000000000e+00  0.0000000000000000e+00  0.0000000000000000e+00  0.0000000000000000e+00  0.0000000000000000e+00  0.0000000000000000e+00  0.0000000000000000e+00  0.0000000000000000e+00  0.0000000000000000e+00  0.0000000000000000e+00  0.0000000000000000e+00  0.0000000000000000e+00  0.0000000000000000e+00  0.0000000000000000e+00  0.0000000000000000e+00  0.0000000000000000e+00  0.0000000000000000e+00  0.0000000000000000e+00  0.0000000000000000e+00  0.0000000000000000e+00  0.0000000000000000e+00  0.0000000000000000e+00  0.0000000000000000e+00  0.0000000000000000e+00  0.0000000000000000e+00  0.0000000000000000e+00  0.0000000000000000e+00  0.0000000000000000e+00  0.0000000000000000e+00  0.0000000000000000e+00  0.0000000000000000e+00  0.0000000000000000e+00  0.0000000000000000e+00  0.0000000000000000e+00  0.0000000000000000e+00  0.0000000000000000e+00  0.0000000000000000e+00  0.0000000000000000e+00  0.0000000000000000e+00  0.0000000000000000e+00  0.0000000000000000e+00  0.0000000000000000e+00  0.0000000000000000e+00  0.0000000000000000e+00  0.0000000000000000e+00  0.0000000000000000e+00  0.0000000000000000e+00  0.0000000000000000e+00  0.0000000000000000e+00  0.0000000000000000e+00  0.0000000000000000e+00  0.0000000000000000e+00  0.0000000000000000e+00  0.0000000000000000e+00  0.0000000000000000e+00  0.0000000000000000e+00  0.0000000000000000e+00  0.0000000000000000e+00  0.0000000000000000e+00  0.0000000000000000e+00  0.0000000000000000e+00  0.0000000000000000e+00  0.0000000000000000e+00  0.0000000000000000e+00  0.0000000000000000e+00  0.0000000000000000e+00  0.0000000000000000e+00  0.0000000000000000e+00  0.0000000000000000e+00  0.0000000000000000e+00  0.0000000000000000e+00  0.0000000000000000e+00  0.0000000000000000e+00  0.0000000000000000e+00  0.0000000000000000e+00  0.0000000000000000e+00  0.0000000000000000e+00  0.0000000000000000e+00  0.0000000000000000e+00  0.0000000000000000e+00  0.0000000000000000e+00  4.3028560491692393e-15  8.8372297607344471e-15  1.4248443521577866e-14  2.1222540998563544e-14  3.0573147428456539e-14  4.3325622944009659e-14  6.0812266652205979e-14  8.4785680884884216e-14  1.1755729875173979e-13  1.6216819515304455e-13  2.2259950064519827e-13  3.0402984512254066e-13  4.1314708224983421e-13  5.5852086974907052e-13  7.5104126149397230e-13  1.0044260376174105e-12  1.3357957795515892e-12  1.7663104199567905e-12  2.3218539398136865e-12  3.0337449154165092e-12  3.9394397557900045e-12  5.0831829526112507e-12  6.5165450132150791e-12  8.2987748350840790e-12  1.0496880371613585e-11  1.3185341196977551e-11  1.6445351018676889e-11  2.0363489564211345e-11  2.5029733881117087e-11  3.0534741001185486e-11  3.6966368610686993e-11  4.4405448343187026e-11  5.2920886707061707e-11  6.2564238920070971e-11  7.3363976613041699e-11  8.5319745197769925e-11  9.8396972838866711e-11  1.1252224166195144e-10  1.2757985428648640e-10  1.4341001732237129e-10  1.5980901280222906e-10  1.7653163684218784e-10  1.9329605474435489e-10  2.0979106070349912e-10  2.2568555029420049e-10  2.4063983073038422e-10  2.5431822539216494e-10  2.6640229329624494e-10  2.7660389687751882e-10  2.8467732416851445e-10  2.9042970971124169e-10  2.9372910083929178e-10  2.9450967384295056e-10  2.9277380340363541e-10  2.8859090964497129e-10  2.8209322926451310e-10  2.7346886006296724e-10  2.6295259423907949e-10  2.5081517228580853e-10  2.3735164931989098e-10  2.2286956851385981e-10  2.0767758698706363e-10  1.9207510760904796e-10  1.7634334821451738e-10  1.6073814152317218e-10  1.4548461803125514e-10  1.3077379202170147e-10  1.1676095672519056e-10  1.0356570455778765e-10  9.1273325128403051e-11  7.9937297389402040e-11  6.9582580655417033e-11  6.0209418391391252e-11  5.1797393909352036e-11  4.4309513367411226e-11  3.7696133913444254e-11  3.1898599233395976e-11  2.6852487738979731e-11  2.2490417654971406e-11  1.8744386723390410e-11  1.5547651306845089e-11  1.2836170179184084e-11  1.0549652569973069e-11  8.6322587532972392e-12  7.0330055138884897e-12  5.7059291399782881e-12  4.6100561314893838e-12  3.7092274565692464e-12  2.9718167220547825e-12  2.3703767196429836e-12  1.8812430508002568e-12  1.4841184411887484e-12  1.1616574447136808e-12  8.9906909167617198e-13  6.8375540395121952e-13  5.0500761406162776e-13  3.5379081254612260e-13  2.2266343748522843e-13  1.0590200545096557e-13  0.0000000000000000e+00  0.0000000000000000e+00  8.4903535750901121e-15  1.7454437701551484e-14  2.8170561065460279e-14  4.2009063621672174e-14  6.0599355035103917e-14  8.6000416291424316e-14  1.2089432469015061e-13  1.6881761264312730e-13  2.3444503334326524e-13  3.2394067454071167e-13  4.4539192987893434e-13  6.0934223980213118e-13  8.2943835270878053e-13  1.1232066788649549e-12  1.5129705979352816e-12  2.0269157607785644e-12  2.7003028873021735e-12  3.5768167050681508e-12  4.7100249801957151e-12  6.1649027261154499e-12  8.0193536071479264e-12  1.0365633707095504e-11  1.3311553242604140e-11  1.6981301256835813e-11  2.1515709482646596e-11  2.7071747962419945e-11  3.3821031015837607e-11  4.1947112705343870e-11  5.1641371188881993e-11  6.3097325980929417e-11  7.6503304694759092e-11  9.2033477781289009e-11  1.0983740963316129e-10  1.3002842699169960e-10  1.5267127149562040e-10  1.7776966886572597e-10  2.0525459546532682e-10  2.3497413437112346e-10  2.6668586791073998e-10  3.0005273440366941e-10  3.3464317117371170e-10  3.6993616910743827e-10  4.0533158125274771e-10  4.4016567516582320e-10  4.7373152236904654e-10  5.0530341332269508e-10  5.3416411271981509e-10  5.5963346809041086e-10  5.8109669032357964e-10  5.9803056380584328e-10  6.1002592889123343e-10  6.1680500705529892e-10  6.1823249017537570e-10  6.1431975701081222e-10  6.0522206948634578e-10  5.9122909174531388e-10  5.7274952043349190e-10  5.5029097633674938e-10  5.2443655731318614e-10  4.9581957586905955e-10  4.6509800118119071e-10  4.3293000707204317e-10  3.9995181662763008e-10  3.6675875942959894e-10  3.3389014981938379e-10  3.0181828408032365e-10  2.7094156660459363e-10  2.4158152955283169e-10  2.1398331968836715e-10  1.8831909540998768e-10  1.6469370571920039e-10  1.4315200522363893e-10  1.2368718622073354e-10  1.0624956955137457e-10  9.0755378982805998e-11  7.7095118792416212e-11  6.5141271864981123e-11  5.4755128772942010e-11  4.5792641817016111e-11  3.8109268661165123e-11  3.1563826523536126e-11  2.6021419799210724e-11  2.1355532439463728e-11  1.7449393026367720e-11  1.4196727266184313e-11  1.1502011710354368e-11  9.2803359698631633e-12  7.4569704082153964e-12  5.9667239294165375e-12  4.7531634176647306e-12  3.7677538156962846e-12  2.9689667891272175e-12  2.3213974309336892e-12  1.7949236664031312e-12  1.3639434264830146e-12  1.0067323889879209e-12  7.0498321510073958e-13  4.4362012187586550e-13  2.1103649313533132e-13  0.0000000000000000e+00  0.0000000000000000e+00  1.3138175126170693e-14  2.7036787644666171e-14  4.3698971722694940e-14  6.5282855621669003e-14  9.4365719788443554e-14  1.3421790049425128e-13  1.8911583162715753e-13  2.6471859097713832e-13  3.6853232204311529e-13  5.1048786156148984e-13  7.0365823819459861e-13  9.6514382650681778e-13  1.3171531826570051e-12  1.7883061894131707e-12  2.4151822090952586e-12  3.2441284744306212e-12  4.3333318435138841e-12  5.7551391971310678e-12  7.5985871610250819e-12  9.9720697641465412e-12  1.3006032865806759e-11  1.6855537232269873e-11  2.1702479602581566e-11  2.7757205875757794e-11  3.5259197158578632e-11  4.4476463981620395e-11  5.5703254243135178e-11  6.9255675318187759e-11  8.5464859752602307e-11  1.0466737602157795e-10  1.2719270806345456e-10  1.5334780328826980e-10  1.8339891689690039e-10  2.1755125230142352e-10  2.5592719714193816e-10  2.9854425784694419e-10  3.4529407188664547e-10  3.9592409009419487e-10  4.5002363481949696e-10  5.0701601994026962e-10  5.6615824145654766e-10  6.2654940213321090e-10  6.8714852818071004e-10  7.4680179838325326e-10  8.0427848440020111e-10  8.5831415958442253e-10  9.0765904695750031e-10  9.5112882060479343e-10  9.8765481580370589e-10  1.0163304907700206e-09  1.0364511405517971e-09  1.0475442850494481e-09  1.0493888021249534e-09  1.0420216910890763e-09  1.0257322511624332e-09  1.0010443554954865e-09  9.6868830885130712e-10  9.2956442432136666e-10  8.8470089092144052e-10  8.3520870481319023e-10  7.8223640392272091e-10  7.2692710431368072e-10  6.7037993047943783e-10  6.1361741550644997e-10  5.5755987914481733e-10  5.0300722720359245e-10  4.5062810067445152e-10  4.0095587175171892e-10  3.5439065709561268e-10  3.1120630378797907e-10  2.7156119664184023e-10  2.3551172438647474e-10  2.0302730867951051e-10  1.7400602314183468e-10  1.4828998877350476e-10  1.2567990808957820e-10  1.0594827708996482e-10  8.8850979451324733e-11  7.4137112658215274e-11  6.1557016311338376e-11  5.0868566748484498e-11  4.1841869962373287e-11  3.4262528871966063e-11  2.7933684630437799e-11  2.2677038675190927e-11  1.8333056567181376e-11  1.4760540030944669e-11  1.1835733286537730e-11  9.4511065600409865e-12  7.5139358794445333e-12  5.9447758027362772e-12  4.6759022077783274e-12  3.6497872563973074e-12  2.8176598989279673e-12  2.1382051657646404e-12  1.5764674316357323e-12  1.1030519968886631e-12  6.9377344601771328e-13  3.2998964039278675e-13  0.0000000000000000e+00  0.0000000000000000e+00  1.8766959750408490e-14  3.8666465577743779e-14  6.2608504176921649e-14  9.3744324627187009e-14  1.3585747902566584e-13  1.9377390168180358e-13  2.7383438638299953e-13  3.8446717726730757e-13  5.3689898327341210e-13  7.4604487037612652e-13  1.0316203122255202e-12  1.4195212902820075e-12  1.9435197065603557e-12  2.6473202934102340e-12  3.5870202339075351e-12  4.8340021684927554e-12  6.4782732936400279e-12  8.6322359080000644e-12  1.1434836182212770e-11  1.5055986645936552e-11  1.9701093167407612e-11  2.5615439512014716e-11  3.3088094083301925e-11  4.2454908581951943e-11  5.4100084157343236e-11  6.8455697214237626e-11  8.5998517322960667e-11  1.0724342902767008e-10  1.3273280446433761e-10  1.6302128093225244e-10  1.9865559053605935e-10  2.4014937577690080e-10  2.8795330490127621e-10  3.4242126174512576e-10  4.0377390090554935e-10  4.7206139012254651e-10  5.4712765444107028e-10  6.2857882829964409e-10  7.1575884614163006e-10  8.0773509850704026e-10  9.0329680253877828e-10  1.0009681613789367e-09  1.0990375261505503e-09  1.1956026739208458e-09  1.2886310584316183e-09  1.3760325911682537e-09  1.4557413013075796e-09  1.5258012403159660e-09  1.5844513617998889e-09  1.6302039087259639e-09  1.6619111211266185e-09  1.6788158264079331e-09  1.6805826252584263e-09  1.6673078257758824e-09  1.6395078610827460e-09  1.5980874921563335e-09  1.5442904955817163e-09  1.4796366388313743e-09  1.4058494666693384e-09  1.3247797220473810e-09  1.2383291122208217e-09  1.1483786568756962e-09  1.0567251025082445e-09  9.6502795690887624e-10  8.7476869433907984e-10  7.8722270266282749e-10  7.0344366763959040e-10  6.2425937308239938e-10  5.5027737005140561e-10  4.8189864171460448e-10  4.1933725144140484e-10  3.6264398426675962e-10  3.1173214157361794e-10  2.6640388780564032e-10  2.2637583935053278e-10  1.9130289672565052e-10  1.6079962529527095e-10  1.3445876737436360e-10  1.1186670705153416e-10  9.2615901904519691e-11  7.6314441578384696e-11  6.2592994363269288e-11  5.1109464431928486e-11  4.1551710723171439e-11  3.3638680577856615e-11  2.7120294003398350e-11  2.1776384115693918e-11  1.7414961280038357e-11  1.3870027191660413e-11  1.0999124146281137e-11  8.6807668510251977e-12  6.8118716228940182e-12  5.3052728746591924e-12  4.0874018599072141e-12  3.0962011049057157e-12  2.2793648633806053e-12  1.5930391625231917e-12  1.0011967663286884e-12  4.7604137635215621e-13  0.0000000000000000e+00  0.0000000000000000e+00  2.5914582360643034e-14  5.3465300218419718e-14  8.6749406886171141e-14  1.3022828794158042e-13  1.8929107492904519e-13  2.7085182984101183e-13  3.8404376582574554e-13  5.4106752661811716e-13  7.5825241078328772e-13  1.0573937700638673e-12  1.4674353769856533e-12  2.0265710226713481e-12  2.7848434311250919e-12  3.8073188888933653e-12  5.1779105074587070e-12  7.0039090429583654e-12  9.4212545879285530e-12  1.2600541873824065e-11  1.6753693062749795e-11  2.2141151901580064e-11  2.9079350154519284e-11  3.7948071328534051e-11  4.9197190571803082e-11  6.3352109617528302e-11  8.1017042638246506e-11  1.0287515886940068e-10  1.2968447210818967e-10  1.6226831158832062e-10  2.0149924221698766e-10  2.4827545398783669e-10  3.0348893617803585e-10  3.6798520874777041e-10  4.4251500412688250e-10  5.2767906074369341e-10  6.2386806493567606e-10  7.3120069430124188e-10  8.4946358290821401e-10  9.7805773841007666e-10  1.1159563762863246e-09  1.2616791867811059e-09  1.4132876289651383e-09  1.5684049082437550e-09  1.7242628493868975e-09  1.8777760029983979e-09  2.0256411614850128e-09  2.1644582094809560e-09  2.2908661279783634e-09  2.4016862535880347e-09  2.4940637818720068e-09  2.5655981568248213e-09  2.6144534844776432e-09  2.6394414264115123e-09  2.6400710491687859e-09  2.6165626240476119e-09  2.5698251266946202e-09  2.5013998927779854e-09  2.4133752752720783e-09  2.3082789998305941e-09  2.1889560806234971e-09  2.0584405799523439e-09  1.9198291975866676e-09  1.7761637612013431e-09  1.6303283123921484e-09  1.4849648268777020e-09  1.3424098591990786e-09  1.2046527293651578e-09  1.0733144048160704e-09  9.4964506592538284e-10  8.3453752217828265e-10  7.2855317328247610e-10  6.3195705589045411e-10  5.4475863044098300e-10  4.6675527932232113e-10  3.9757593922709649e-10  3.3672281334702997e-10  2.8360964819675610e-10  2.3759557253745067e-10  1.9801395203676237e-10  1.6419609499427830e-10  1.3548994415208029e-10  1.1127410799574624e-10  9.0967728615039628e-11  7.4036762401879033e-11  5.9997276684924899e-11  4.8416352232253530e-11  3.8911140070284784e-11  3.1146561561725625e-11  2.4832071748143304e-11  1.9717834428209594e-11  1.5590588542522992e-11  1.2269423110298146e-11  9.6016252986986582e-12  7.4587259967059040e-12  5.7328427244574628e-12  4.3334153852392698e-12  3.1844533806614884e-12  2.2224743600807706e-12  1.3954334672213206e-12  6.6314571122510698e-13  0.0000000000000000e+00  0.0000000000000000e+00  3.5189737450736216e-14  7.2707492769593082e-14  1.1823515271489683e-13  1.7799556548911624e-13  2.5955456223100267e-13  3.7267939745186597e-13  5.3034610827238251e-13  7.4998109657318583e-13  1.0550265359422416e-12  1.4769274501137811e-12  2.0576487196779639e-12  2.8528409399014648e-12  3.9357826944621090e-12  5.4022305812242583e-12  7.3763036667538147e-12  1.0017511607579257e-11  1.3529000354470568e-11  1.8167030479322477e-11  2.4251614885968027e-11  3.2178119615892213e-11  4.2429469689423148e-11  5.5588400158772297e-11  7.2348953709140941e-11  9.3526159011732366e-11  1.2006254489032698e-10  1.5302987928616368e-10  1.9362430342491718e-10  2.4315290366629611e-10  3.0300977587019830e-10  3.7463984152445791e-10  4.5948911881380759e-10  5.5894086994681734e-10  6.7423805048236245e-10  8.0639375666005225e-10  9.5609284150400956e-10  1.1235894428406706e-09  1.3086066850482907e-09  1.5102460943813151e-09  1.7269150996724207e-09  1.9562811773365968e-09  2.1952605804592352e-09  2.4400480745026737e-09  2.6861916928724580e-09  2.9287133465778204e-09  3.1622724151317010e-09  3.3813655558095584e-09  3.5805523090962685e-09  3.7546930809579236e-09  3.8991841367820358e-09  4.0101736355946322e-09  4.0847436055448688e-09  4.1210450749854921e-09  4.1183771120345088e-09  4.0772049215889539e-09  3.9991169323843972e-09  3.8867254703737336e-09  3.7435196823479552e-09  3.5736824620645901e-09  3.3818849940489730e-09  3.1730730799467785e-09  2.9522587162652258e-09  2.7243286484280572e-09  2.4938791227357864e-09  2.2650831271024180e-09  2.0415933829639978e-09  1.8264815133811361e-09  1.6222113876770960e-09  1.4306427722377271e-09  1.2530601608707688e-09  1.0902210057470853e-09  9.4241745575959900e-10  8.0954603144225677e-10  6.9118030539430966e-10  5.8664249429016240e-10  4.9507079389802560e-10  4.1548021183395046e-10  3.4681550640236932e-10  2.8799557913567908e-10  2.3794926971153782e-10  1.9564295822132251e-10  1.6010069771787061e-10  1.3041779477618310e-10  1.0576884760583275e-10  8.5411262058661475e-11  6.8685217213834443e-11  5.5010963610177326e-11  4.3884225251663224e-11  3.4870354625623092e-11  2.7597768388032359e-11  2.1751077564217796e-11  1.7064225391075167e-11  1.3313862170061048e-11  1.0313123069094708e-11  7.9059356372698160e-12  5.9619747612665883e-12  4.3724135647993250e-12  3.0467053319130499e-12  1.9107998834967821e-12  9.0748918928096655e-13  0.0000000000000000e+00  0.0000000000000000e+00  4.7319762245792971e-14  9.7920754816028484e-14  1.5961275059301402e-13  2.4100076886929871e-13  3.5261776333927630e-13  5.0814934592080429e-13  7.2588491046363183e-13  1.0305219923317208e-12  1.4554593807462704e-12  2.0457294534932533e-12  2.8617389485903773e-12  3.9840072172394368e-12  5.5191085929949482e-12  7.6070365920460594e-12  1.0430206738709542e-11  1.4224295006311100e-11  1.9291061884043254e-11  2.6013228438399955e-11  3.4871340295764163e-11  4.6462368410259402e-11  6.1519543771734837e-11  8.0932602649674169e-11  1.0576723173079566e-10  1.3728206006304206e-10  1.7694107084510476e-10  2.2641883948956784e-10  2.8759560018604777e-10  3.6253887267257998e-10  4.5346832842492884e-10  5.6270083182442626e-10  6.9257324387115044e-10  8.4534169210700498e-10  1.0230576234412822e-09  1.2274230456005378e-09  1.4596298371007094e-09  1.7201906937901091e-09  2.0087719300607990e-09  2.3240406445527075e-09  2.6635403333812121e-09  3.0236095315820965e-09  3.3993571862535392e-09  3.7847060299719327e-09  4.1725112174684970e-09  4.5547561055898013e-09  4.9228207051216736e-09  5.2678116125475994e-09  5.5809358693286565e-09  5.8538959635331568e-09  6.0792797811998755e-09  6.2509182515388947e-09  6.3641849622532574e-09  6.4162160811806166e-09  6.4060351186457289e-09  6.3345747385871883e-09  6.2045961316065210e-09  6.0205144939866920e-09  5.7881460726699680e-09  5.5143973724555307e-09  5.2069200678148193e-09  4.8737557960487189e-09  4.5229934871293027e-09  4.1624585923365357e-09  3.7994490438897738e-09  3.4405276103665976e-09  3.0913750879023386e-09  2.7567039790484583e-09  2.4402283240904358e-09  2.1446823797496289e-09  1.8718789597957872e-09  1.6227974111350565e-09  1.3976912570006878e-09  1.1962063007063996e-09  1.0175012324336286e-09  8.6036430740486464e-10  7.2332128230418672e-10  6.0473136137755867e-10  5.0286930971275457e-10  4.1599307480880943e-10  3.4239719011571277e-10  2.8045291520440321e-10  2.2863651611875199e-10  1.8554733828602347e-10  1.4991741122406516e-10  1.2061428835700917e-10  9.6638703246686529e-11  7.7118447523814181e-11  6.1299672109542419e-11  4.8536602396860602e-11  3.8280454873148570e-11  3.0068157521725633e-11  2.3511315998168769e-11  1.8285736506600882e-11  1.4121718117507532e-11  1.0795266391507306e-11  8.1203638643958913e-12  5.9424739850580858e-12  4.1335754750673406e-12  2.5892603136826247e-12  1.2288394881895921e-12  0.0000000000000000e+00  0.0000000000000000e+00  6.3197286424102384e-14  1.3098570191000474e-13  2.1403203951737137e-13  3.2416218118365359e-13  4.7595188286329248e-13  6.8846445111453300e-13  9.8732984706144745e-13  1.4073529381016735e-12  1.9958548809168688e-12  2.8169778349751167e-12  3.9572159912318626e-12  5.5324714887831096e-12  7.6969674140363670e-12  1.0654375407903246e-11  1.4671524079004415e-11  2.0095035660872545e-11  2.7371178831289613e-11  3.7069109651793918e-11  4.9907482861450724e-11  6.6784134704042251e-11  8.8808150531256729e-11  1