<?xml version="1.0"?>
<VTKFile type="UnstructuredGrid"  version="0.1"  >
<UnstructuredGrid>
<Piece  NumberOfPoints="10201" NumberOfCells="20000">
<Points>
<DataArray  type="Float64"  NumberOfComponents="3"  format="ascii">0 0 0  0.01 0 0  0.02 0 0  0.03 0 0  0.04 0 0  0.05 0 0  0.06 0 0  0.07000000000000001 0 0  0.08 0 0  0.09 0 0  0.1 0 0  0.11 0 0  0.12 0 0  0.13 0 0  0.14 0 0  0.15 0 0  0.16 0 0  0.17 0 0  0.18 0 0  0.19 0 0  0.2 0 0  0.21 0 0  0.22 0 0  0.23 0 0  0.24 0 0  0.25 0 0  0.26 0 0  0.27 0 0  0.28 0 0  0.29 0 0  0.3 0 0  0.31 0 0  0.32 0 0  0.33 0 0  0.34 0 0  0.35 0 0  0.36 0 0  0.37 0 0  0.38 0 0  0.39 0 0  0.4 0 0  0.41 0 0  0.42 0 0  0.43 0 0  0.44 0 0  0.45 0 0  0.46 0 0  0.47 0 0  0.48 0 0  0.49 0 0  0.5 0 0  0.51 0 0  0.52 0 0  0.53 0 0  0.54 0 0  0.55 0 0  0.5600000000000001 0 0  0.57 0 0  0.58 0 0  0.59 0 0  0.6 0 0  0.61 0 0  0.62 0 0  0.63 0 0  0.64 0 0  0.65 0 0  0.66 0 0  0.67 0 0  0.68 0 0  0.6899999999999999 0 0  0.7 0 0  0.71 0 0  0.72 0 0  0.73 0 0  0.74 0 0  0.75 0 0  0.76 0 0  0.77 0 0  0.78 0 0  0.79 0 0  0.8 0 0  0.8100000000000001 0 0  0.82 0 0  0.83 0 0  0.84 0 0  0.85 0 0  0.86 0 0  0.87 0 0  0.88 0 0  0.89 0 0  0.9 0 0  0.91 0 0  0.92 0 0  0.93 0 0  0.9399999999999999 0 0  0.95 0 0  0.96 0 0  0.97 0 0  0.98 0 0  0.99 0 0  1 0 0  0 0.01 0  0.01 0.01 0  0.02 0.01 0  0.03 0.01 0  0.04 0.01 0  0.05 0.01 0  0.06 0.01 0  0.07000000000000001 0.01 0  0.08 0.01 0  0.09 0.01 0  0.1 0.01 0  0.11 0.01 0  0.12 0.01 0  0.13 0.01 0  0.14 0.01 0  0.15 0.01 0  0.16 0.01 0  0.17 0.01 0  0.18 0.01 0  0.19 0.01 0  0.2 0.01 0  0.21 0.01 0  0.22 0.01 0  0.23 0.01 0  0.24 0.01 0  0.25 0.01 0  0.26 0.01 0  0.27 0.01 0  0.28 0.01 0  0.29 0.01 0  0.3 0.01 0  0.31 0.01 0  0.32 0.01 0  0.33 0.01 0  0.34 0.01 0  0.35 0.01 0  0.36 0.01 0  0.37 0.01 0  0.38 0.01 0  0.39 0.01 0  0.4 0.01 0  0.41 0.01 0  0.42 0.01 0  0.43 0.01 0  0.44 0.01 0  0.45 0.01 0  0.46 0.01 0  0.47 0.01 0  0.48 0.01 0  0.49 0.01 0  0.5 0.01 0  0.51 0.01 0  0.52 0.01 0  0.53 0.01 0  0.54 0.01 0  0.55 0.01 0  0.5600000000000001 0.01 0  0.57 0.01 0  0.58 0.01 0  0.59 0.01 0  0.6 0.01 0  0.61 0.01 0  0.62 0.01 0  0.63 0.01 0  0.64 0.01 0  0.65 0.01 0  0.66 0.01 0  0.67 0.01 0  0.68 0.01 0  0.6899999999999999 0.01 0  0.7 0.01 0  0.71 0.01 0  0.72 0.01 0  0.73 0.01 0  0.74 0.01 0  0.75 0.01 0  0.76 0.01 0  0.77 0.01 0  0.78 0.01 0  0.79 0.01 0  0.8 0.01 0  0.8100000000000001 0.01 0  0.82 0.01 0  0.83 0.01 0  0.84 0.01 0  0.85 0.01 0  0.86 0.01 0  0.87 0.01 0  0.88 0.01 0  0.89 0.01 0  0.9 0.01 0  0.91 0.01 0  0.92 0.01 0  0.93 0.01 0  0.9399999999999999 0.01 0  0.95 0.01 0  0.96 0.01 0  0.97 0.01 0  0.98 0.01 0  0.99 0.01 0  1 0.01 0  0 0.02 0  0.01 0.02 0  0.02 0.02 0  0.03 0.02 0  0.04 0.02 0  0.05 0.02 0  0.06 0.02 0  0.07000000000000001 0.02 0  0.08 0.02 0  0.09 0.02 0  0.1 0.02 0  0.11 0.02 0  0.12 0.02 0  0.13 0.02 0  0.14 0.02 0  0.15 0.02 0  0.16 0.02 0  0.17 0.02 0  0.18 0.02 0  0.19 0.02 0  0.2 0.02 0  0.21 0.02 0  0.22 0.02 0  0.23 0.02 0  0.24 0.02 0  0.25 0.02 0  0.26 0.02 0  0.27 0.02 0  0.28 0.02 0  0.29 0.02 0  0.3 0.02 0  0.31 0.02 0  0.32 0.02 0  0.33 0.02 0  0.34 0.02 0  0.35 0.02 0  0.36 0.02 0  0.37 0.02 0  0.38 0.02 0  0.39 0.02 0  0.4 0.02 0  0.41 0.02 0  0.42 0.02 0  0.43 0.02 0  0.44 0.02 0  0.45 0.02 0  0.46 0.02 0  0.47 0.02 0  0.48 0.02 0  0.49 0.02 0  0.5 0.02 0  0.51 0.02 0  0.52 0.02 0  0.53 0.02 0  0.54 0.02 0  0.55 0.02 0  0.5600000000000001 0.02 0  0.57 0.02 0  0.58 0.02 0  0.59 0.02 0  0.6 0.02 0  0.61 0.02 0  0.62 0.02 0  0.63 0.02 0  0.64 0.02 0  0.65 0.02 0  0.66 0.02 0  0.67 0.02 0  0.68 0.02 0  0.6899999999999999 0.02 0  0.7 0.02 0  0.71 0.02 0  0.72 0.02 0  0.73 0.02 0  0.74 0.02 0  0.75 0.02 0  0.76 0.02 0  0.77 0.02 0  0.78 0.02 0  0.79 0.02 0  0.8 0.02 0  0.8100000000000001 0.02 0  0.82 0.02 0  0.83 0.02 0  0.84 0.02 0  0.85 0.02 0  0.86 0.02 0  0.87 0.02 0  0.88 0.02 0  0.89 0.02 0  0.9 0.02 0  0.91 0.02 0  0.92 0.02 0  0.93 0.02 0  0.9399999999999999 0.02 0  0.95 0.02 0  0.96 0.02 0  0.97 0.02 0  0.98 0.02 0  0.99 0.02 0  1 0.02 0  0 0.03 0  0.01 0.03 0  0.02 0.03 0  0.03 0.03 0  0.04 0.03 0  0.05 0.03 0  0.06 0.03 0  0.07000000000000001 0.03 0  0.08 0.03 0  0.09 0.03 0  0.1 0.03 0  0.11 0.03 0  0.12 0.03 0  0.13 0.03 0  0.14 0.03 0  0.15 0.03 0  0.16 0.03 0  0.17 0.03 0  0.18 0.03 0  0.19 0.03 0  0.2 0.03 0  0.21 0.03 0  0.22 0.03 0  0.23 0.03 0  0.24 0.03 0  0.25 0.03 0  0.26 0.03 0  0.27 0.03 0  0.28 0.03 0  0.29 0.03 0  0.3 0.03 0  0.31 0.03 0  0.32 0.03 0  0.33 0.03 0  0.34 0.03 0  0.35 0.03 0  0.36 0.03 0  0.37 0.03 0  0.38 0.03 0  0.39 0.03 0  0.4 0.03 0  0.41 0.03 0  0.42 0.03 0  0.43 0.03 0  0.44 0.03 0  0.45 0.03 0  0.46 0.03 0  0.47 0.03 0  0.48 0.03 0  0.49 0.03 0  0.5 0.03 0  0.51 0.03 0  0.52 0.03 0  0.53 0.03 0  0.54 0.03 0  0.55 0.03 0  0.5600000000000001 0.03 0  0.57 0.03 0  0.58 0.03 0  0.59 0.03 0  0.6 0.03 0  0.61 0.03 0  0.62 0.03 0  0.63 0.03 0  0.64 0.03 0  0.65 0.03 0  0.66 0.03 0  0.67 0.03 0  0.68 0.03 0  0.6899999999999999 0.03 0  0.7 0.03 0  0.71 0.03 0  0.72 0.03 0  0.73 0.03 0  0.74 0.03 0  0.75 0.03 0  0.76 0.03 0  0.77 0.03 0  0.78 0.03 0  0.79 0.03 0  0.8 0.03 0  0.8100000000000001 0.03 0  0.82 0.03 0  0.83 0.03 0  0.84 0.03 0  0.85 0.03 0  0.86 0.03 0  0.87 0.03 0  0.88 0.03 0  0.89 0.03 0  0.9 0.03 0  0.91 0.03 0  0.92 0.03 0  0.93 0.03 0  0.9399999999999999 0.03 0  0.95 0.03 0  0.96 0.03 0  0.97 0.03 0  0.98 0.03 0  0.99 0.03 0  1 0.03 0  0 0.04 0  0.01 0.04 0  0.02 0.04 0  0.03 0.04 0  0.04 0.04 0  0.05 0.04 0  0.06 0.04 0  0.07000000000000001 0.04 0  0.08 0.04 0  0.09 0.04 0  0.1 0.04 0  0.11 0.04 0  0.12 0.04 0  0.13 0.04 0  0.14 0.04 0  0.15 0.04 0  0.16 0.04 0  0.17 0.04 0  0.18 0.04 0  0.19 0.04 0  0.2 0.04 0  0.21 0.04 0  0.22 0.04 0  0.23 0.04 0  0.24 0.04 0  0.25 0.04 0  0.26 0.04 0  0.27 0.04 0  0.28 0.04 0  0.29 0.04 0  0.3 0.04 0  0.31 0.04 0  0.32 0.04 0  0.33 0.04 0  0.34 0.04 0  0.35 0.04 0  0.36 0.04 0  0.37 0.04 0  0.38 0.04 0  0.39 0.04 0  0.4 0.04 0  0.41 0.04 0  0.42 0.04 0  0.43 0.04 0  0.44 0.04 0  0.45 0.04 0  0.46 0.04 0  0.47 0.04 0  0.48 0.04 0  0.49 0.04 0  0.5 0.04 0  0.51 0.04 0  0.52 0.04 0  0.53 0.04 0  0.54 0.04 0  0.55 0.04 0  0.5600000000000001 0.04 0  0.57 0.04 0  0.58 0.04 0  0.59 0.04 0  0.6 0.04 0  0.61 0.04 0  0.62 0.04 0  0.63 0.04 0  0.64 0.04 0  0.65 0.04 0  0.66 0.04 0  0.67 0.04 0  0.68 0.04 0  0.6899999999999999 0.04 0  0.7 0.04 0  0.71 0.04 0  0.72 0.04 0  0.73 0.04 0  0.74 0.04 0  0.75 0.04 0  0.76 0.04 0  0.77 0.04 0  0.78 0.04 0  0.79 0.04 0  0.8 0.04 0  0.8100000000000001 0.04 0  0.82 0.04 0  0.83 0.04 0  0.84 0.04 0  0.85 0.04 0  0.86 0.04 0  0.87 0.04 0  0.88 0.04 0  0.89 0.04 0  0.9 0.04 0  0.91 0.04 0  0.92 0.04 0  0.93 0.04 0  0.9399999999999999 0.04 0  0.95 0.04 0  0.96 0.04 0  0.97 0.04 0  0.98 0.04 0  0.99 0.04 0  1 0.04 0  0 0.05 0  0.01 0.05 0  0.02 0.05 0  0.03 0.05 0  0.04 0.05 0  0.05 0.05 0  0.06 0.05 0  0.07000000000000001 0.05 0  0.08 0.05 0  0.09 0.05 0  0.1 0.05 0  0.11 0.05 0  0.12 0.05 0  0.13 0.05 0  0.14 0.05 0  0.15 0.05 0  0.16 0.05 0  0.17 0.05 0  0.18 0.05 0  0.19 0.05 0  0.2 0.05 0  0.21 0.05 0  0.22 0.05 0  0.23 0.05 0  0.24 0.05 0  0.25 0.05 0  0.26 0.05 0  0.27 0.05 0  0.28 0.05 0  0.29 0.05 0  0.3 0.05 0  0.31 0.05 0  0.32 0.05 0  0.33 0.05 0  0.34 0.05 0  0.35 0.05 0  0.36 0.05 0  0.37 0.05 0  0.38 0.05 0  0.39 0.05 0  0.4 0.05 0  0.41 0.05 0  0.42 0.05 0  0.43 0.05 0  0.44 0.05 0  0.45 0.05 0  0.46 0.05 0  0.47 0.05 0  0.48 0.05 0  0.49 0.05 0  0.5 0.05 0  0.51 0.05 0  0.52 0.05 0  0.53 0.05 0  0.54 0.05 0  0.55 0.05 0  0.5600000000000001 0.05 0  0.57 0.05 0  0.58 0.05 0  0.59 0.05 0  0.6 0.05 0  0.61 0.05 0  0.62 0.05 0  0.63 0.05 0  0.64 0.05 0  0.65 0.05 0  0.66 0.05 0  0.67 0.05 0  0.68 0.05 0  0.6899999999999999 0.05 0  0.7 0.05 0  0.71 0.05 0  0.72 0.05 0  0.73 0.05 0  0.74 0.05 0  0.75 0.05 0  0.76 0.05 0  0.77 0.05 0  0.78 0.05 0  0.79 0.05 0  0.8 0.05 0  0.8100000000000001 0.05 0  0.82 0.05 0  0.83 0.05 0  0.84 0.05 0  0.85 0.05 0  0.86 0.05 0  0.87 0.05 0  0.88 0.05 0  0.89 0.05 0  0.9 0.05 0  0.91 0.05 0  0.92 0.05 0  0.93 0.05 0  0.9399999999999999 0.05 0  0.95 0.05 0  0.96 0.05 0  0.97 0.05 0  0.98 0.05 0  0.99 0.05 0  1 0.05 0  0 0.06 0  0.01 0.06 0  0.02 0.06 0  0.03 0.06 0  0.04 0.06 0  0.05 0.06 0  0.06 0.06 0  0.07000000000000001 0.06 0  0.08 0.06 0  0.09 0.06 0  0.1 0.06 0  0.11 0.06 0  0.12 0.06 0  0.13 0.06 0  0.14 0.06 0  0.15 0.06 0  0.16 0.06 0  0.17 0.06 0  0.18 0.06 0  0.19 0.06 0  0.2 0.06 0  0.21 0.06 0  0.22 0.06 0  0.23 0.06 0  0.24 0.06 0  0.25 0.06 0  0.26 0.06 0  0.27 0.06 0  0.28 0.06 0  0.29 0.06 0  0.3 0.06 0  0.31 0.06 0  0.32 0.06 0  0.33 0.06 0  0.34 0.06 0  0.35 0.06 0  0.36 0.06 0  0.37 0.06 0  0.38 0.06 0  0.39 0.06 0  0.4 0.06 0  0.41 0.06 0  0.42 0.06 0  0.43 0.06 0  0.44 0.06 0  0.45 0.06 0  0.46 0.06 0  0.47 0.06 0  0.48 0.06 0  0.49 0.06 0  0.5 0.06 0  0.51 0.06 0  0.52 0.06 0  0.53 0.06 0  0.54 0.06 0  0.55 0.06 0  0.5600000000000001 0.06 0  0.57 0.06 0  0.58 0.06 0  0.59 0.06 0  0.6 0.06 0  0.61 0.06 0  0.62 0.06 0  0.63 0.06 0  0.64 0.06 0  0.65 0.06 0  0.66 0.06 0  0.67 0.06 0  0.68 0.06 0  0.6899999999999999 0.06 0  0.7 0.06 0  0.71 0.06 0  0.72 0.06 0  0.73 0.06 0  0.74 0.06 0  0.75 0.06 0  0.76 0.06 0  0.77 0.06 0  0.78 0.06 0  0.79 0.06 0  0.8 0.06 0  0.8100000000000001 0.06 0  0.82 0.06 0  0.83 0.06 0  0.84 0.06 0  0.85 0.06 0  0.86 0.06 0  0.87 0.06 0  0.88 0.06 0  0.89 0.06 0  0.9 0.06 0  0.91 0.06 0  0.92 0.06 0  0.93 0.06 0  0.9399999999999999 0.06 0  0.95 0.06 0  0.96 0.06 0  0.97 0.06 0  0.98 0.06 0  0.99 0.06 0  1 0.06 0  0 0.07000000000000001 0  0.01 0.07000000000000001 0  0.02 0.07000000000000001 0  0.03 0.07000000000000001 0  0.04 0.07000000000000001 0  0.05 0.07000000000000001 0  0.06 0.07000000000000001 0  0.07000000000000001 0.07000000000000001 0  0.08 0.07000000000000001 0  0.09 0.07000000000000001 0  0.1 0.07000000000000001 0  0.11 0.07000000000000001 0  0.12 0.07000000000000001 0  0.13 0.07000000000000001 0  0.14 0.07000000000000001 0  0.15 0.07000000000000001 0  0.16 0.07000000000000001 0  0.17 0.0700
[...]
<PointData  Scalars="u"> 
<DataArray  type="Float64"  Name="u"  format="ascii">0.0000000000000000e+00  0.0000000000000000e+00  0.0000000000000000e+00  0.0000000000000000e+00  0.0000000000000000e+00  0.0000000000000000e+00  0.0000000000000000e+00  0.0000000000000000e+00  0.0000000000000000e+00  0.0000000000000000e+00  0.0000000000000000e+00  0.0000000000000000e+00  0.0000000000000000e+00  0.0000000000000000e+00  0.0000000000000000e+00  0.0000000000000000e+00  0.0000000000000000e+00  0.0000000000000000e+00  0.0000000000000000e+00  0.0000000000000000e+00  0.0000000000000000e+00  0.0000000000000000e+00  0.0000000000000000e+00  0.0000000000000000e+00  0.0000000000000000e+00  0.0000000000000000e+00  0.0000000000000000e+00  0.0000000000000000e+00  0.0000000000000000e+00  0.0000000000000000e+00  0.0000000000000000e+00  0.0000000000000000e+00  0.0000000000000000e+00  0.0000000000000000e+00  0.0000000000000000e+00  0.0000000000000000e+00  0.0000000000000000e+00  0.0000000000000000e+00  0.0000000000000000e+00  0.0000000000000000e+00  0.0000000000000000e+00  0.0000000000000000e+00  0.0000000000000000e+00  0.0000000000000000e+00  0.0000000000000000e+00  0.0000000000000000e+00  0.0000000000000000e+00  0.0000000000000000e+00  0.0000000000000000e+00  0.0000000000000000e+00  0.0000000000000000e+00  0.0000000000000000e+00  0.0000000000000000e+00  0.0000000000000000e+00  0.0000000000000000e+00  0.0000000000000000e+00  0.0000000000000000e+00  0.0000000000000000e+00  0.0000000000000000e+00  0.0000000000000000e+00  0.0000000000000000e+00  0.0000000000000000e+00  0.0000000000000000e+00  0.0000000000000000e+00  0.0000000000000000e+00  0.0000000000000000e+00  0.0000000000000000e+00  0.0000000000000000e+00  0.0000000000000000e+00  0.0000000000000000e+00  0.0000000000000000e+00  0.0000000000000000e+00  0.0000000000000000e+00  0.0000000000000000e+00  0.0000000000000000e+00  0.0000000000000000e+00  0.0000000000000000e+00  0.0000000000000000e+00  0.0000000000000000e+00  0.0000000000000000e+00  0.0000000000000000e+00  0.0000000000000000e+00  0.0000000000000000e+00  0.0000000000000000e+00  0.0000000000000000e+00  0.0000000000000000e+00  0.0000000000000000e+00  0.0000000000000000e+00  0.0000000000000000e+00  0.0000000000000000e+00  0.0000000000000000e+00  0.0000000000000000e+00  0.0000000000000000e+00  0.0000000000000000e+00  0.0000000000000000e+00  0.0000000000000000e+00  0.0000000000000000e+00  0.0000000000000000e+00  0.0000000000000000e+00  0.0000000000000000e+00  0.0000000000000000e+00  0.0000000000000000e+00  1.1891329514737233e-08  2.3180220741004292e-08  3.4037991056920677e-08  4.4613165760517287e-08  5.5036194305612849e-08  6.5421723198805385e-08  7.5870505643693711e-08  8.6470966938581595e-08  9.7300464571338831e-08  1.0842628070913533e-07  1.1990638110859081e-07  1.3178997097824136e-07  1.4411787543598413e-07  1.5692276994895197e-07  1.7022928446881257e-07  1.8405400380919805e-07  1.9840538607578076e-07  2.1328362057225950e-07  2.2868044648263382e-07  2.4457895368284551e-07  2.6095338716957840e-07  2.7776897671231418e-07  2.9498181333409295e-07  3.1253879400175514e-07  3.3037765535246035e-07  3.4842711629825721e-07  3.6660714784045833e-07  3.8482938630989387e-07  4.0299770346643698e-07  4.2100894340606967e-07  4.3875383203306823e-07  4.5611805999406626e-07  4.7298353451852022e-07  4.8922978969181879e-07  5.0473553847562358e-07  5.1938034350257060e-07  5.3304637756591744e-07  5.4562023908506080e-07  5.5699478295690111e-07  5.6707092340143032e-07  5.7575936295790186e-07  5.8298220092415697e-07  5.8867437543297802e-07  5.9278489612200431e-07  5.9527782897895629e-07  5.9613300132878321e-07  5.9534640286518520e-07  5.9293026780738087e-07  5.8891283329027221e-07  5.8333777951512830e-07  5.7626336750577183e-07  5.6776130003541625e-07  5.5791533994437867e-07  5.4681972725203453e-07  5.3457744185805914e-07  5.2129836201620393e-07  5.0709737005534849e-07  4.9209245604515413e-07  4.7640286739899574e-07  4.6014734801509705e-07  4.4344250479503649e-07  4.2640133261474906e-07  4.0913192144820933e-07  3.9173636174599268e-07  3.7430985671071546e-07  3.5694004310348272e-07  3.3970651591445674e-07  3.2268054682340623e-07  3.0592498197976909e-07  2.8949430129688194e-07  2.7343481917243160e-07  2.5778500525783150e-07  2.4257590350574707e-07  2.2783162810332862e-07  2.1356991590980805e-07  1.9980271651689713e-07  1.8653680289844535e-07  1.7377438768185128e-07  1.6151373224240914e-07  1.4974973799545665e-07  1.3847451136113949e-07  1.2767789584282629e-07  1.1734796645042064e-07  1.0747148328754847e-07  9.8034302493953603e-08  8.9021743889713848e-08  8.0418915613061493e-08  7.2210996792103915e-08  6.4383479860410607e-08  5.6922374537636956e-08  4.9814375770594936e-08  4.3046998088695871e-08  3.6608678890220037e-08  3.0488853158667534e-08  2.4678002019311797e-08  1.9167677366271773e-08  1.3950504394321572e-08  9.0201626062889512e-09  4.3713410375224969e-09  0.0000000000000000e+00  0.0000000000000000e+00  2.6230108071562897e-08  5.1133564986656535e-08  7.5087088151160816e-08  9.8419054126950016e-08  1.2141779806647651e-07  1.4433675337323494e-07  1.6739869422608162e-07  1.9079920084205451e-07  2.1470944581755643e-07  2.3927838713841279e-07  2.6463444353318731e-07  2.9088671972093874e-07  3.1812584260608798e-07  3.4642446445144256e-07  3.7583748535047268e-07  4.0640204474951573e-07  4.3813733016437541e-07  4.7104425041394773e-07  5.0510502046920600e-07  5.4028270519289427e-07  5.7652076961640045e-07  6.1374268374678499e-07  6.5185162999035255e-07  6.9073036088423074e-07  7.3024125370751566e-07  7.7022660646852739e-07  8.1050921652075023e-07  8.5089327846144158e-07  8.9116563187026292e-07  9.3109738176386712e-07  9.7044590536137753e-07  1.0089572479462104e-06  1.0463688984404858e-06  1.0824129220533930e-06  1.1168194134065924e-06  1.1493202193634046e-06  1.1796528669704916e-06  1.2075646191066893e-06  1.2328165693086723e-06  1.2551876784932570e-06  1.2744786505646526e-06  1.2905155417340518e-06  1.3031530002025800e-06  1.3122770388994207e-06  1.3178072542413167e-06  1.3196984181665290e-06  1.3179413885317670e-06  1.3125633036507728e-06  1.3036270494066447e-06  1.2912300109468556e-06  1.2755021443463131e-06  1.2566034256644853e-06  1.2347207544574748e-06  1.2100644051021992e-06  1.1828641315150172e-06  1.1533650385145791e-06  1.1218233359754809e-06  1.0885020901098365e-06  1.0536670800245891e-06  1.0175828576854220e-06  9.8050909630101448e-07  9.4269729676736032e-07  9.0438790507594808e-07  8.6580787637723302e-07  8.2716870452324346e-07  7.8866492010354764e-07  7.5047304581145947e-07  7.1275098585061934e-07  6.7563781627443190e-07  6.3925393574843603e-07  6.0370153120919510e-07  5.6906531012097677e-07  5.3541345027540310e-07  5.0279871905292981e-07  4.7125971644942904e-07  4.4082219963783559e-07  4.1150045106523005e-07  3.8329865678581644e-07  3.5621226664096984e-07  3.3022931280070994e-07  3.0533166790166954e-07  2.8149622842287839e-07  2.5869601294025522e-07  2.3690116843706872e-07  2.1607988089464663e-07  1.9619918894385150e-07  1.7722570144117502e-07  1.5912622147565122e-07  1.4186828055548915e-07  1.2542058761322235e-07  1.0975339805427416e-07  9.4838808404627187e-08  8.0650982234450143e-08  6.7166312986629523e-08  5.4363529154524044e-08  4.2223746951902058e-08  3.0730475217546166e-08  1.9869577013140587e-08  9.6291954558823196e-09  0.0000000000000000e+00  0.0000000000000000e+00  4.3490865011321094e-08  8.4784867170083390e-08  1.2450732482841966e-07  1.6320431832473192e-07  2.0135543916225728e-07  2.3938235039215954e-07  2.7765585841177323e-07  3.1650168440317850e-07  3.5620510121136707e-07  3.9701457932626435e-07  4.3914456822122309e-07  4.8277752540029502e-07  5.2806529453454827e-07  5.7512992564668566e-07  6.2406402411516422e-07  6.7493071101487444e-07  7.2776327469680627e-07  7.8256459223495934e-07  8.3930639912530114e-07  8.9792848608265518e-07  9.5833790260129477e-07  1.0204082477572622e-06  1.0839791291497303e-06  1.1488558705058508e-06  1.2148095469039327e-06  1.2815774234063955e-06  1.3488638677635034e-06  1.4163418004224106e-06  1.4836547350925476e-06  1.5504194504101124e-06  1.6162293177640659e-06  1.6806582921912721e-06  1.7432655526841261e-06  1.8036007557274154e-06  1.8612098420282886e-06  1.9156413120432040e-06  1.9664528620218061e-06  2.0132182499913196e-06  2.0555342415859872e-06  2.0930274700863339e-06  2.1253610346101050e-06  2.1522406560794500e-06  2.1734202131325566e-06  2.1887064899961688e-06  2.1979629855562858e-06  2.2011126571093990e-06  2.1981395027676923e-06  2.1890889220408992e-06  2.1740668331824551e-06  2.1532375666556320e-06  2.1268205945781090e-06  2.0950861942450688e-06  2.0583501779252167e-06  2.0169678494241476e-06  1.9713273691202606e-06  1.9218427224400321e-06  1.8689464916767958e-06  1.8130826277867511e-06  1.7546994078987415e-06  1.6942427467294405e-06  1.6321500071909708e-06  1.5688444287019565e-06  1.5047302626410981e-06  1.4401886745668778e-06  1.3755744437015389e-06  1.3112134629789566e-06  1.2474010186723551e-06  1.1844008079591580e-06  1.1224446361740534e-06  1.0617327231082376e-06  1.0024345394575739e-06  9.4469009013638255e-07  8.8861156024204015e-07  8.3428524146657056e-07  7.8177366114156296e-07  7.3111784229746368e-07  6.8233963056486032e-07  6.3544403193778219e-07  5.9042151391503021e-07  5.4725023096588080e-07  5.0589814333853645e-07  4.6632500572511744e-07  4.2848420906662365e-07  3.9232446473669404e-07  3.5779132544728551e-07  3.2482854147706651e-07  2.9337925427085625e-07  2.6338703215510471e-07  2.3479675493456495e-07  2.0755535556161159e-07  1.8161242798773731e-07  1.5692071080090063e-07  1.3343645640259139e-07  1.1111969535844976e-07  8.9934405234273474e-08  6.9848592776135371e-08  5.0834297819358848e-08  3.2867527074904776e-08  1.5928127187678870e-08  0.0000000000000000e+00  0.0000000000000000e+00  6.4234747504349755e-08  1.2522936575702245e-07  1.8391019948526654e-07  2.4108704170817551e-07  2.9747131210228111e-07  3.5368877563464255e-07  4.1029004995420053e-07  4.6775917769607323e-07  5.2652050858830326e-07  5.8694410455935456e-07  6.4934985511226943e-07  7.1401046936904636e-07  7.8115349473721809e-07  8.5096249956211584e-07  9.2357754792379024e-07  9.9909508847084070e-07  1.0775673754191106e-06  1.1590015381410864e-06  1.2433584156751306e-06  1.3305512735100802e-06  1.4204445216359490e-06  1.5128525545467619e-06  1.6075388350553826e-06  1.7042153438244373e-06  1.8025425148097111e-06  1.9021297727341344e-06  2.0025367816720150e-06  2.1032755032936346e-06  2.2038131488653181e-06  2.3035760904207824e-06  2.4019547734961332e-06  2.4983096465534771e-06  2.5919780910637724e-06  2.6822823018204486e-06  2.7685380303526977e-06  2.8500640665387014e-06  2.9261922961913384e-06  2.9962781372293314e-06  3.0597111259250029e-06  3.1159253995483531e-06  3.1644098043384787e-06  3.2047173497462332e-06  3.2364737325726784e-06  3.2593846687599151e-06  3.2732417963673242e-06  3.2779269502155205e-06  3.2734146556386863e-06  3.2597727439226252e-06  3.2371610529049021e-06  3.2058282400097060e-06  3.1661067985487015e-06  3.1184064282467976e-06  3.0632059646187883e-06  3.0010441163775447e-06  2.9325092934086070e-06  2.8582288286138117e-06  2.7788579045044957e-06  2.6950684900081854e-06  2.6075385754841474e-06  2.5169419660101093e-06  2.4239388566832923e-06  2.3291673713698976e-06  2.2332362005621848e-06  2.1367184272376421e-06  2.0401465841308494e-06  1.9440089435691543e-06  1.8487470035218474e-06  1.7547541018507647e-06  1.6623750655549855e-06  1.5719067832745442e-06  1.4835995772878403e-06  1.3976592452340386e-06  1.3142496411224897e-06  1.2334956690204495e-06  1.1554865702323394e-06  1.0802793948864291e-06  1.0079025607602141e-06  9.3835941511826299e-07  8.7163172862659903e-07  8.0768306348606846e-07  7.4646197035633721e-07  6.8790498010239503e-07  6.3193936667475281e-07  5.7848566641421662e-07  5.2745994671174972e-07  4.7877582327507135e-07  4.3234623032457054e-07  3.8808495196295844e-07  3.4590792585768766e-07  3.0573433237502184e-07  2.6748748354489174e-07  2.3109552684806402e-07  1.9649197892597389e-07  1.6361610403351392e-07  1.3241315149198302e-07  1.0283446565476470e-07  7.4837481075002327e-08  4.8385614736136519e-08  2.3448067389360801e-08  0.0000000000000000e+00  0.0000000000000000e+00  8.9125688387621236e-08  1.7376316393668186e-07  2.5520332904321018e-07  3.3457550821396278e-07  4.1287223494298174e-07  4.9096703846510040e-07  5.6962913294433504e-07  6.4953539558376394e-07  7.3127997494224959e-07  8.1538182666725073e-07  9.0229043752369618e-07  9.9238996923051573e-07  1.0860020304339839e-06  1.1833872674391566e-06  1.2847459514370195e-06  1.3902177312931849e-06  1.4998807159057711e-06  1.6137500480898088e-06  1.7317761322734126e-06  1.8538426803278176e-06  1.9797647428812170e-06  2.1092868967120487e-06  2.2420817614531486e-06  2.3777490199888845e-06  2.5158151156859578e-06  2.6557337950501047e-06  2.7968876556576182e-06  2.9385908454551111e-06  3.0800930400595152e-06  3.2205847990134108e-06  3.3592043697975087e-06  3.4950459698255045e-06  3.6271695320736950e-06  3.7546118502783833e-06  3.8763990060707068e-06  3.9915599047698524e-06  4.0991406910082050e-06  4.1982197624632366e-06  4.2879230525206595e-06  4.3674392135975061e-06  4.4360343049409057e-06  4.4930655745344889e-06  4.5379939263343423e-06  4.5703946827592273e-06  4.5899662886264806e-06  4.5965366559954768e-06  4.5900669180231392e-06  4.5706524412754702e-06  4.5385210363720934e-06  4.4940284020380724e-06  4.4376509328214756e-06  4.3699761110074106e-06  4.2916907839510851e-06  4.2035676950645906e-06  4.1064506867898375e-06  4.0012390249271140e-06  3.8888713047347929e-06  3.7703093905827812e-06  3.6465228141050102e-06  3.5184740132243658e-06  3.3871047393417021e-06  3.2533238960884545e-06  3.1179970042193157e-06  2.9819374172477896e-06  2.8458993447422739e-06  2.7105726777161954e-06  2.5765795555254375e-06  2.4444725676864467e-06  2.3147344479030567e-06  2.1877790915443238e-06  2.0639537114971816e-06  1.9435419399313126e-06  1.8267676839457441e-06  1.7137995500076428e-06  1.6047556641501745e-06  1.4997087306855676e-06  1.3986911904137657e-06  1.3017003588076671e-06  1.2087034444450554e-06  1.1196423672344313e-06  1.0344383141336191e-06  9.5299598665018341e-07  8.7520750916400837e-07  8.0095597988399081e-07  7.3011865701335700e-07  6.6256978150943397e-07  5.9818304480545364e-07  5.3683371517929856e-07  4.7840044029791488e-07  4.2276674603882711e-07  3.6982225319451490e-07  3.1946363429616589e-07  2.7159533273185116e-07  2.2613006574534270e-07  1.8298913193253473e-07  1.4210254263087008e-07  1.0340899522494973e-07  6.6855704919882927e-08  3.2398111289317876e-08  0.0000000000000000e+00  0.0000000000000000e+00  1.1894773642520574e-07  2.3191712852186051e-07  3.4064052491159666e-07  4.4663440636223932e-07  5.5123221700718675e-07  6.5560833333290562e-07  7.6079784947049124e-07  8.6771270086023806e-07  9.7715458529327737e-07  1.0898250804629739e-06  1.2063333078193091e-06  1.3272014525925806e-06  1.4528684183323722e-06  1.5836918702748638e-06  1.7199489044579884e-06  1.8618355679476561e-06  2.0094654490334717e-06  2.1628675540032999e-06  2.3219836882807017e-06  2.4866655634186494e-06  2.6566718567243062e-06  2.8316654560953683e-06  3.0112111278434101e-06  3.1947738486475473e-06  3.3817180430429777e-06  3.5713079636916153e-06  3.7627094418070719e-06  3.9549932182871416e-06  4.1471400412657171e-06  4.3380476820872391e-06  4.5265399786179238e-06  4.7113779622543850e-06  4.8912730634146568e-06  5.0649023207482515e-06  5.2309254434962997e-06  5.3880034967723093e-06  5.5348188990830600e-06  5.6700963438116813e-06  5.7926241857207177e-06  5.9012757741088100e-06  5.9950301703403100e-06  6.0729916629852744e-06  6.1344074920035539e-06  6.1786832165197258e-06  6.2053952097153759e-06  6.2142998386484778e-06  6.2053389842174440e-06  6.1786416732315232e-06  6.1345217253975568e-06  6.0734714565954652e-06  5.9961516189678265e-06  5.9033778907271330e-06  5.7961043471342446e-06  5.6754044426006020e-06  5.5424501073985352e-06  5.3984896077606290e-06  5.2448248338044695e-06  5.0827886662220650e-06  4.9137230322899400e-06  4.7389581982607337e-06  4.5597937634999285e-06  4.3774817274356751e-06  4.1932118993389148e-06  4.0080998187939466e-06  3.8231772565484248e-06  3.6393852755011194e-06  3.4575697531403195e-06  3.2784792019459294e-06  3.1027646742127596e-06  2.9309815025725905e-06  2.7635926065054446e-06  2.6009730870191549e-06  2.4434158346858843e-06  2.2911378883452385e-06  2.1442873009218751e-06  2.0029502929164281e-06  1.8671585013254229e-06  1.7368961603691351e-06  1.6121070790675197e-06  1.4927013082992838e-06  1.3785614156843873e-06  1.2695483098803314e-06  1.1655065763408999e-06  1.0662693041071269e-06  9.7166239779278432e-07  8.8150838071611168e-07  7.9562970432423915e-07  7.1385158591907446e-07  6.3600440151462525e-07  5.6192566373630657e-07  4.9146161630803567e-07  4.2446847714154389e-07  3.6081336160001302e-07  3.0037491638291075e-07  2.4304369286915452e-07  1.8872228682801647e-07  1.3732526929209369e-07  8.8778931178552049e-08  4.3020863584654994e-08  0.0000000000000000e+00  0.0000000000000000e+00  1.5462492681756027e-07  3.0149577998032643e-07  4.4287927868067227e-07  5.8076087282389196e-07  7.1688736932130299e-07  8.5279844613299517e-07  9.8985265190640902e-07  1.1292485790733506e-06  1.2720418129051774e-06  1.4191581793387034e-06  1.5714037487413172e-06  1.7294719996607798e-06  1.8939485046848365e-06  2.0653134686366961e-06  2.2439424263718748e-06  2.4301053923986424e-06  2.6239647464201652e-06  2.8255721366783419e-06  3.0348646856047176e-06  3.2516607886077612e-06  3.4756558055962702e-06  3.7064179546759297e-06  3.9433847268443734e-06  4.1858601477998909e-06  4.4330132164065456e-06  4.6838778470800861e-06  4.9373546335113873e-06  5.1922147319197255e-06  5.4471061317809663e-06  5.7005625393396516e-06  5.9510150432464340e-06  6.1968066619896547e-06  6.4362097897589188e-06  6.6674464621899718e-06  6.8887112582558943e-06  7.0981965425674058e-06  7.2941196377138075e-06  7.4747514041215394e-06  7.6384456010702539e-06  7.7836683132752377e-06  7.9090266591815474e-06  8.0132959557974695e-06  8.0954445056163304e-06  8.1546551976388789e-06  8.1903431785624357e-06  8.2021689514802513e-06  8.1900463951416868e-06  8.1541453617209090e-06  8.0948886976465082e-06  8.0129437310495102e-06  7.9092084702782055e-06  7.7847929497421687e-06  7.6409963315112408e-06  7.4792805142426190e-06  7.3012411077165499e-06  7.1085766965941862e-06  6.9030573388535255e-06  6.6864932234750550e-06  6.4607043517919403e-06  6.2274920132166742e-06  5.9886127062228085e-06  5.7457550179127939e-06  5.5005198289592763e-06  5.2544040635226304e-06  5.0087880633694646e-06  4.7649265379739633e-06  4.5239429324437380e-06  4.2868269655934750e-06  4.0544350227248619e-06  3.8274930415686139e-06  3.6066015041420346e-06  3.3922421398240927e-06  3.1847859530148410e-06  2.9845022092825344e-06  2.7915680438036504e-06  2.6060783921929112e-06  2.4280559838042398e-06  2.2574611789318290e-06  2.0942014721441828e-06  1.9381405227632546e-06  1.7891066091865064e-06  1.6469004356439717e-06  1.5113022477079669e-06  1.3820782363153568e-06  1.2589862293126092e-06  1.1417806848350627e-06  1.0302170125293680e-06  9.2405525712981233e-07  8.2306318464098643e-07  7.2701881479917150e-07  6.3571244500405702e-07  5.4894821092174551e-07  4.6654522781175646e-07  3.8833835463416675e-07  3.1417862041261457e-07  2.4393334938430167e-07  1.7748601833538867e-07  1.1473587634204694e-07  5.5597355845387422e-08  0.0000000000000000e+00  0.0000000000000000e+00  1.9724398274839022e-07  3.8462173825700808e-07  5.6504649276408669e-07  7.4107149656805908e-07  9.1494457922114733e-07  1.0886488745269982e-06  1.2639364009717314e-06  1.4423553880519220e-06  1.6252721257462063e-06  1.8138880099157910e-06  2.0092523703459458e-06  2.2122715984737706e-06  2.4237150368916166e-06  2.6442180509720466e-06  2.8742826730706115e-06  3.1142761904557738e-06  3.3644280381537519e-06  3.6248253560255330e-06  3.8954075742924624e-06  4.1759604019605677e-06  4.4661096065745761e-06  4