<?xml version="1.0"?>
<VTKFile type="UnstructuredGrid"  version="0.1"  >
<UnstructuredGrid>
<Piece  NumberOfPoints="10201" NumberOfCells="20000">
<Points>
<DataArray  type="Float64"  NumberOfComponents="3"  format="ascii">0 0 0  0.01 0 0  0.02 0 0  0.03 0 0  0.04 0 0  0.05 0 0  0.06 0 0  0.07000000000000001 0 0  0.08 0 0  0.09 0 0  0.1 0 0  0.11 0 0  0.12 0 0  0.13 0 0  0.14 0 0  0.15 0 0  0.16 0 0  0.17 0 0  0.18 0 0  0.19 0 0  0.2 0 0  0.21 0 0  0.22 0 0  0.23 0 0  0.24 0 0  0.25 0 0  0.26 0 0  0.27 0 0  0.28 0 0  0.29 0 0  0.3 0 0  0.31 0 0  0.32 0 0  0.33 0 0  0.34 0 0  0.35 0 0  0.36 0 0  0.37 0 0  0.38 0 0  0.39 0 0  0.4 0 0  0.41 0 0  0.42 0 0  0.43 0 0  0.44 0 0  0.45 0 0  0.46 0 0  0.47 0 0  0.48 0 0  0.49 0 0  0.5 0 0  0.51 0 0  0.52 0 0  0.53 0 0  0.54 0 0  0.55 0 0  0.5600000000000001 0 0  0.57 0 0  0.58 0 0  0.59 0 0  0.6 0 0  0.61 0 0  0.62 0 0  0.63 0 0  0.64 0 0  0.65 0 0  0.66 0 0  0.67 0 0  0.68 0 0  0.6899999999999999 0 0  0.7 0 0  0.71 0 0  0.72 0 0  0.73 0 0  0.74 0 0  0.75 0 0  0.76 0 0  0.77 0 0  0.78 0 0  0.79 0 0  0.8 0 0  0.8100000000000001 0 0  0.82 0 0  0.83 0 0  0.84 0 0  0.85 0 0  0.86 0 0  0.87 0 0  0.88 0 0  0.89 0 0  0.9 0 0  0.91 0 0  0.92 0 0  0.93 0 0  0.9399999999999999 0 0  0.95 0 0  0.96 0 0  0.97 0 0  0.98 0 0  0.99 0 0  1 0 0  0 0.01 0  0.01 0.01 0  0.02 0.01 0  0.03 0.01 0  0.04 0.01 0  0.05 0.01 0  0.06 0.01 0  0.07000000000000001 0.01 0  0.08 0.01 0  0.09 0.01 0  0.1 0.01 0  0.11 0.01 0  0.12 0.01 0  0.13 0.01 0  0.14 0.01 0  0.15 0.01 0  0.16 0.01 0  0.17 0.01 0  0.18 0.01 0  0.19 0.01 0  0.2 0.01 0  0.21 0.01 0  0.22 0.01 0  0.23 0.01 0  0.24 0.01 0  0.25 0.01 0  0.26 0.01 0  0.27 0.01 0  0.28 0.01 0  0.29 0.01 0  0.3 0.01 0  0.31 0.01 0  0.32 0.01 0  0.33 0.01 0  0.34 0.01 0  0.35 0.01 0  0.36 0.01 0  0.37 0.01 0  0.38 0.01 0  0.39 0.01 0  0.4 0.01 0  0.41 0.01 0  0.42 0.01 0  0.43 0.01 0  0.44 0.01 0  0.45 0.01 0  0.46 0.01 0  0.47 0.01 0  0.48 0.01 0  0.49 0.01 0  0.5 0.01 0  0.51 0.01 0  0.52 0.01 0  0.53 0.01 0  0.54 0.01 0  0.55 0.01 0  0.5600000000000001 0.01 0  0.57 0.01 0  0.58 0.01 0  0.59 0.01 0  0.6 0.01 0  0.61 0.01 0  0.62 0.01 0  0.63 0.01 0  0.64 0.01 0  0.65 0.01 0  0.66 0.01 0  0.67 0.01 0  0.68 0.01 0  0.6899999999999999 0.01 0  0.7 0.01 0  0.71 0.01 0  0.72 0.01 0  0.73 0.01 0  0.74 0.01 0  0.75 0.01 0  0.76 0.01 0  0.77 0.01 0  0.78 0.01 0  0.79 0.01 0  0.8 0.01 0  0.8100000000000001 0.01 0  0.82 0.01 0  0.83 0.01 0  0.84 0.01 0  0.85 0.01 0  0.86 0.01 0  0.87 0.01 0  0.88 0.01 0  0.89 0.01 0  0.9 0.01 0  0.91 0.01 0  0.92 0.01 0  0.93 0.01 0  0.9399999999999999 0.01 0  0.95 0.01 0  0.96 0.01 0  0.97 0.01 0  0.98 0.01 0  0.99 0.01 0  1 0.01 0  0 0.02 0  0.01 0.02 0  0.02 0.02 0  0.03 0.02 0  0.04 0.02 0  0.05 0.02 0  0.06 0.02 0  0.07000000000000001 0.02 0  0.08 0.02 0  0.09 0.02 0  0.1 0.02 0  0.11 0.02 0  0.12 0.02 0  0.13 0.02 0  0.14 0.02 0  0.15 0.02 0  0.16 0.02 0  0.17 0.02 0  0.18 0.02 0  0.19 0.02 0  0.2 0.02 0  0.21 0.02 0  0.22 0.02 0  0.23 0.02 0  0.24 0.02 0  0.25 0.02 0  0.26 0.02 0  0.27 0.02 0  0.28 0.02 0  0.29 0.02 0  0.3 0.02 0  0.31 0.02 0  0.32 0.02 0  0.33 0.02 0  0.34 0.02 0  0.35 0.02 0  0.36 0.02 0  0.37 0.02 0  0.38 0.02 0  0.39 0.02 0  0.4 0.02 0  0.41 0.02 0  0.42 0.02 0  0.43 0.02 0  0.44 0.02 0  0.45 0.02 0  0.46 0.02 0  0.47 0.02 0  0.48 0.02 0  0.49 0.02 0  0.5 0.02 0  0.51 0.02 0  0.52 0.02 0  0.53 0.02 0  0.54 0.02 0  0.55 0.02 0  0.5600000000000001 0.02 0  0.57 0.02 0  0.58 0.02 0  0.59 0.02 0  0.6 0.02 0  0.61 0.02 0  0.62 0.02 0  0.63 0.02 0  0.64 0.02 0  0.65 0.02 0  0.66 0.02 0  0.67 0.02 0  0.68 0.02 0  0.6899999999999999 0.02 0  0.7 0.02 0  0.71 0.02 0  0.72 0.02 0  0.73 0.02 0  0.74 0.02 0  0.75 0.02 0  0.76 0.02 0  0.77 0.02 0  0.78 0.02 0  0.79 0.02 0  0.8 0.02 0  0.8100000000000001 0.02 0  0.82 0.02 0  0.83 0.02 0  0.84 0.02 0  0.85 0.02 0  0.86 0.02 0  0.87 0.02 0  0.88 0.02 0  0.89 0.02 0  0.9 0.02 0  0.91 0.02 0  0.92 0.02 0  0.93 0.02 0  0.9399999999999999 0.02 0  0.95 0.02 0  0.96 0.02 0  0.97 0.02 0  0.98 0.02 0  0.99 0.02 0  1 0.02 0  0 0.03 0  0.01 0.03 0  0.02 0.03 0  0.03 0.03 0  0.04 0.03 0  0.05 0.03 0  0.06 0.03 0  0.07000000000000001 0.03 0  0.08 0.03 0  0.09 0.03 0  0.1 0.03 0  0.11 0.03 0  0.12 0.03 0  0.13 0.03 0  0.14 0.03 0  0.15 0.03 0  0.16 0.03 0  0.17 0.03 0  0.18 0.03 0  0.19 0.03 0  0.2 0.03 0  0.21 0.03 0  0.22 0.03 0  0.23 0.03 0  0.24 0.03 0  0.25 0.03 0  0.26 0.03 0  0.27 0.03 0  0.28 0.03 0  0.29 0.03 0  0.3 0.03 0  0.31 0.03 0  0.32 0.03 0  0.33 0.03 0  0.34 0.03 0  0.35 0.03 0  0.36 0.03 0  0.37 0.03 0  0.38 0.03 0  0.39 0.03 0  0.4 0.03 0  0.41 0.03 0  0.42 0.03 0  0.43 0.03 0  0.44 0.03 0  0.45 0.03 0  0.46 0.03 0  0.47 0.03 0  0.48 0.03 0  0.49 0.03 0  0.5 0.03 0  0.51 0.03 0  0.52 0.03 0  0.53 0.03 0  0.54 0.03 0  0.55 0.03 0  0.5600000000000001 0.03 0  0.57 0.03 0  0.58 0.03 0  0.59 0.03 0  0.6 0.03 0  0.61 0.03 0  0.62 0.03 0  0.63 0.03 0  0.64 0.03 0  0.65 0.03 0  0.66 0.03 0  0.67 0.03 0  0.68 0.03 0  0.6899999999999999 0.03 0  0.7 0.03 0  0.71 0.03 0  0.72 0.03 0  0.73 0.03 0  0.74 0.03 0  0.75 0.03 0  0.76 0.03 0  0.77 0.03 0  0.78 0.03 0  0.79 0.03 0  0.8 0.03 0  0.8100000000000001 0.03 0  0.82 0.03 0  0.83 0.03 0  0.84 0.03 0  0.85 0.03 0  0.86 0.03 0  0.87 0.03 0  0.88 0.03 0  0.89 0.03 0  0.9 0.03 0  0.91 0.03 0  0.92 0.03 0  0.93 0.03 0  0.9399999999999999 0.03 0  0.95 0.03 0  0.96 0.03 0  0.97 0.03 0  0.98 0.03 0  0.99 0.03 0  1 0.03 0  0 0.04 0  0.01 0.04 0  0.02 0.04 0  0.03 0.04 0  0.04 0.04 0  0.05 0.04 0  0.06 0.04 0  0.07000000000000001 0.04 0  0.08 0.04 0  0.09 0.04 0  0.1 0.04 0  0.11 0.04 0  0.12 0.04 0  0.13 0.04 0  0.14 0.04 0  0.15 0.04 0  0.16 0.04 0  0.17 0.04 0  0.18 0.04 0  0.19 0.04 0  0.2 0.04 0  0.21 0.04 0  0.22 0.04 0  0.23 0.04 0  0.24 0.04 0  0.25 0.04 0  0.26 0.04 0  0.27 0.04 0  0.28 0.04 0  0.29 0.04 0  0.3 0.04 0  0.31 0.04 0  0.32 0.04 0  0.33 0.04 0  0.34 0.04 0  0.35 0.04 0  0.36 0.04 0  0.37 0.04 0  0.38 0.04 0  0.39 0.04 0  0.4 0.04 0  0.41 0.04 0  0.42 0.04 0  0.43 0.04 0  0.44 0.04 0  0.45 0.04 0  0.46 0.04 0  0.47 0.04 0  0.48 0.04 0  0.49 0.04 0  0.5 0.04 0  0.51 0.04 0  0.52 0.04 0  0.53 0.04 0  0.54 0.04 0  0.55 0.04 0  0.5600000000000001 0.04 0  0.57 0.04 0  0.58 0.04 0  0.59 0.04 0  0.6 0.04 0  0.61 0.04 0  0.62 0.04 0  0.63 0.04 0  0.64 0.04 0  0.65 0.04 0  0.66 0.04 0  0.67 0.04 0  0.68 0.04 0  0.6899999999999999 0.04 0  0.7 0.04 0  0.71 0.04 0  0.72 0.04 0  0.73 0.04 0  0.74 0.04 0  0.75 0.04 0  0.76 0.04 0  0.77 0.04 0  0.78 0.04 0  0.79 0.04 0  0.8 0.04 0  0.8100000000000001 0.04 0  0.82 0.04 0  0.83 0.04 0  0.84 0.04 0  0.85 0.04 0  0.86 0.04 0  0.87 0.04 0  0.88 0.04 0  0.89 0.04 0  0.9 0.04 0  0.91 0.04 0  0.92 0.04 0  0.93 0.04 0  0.9399999999999999 0.04 0  0.95 0.04 0  0.96 0.04 0  0.97 0.04 0  0.98 0.04 0  0.99 0.04 0  1 0.04 0  0 0.05 0  0.01 0.05 0  0.02 0.05 0  0.03 0.05 0  0.04 0.05 0  0.05 0.05 0  0.06 0.05 0  0.07000000000000001 0.05 0  0.08 0.05 0  0.09 0.05 0  0.1 0.05 0  0.11 0.05 0  0.12 0.05 0  0.13 0.05 0  0.14 0.05 0  0.15 0.05 0  0.16 0.05 0  0.17 0.05 0  0.18 0.05 0  0.19 0.05 0  0.2 0.05 0  0.21 0.05 0  0.22 0.05 0  0.23 0.05 0  0.24 0.05 0  0.25 0.05 0  0.26 0.05 0  0.27 0.05 0  0.28 0.05 0  0.29 0.05 0  0.3 0.05 0  0.31 0.05 0  0.32 0.05 0  0.33 0.05 0  0.34 0.05 0  0.35 0.05 0  0.36 0.05 0  0.37 0.05 0  0.38 0.05 0  0.39 0.05 0  0.4 0.05 0  0.41 0.05 0  0.42 0.05 0  0.43 0.05 0  0.44 0.05 0  0.45 0.05 0  0.46 0.05 0  0.47 0.05 0  0.48 0.05 0  0.49 0.05 0  0.5 0.05 0  0.51 0.05 0  0.52 0.05 0  0.53 0.05 0  0.54 0.05 0  0.55 0.05 0  0.5600000000000001 0.05 0  0.57 0.05 0  0.58 0.05 0  0.59 0.05 0  0.6 0.05 0  0.61 0.05 0  0.62 0.05 0  0.63 0.05 0  0.64 0.05 0  0.65 0.05 0  0.66 0.05 0  0.67 0.05 0  0.68 0.05 0  0.6899999999999999 0.05 0  0.7 0.05 0  0.71 0.05 0  0.72 0.05 0  0.73 0.05 0  0.74 0.05 0  0.75 0.05 0  0.76 0.05 0  0.77 0.05 0  0.78 0.05 0  0.79 0.05 0  0.8 0.05 0  0.8100000000000001 0.05 0  0.82 0.05 0  0.83 0.05 0  0.84 0.05 0  0.85 0.05 0  0.86 0.05 0  0.87 0.05 0  0.88 0.05 0  0.89 0.05 0  0.9 0.05 0  0.91 0.05 0  0.92 0.05 0  0.93 0.05 0  0.9399999999999999 0.05 0  0.95 0.05 0  0.96 0.05 0  0.97 0.05 0  0.98 0.05 0  0.99 0.05 0  1 0.05 0  0 0.06 0  0.01 0.06 0  0.02 0.06 0  0.03 0.06 0  0.04 0.06 0  0.05 0.06 0  0.06 0.06 0  0.07000000000000001 0.06 0  0.08 0.06 0  0.09 0.06 0  0.1 0.06 0  0.11 0.06 0  0.12 0.06 0  0.13 0.06 0  0.14 0.06 0  0.15 0.06 0  0.16 0.06 0  0.17 0.06 0  0.18 0.06 0  0.19 0.06 0  0.2 0.06 0  0.21 0.06 0  0.22 0.06 0  0.23 0.06 0  0.24 0.06 0  0.25 0.06 0  0.26 0.06 0  0.27 0.06 0  0.28 0.06 0  0.29 0.06 0  0.3 0.06 0  0.31 0.06 0  0.32 0.06 0  0.33 0.06 0  0.34 0.06 0  0.35 0.06 0  0.36 0.06 0  0.37 0.06 0  0.38 0.06 0  0.39 0.06 0  0.4 0.06 0  0.41 0.06 0  0.42 0.06 0  0.43 0.06 0  0.44 0.06 0  0.45 0.06 0  0.46 0.06 0  0.47 0.06 0  0.48 0.06 0  0.49 0.06 0  0.5 0.06 0  0.51 0.06 0  0.52 0.06 0  0.53 0.06 0  0.54 0.06 0  0.55 0.06 0  0.5600000000000001 0.06 0  0.57 0.06 0  0.58 0.06 0  0.59 0.06 0  0.6 0.06 0  0.61 0.06 0  0.62 0.06 0  0.63 0.06 0  0.64 0.06 0  0.65 0.06 0  0.66 0.06 0  0.67 0.06 0  0.68 0.06 0  0.6899999999999999 0.06 0  0.7 0.06 0  0.71 0.06 0  0.72 0.06 0  0.73 0.06 0  0.74 0.06 0  0.75 0.06 0  0.76 0.06 0  0.77 0.06 0  0.78 0.06 0  0.79 0.06 0  0.8 0.06 0  0.8100000000000001 0.06 0  0.82 0.06 0  0.83 0.06 0  0.84 0.06 0  0.85 0.06 0  0.86 0.06 0  0.87 0.06 0  0.88 0.06 0  0.89 0.06 0  0.9 0.06 0  0.91 0.06 0  0.92 0.06 0  0.93 0.06 0  0.9399999999999999 0.06 0  0.95 0.06 0  0.96 0.06 0  0.97 0.06 0  0.98 0.06 0  0.99 0.06 0  1 0.06 0  0 0.07000000000000001 0  0.01 0.07000000000000001 0  0.02 0.07000000000000001 0  0.03 0.07000000000000001 0  0.04 0.07000000000000001 0  0.05 0.07000000000000001 0  0.06 0.07000000000000001 0  0.07000000000000001 0.07000000000000001 0  0.08 0.07000000000000001 0  0.09 0.07000000000000001 0  0.1 0.07000000000000001 0  0.11 0.07000000000000001 0  0.12 0.07000000000000001 0  0.13 0.07000000000000001 0  0.14 0.07000000000000001 0  0.15 0.07000000000000001 0  0.16 0.07000000000000001 0  0.17 0.0700
[...]
<PointData  Scalars="u"> 
<DataArray  type="Float64"  Name="u"  format="ascii">0.0000000000000000e+00  0.0000000000000000e+00  0.0000000000000000e+00  0.0000000000000000e+00  0.0000000000000000e+00  0.0000000000000000e+00  0.0000000000000000e+00  0.0000000000000000e+00  0.0000000000000000e+00  0.0000000000000000e+00  0.0000000000000000e+00  0.0000000000000000e+00  0.0000000000000000e+00  0.0000000000000000e+00  0.0000000000000000e+00  0.0000000000000000e+00  0.0000000000000000e+00  0.0000000000000000e+00  0.0000000000000000e+00  0.0000000000000000e+00  0.0000000000000000e+00  0.0000000000000000e+00  0.0000000000000000e+00  0.0000000000000000e+00  0.0000000000000000e+00  0.0000000000000000e+00  0.0000000000000000e+00  0.0000000000000000e+00  0.0000000000000000e+00  0.0000000000000000e+00  0.0000000000000000e+00  0.0000000000000000e+00  0.0000000000000000e+00  0.0000000000000000e+00  0.0000000000000000e+00  0.0000000000000000e+00  0.0000000000000000e+00  0.0000000000000000e+00  0.0000000000000000e+00  0.0000000000000000e+00  0.0000000000000000e+00  0.0000000000000000e+00  0.0000000000000000e+00  0.0000000000000000e+00  0.0000000000000000e+00  0.0000000000000000e+00  0.0000000000000000e+00  0.0000000000000000e+00  0.0000000000000000e+00  0.0000000000000000e+00  0.0000000000000000e+00  0.0000000000000000e+00  0.0000000000000000e+00  0.0000000000000000e+00  0.0000000000000000e+00  0.0000000000000000e+00  0.0000000000000000e+00  0.0000000000000000e+00  0.0000000000000000e+00  0.0000000000000000e+00  0.0000000000000000e+00  0.0000000000000000e+00  0.0000000000000000e+00  0.0000000000000000e+00  0.0000000000000000e+00  0.0000000000000000e+00  0.0000000000000000e+00  0.0000000000000000e+00  0.0000000000000000e+00  0.0000000000000000e+00  0.0000000000000000e+00  0.0000000000000000e+00  0.0000000000000000e+00  0.0000000000000000e+00  0.0000000000000000e+00  0.0000000000000000e+00  0.0000000000000000e+00  0.0000000000000000e+00  0.0000000000000000e+00  0.0000000000000000e+00  0.0000000000000000e+00  0.0000000000000000e+00  0.0000000000000000e+00  0.0000000000000000e+00  0.0000000000000000e+00  0.0000000000000000e+00  0.0000000000000000e+00  0.0000000000000000e+00  0.0000000000000000e+00  0.0000000000000000e+00  0.0000000000000000e+00  0.0000000000000000e+00  0.0000000000000000e+00  0.0000000000000000e+00  0.0000000000000000e+00  0.0000000000000000e+00  0.0000000000000000e+00  0.0000000000000000e+00  0.0000000000000000e+00  0.0000000000000000e+00  0.0000000000000000e+00  0.0000000000000000e+00  9.6384909172184470e-10  2.0894547069601718e-09  3.4069676548397113e-09  4.9512038419540386e-09  6.7627554005045857e-09  8.8888352000588702e-09  1.1384225192759166e-08  1.4312333567886296e-08  1.7746366791228266e-08  2.1770621926543968e-08  2.6481903284961025e-08  3.1991065572185720e-08  3.8424683272883909e-08  4.5926842969404930e-08  5.4661051581892122e-08  6.4812249092488641e-08  7.6588909148112194e-08  9.0225205017721615e-08  1.0598321173521417e-07  1.2415510795034339e-07  1.4506533314543585e-07  1.6907264761647745e-07  1.9657203418390918e-07  2.2799637227542089e-07  2.6381780715956124e-07  3.0454873011748697e-07  3.5074227968928464e-07  4.0299227033345989e-07  4.6193245343119765e-07  5.2823501708913788e-07  6.0260823615308233e-07  6.8579319268040488e-07  7.7855950016300767e-07  8.8169998222742369e-07  9.9602427835495959e-07  1.1223513751265344e-06  1.2615010911139235e-06  1.4142845760538189e-06  1.5814939193302011e-06  1.7638909977884117e-06  1.9621957270456003e-06  2.1770739121464733e-06  2.4091249209865813e-06  2.6588694257789480e-06  2.9267374725106824e-06  3.2130571446150854e-06  3.5180440841068027e-06  3.8417921207502633e-06  4.1842652374840962e-06  4.5452910688252385e-06  4.9245560893149714e-06  5.3216026026528929e-06  5.7358275907322317e-06  6.1664834272993138e-06  6.6126804054607311e-06  7.0733909737582208e-06  7.5474555238523937e-06  8.0335895255402203e-06  8.5303917630286115e-06  9.0363533908023436e-06  9.5498674982782642e-06  1.0069238849469850e-05  1.0592693446382547e-05  1.1118387551704711e-05  1.1644415796107557e-05  1.2168817986424239e-05  1.2689584221284980e-05  1.3204657908501489e-05  1.3711936261673328e-05  1.4209267830249331e-05  1.4694446585850801e-05  1.5165202046447864e-05  1.5619184867573680e-05  1.6053947264992076e-05  1.6466917555198641e-05  1.6855368008224504e-05  1.7216375101160215e-05  1.7546771140760101e-05  1.7843086090033938e-05  1.8101478288071219e-05  1.8317652596368300e-05  1.8486764341407734e-05  1.8603307256015089e-05  1.8660983456253162e-05  1.8652553333086375e-05  1.8569663097489455e-05  1.8402647605169019e-05  1.8140306016492642e-05  1.7769647835751673e-05  1.7275606942536028e-05  1.6640721402204026e-05  1.5844777152621434e-05  1.4864414146429287e-05  1.3672694223420817e-05  1.2238630940451132e-05  1.0526682828795116e-05  8.4962130114042405e-06  6.1009190364252439e-06  3.2882334607844579e-06  0.0000000000000000e+00  0.0000000000000000e+00  2.0565793279843474e-09  4.4587781845859608e-09  7.2706143890973142e-09  1.0566481316647329e-08  1.4433113217676711e-08  1.8971401842907765e-08  2.4298428863620173e-08  3.0549730549543553e-08  3.7881808887110284e-08  4.6474901003511914e-08  5.6536015731239724e-08  6.8302242104345621e-08  8.2044329359982378e-08  9.8070531485589971e-08  1.1673070137698514e-07  1.3842061015302350e-07  1.6358645604189547e-07  1.9272951449614165e-07  2.2641086685760312e-07  2.6525612911180451e-07  3.0996008527519163e-07  3.6129111209515413e-07  4.2009526348805607e-07  4.8729986510964451e-07  5.6391645240294647e-07  6.5104287029715278e-07  7.4986434045681751e-07  8.6165329372091951e-07  9.8776776229967628e-07  1.1296481295898790e-06  1.2888120462371630e-06  1.4668473402803902e-06  1.6654027775872945e-06  1.8861765667316693e-06  2.1309025499508585e-06  2.4013340783401201e-06  2.6992256339106244e-06  3.0263123318945524e-06  3.3842875114747383e-06  3.7747786991640251e-06  4.1993223031416856e-06  4.6593374654547697e-06  5.1560995584863366e-06  5.6907138589569351e-06  6.2640899637737781e-06  6.8769175246498274e-06  7.5296438707325259e-06  8.2224540595964645e-06  8.9552538469998844e-06  9.7276559959966475e-06  1.0538970258582745e-05  1.1388197261201822e-05  1.2274026413014489e-05  1.3194837837192893e-05  1.4148708205152223e-05  1.5133420235964732e-05  1.6146475512200820e-05  1.7185110162416081e-05  1.8246312871899891e-05  1.9326844608567301e-05  2.0423259390389651e-05  2.1531925373852267e-05  2.2649045507938129e-05  2.3770676972551331e-05  2.4892748600890588e-05  2.6011075468330958e-05  2.7121369811799107e-05  2.8219247419223840e-05  2.9300228594202216e-05  3.0359732752504803e-05  3.1393065640675020e-05  3.2395398079359058e-05  3.3361735022166600e-05  3.4286873582358683e-05  3.5165348512591080e-05  3.5991363426062364e-05  3.6758705820190214e-05  3.7460643706688393e-05  3.8089801365958754e-05  3.8638011431588218e-05  3.9096140176487340e-05  3.9453882521707185e-05  3.9699522930389827e-05  3.9819657993609597e-05  3.9798876176450492e-05  3.9619389890091574e-05  3.9260614812503981e-05  3.8698691226115355e-05  3.7905942112016550e-05  3.6850262881707093e-05  3.5494437993188758e-05  3.3795380353365453e-05  3.1703290430168357e-05  2.9160733475730902e-05  2.6101635300363870e-05  2.2450199756787568e-05  1.8119754668387993e-05  1.3011537997183483e-05  7.0134500847478247e-06  0.0000000000000000e+00  0.0000000000000000e+00  3.2929076638023159e-09  7.1395346438662021e-09  1.1642379202995642e-08  1.6920775078132732e-08  2.3113884344372028e-08  3.0383619104207033e-08  3.8917914474537990e-08  4.8934377201064430e-08  6.0684332828468754e-08  7.4457290896889342e-08  9.0585842772055216e-08  1.0945100019924442e-07  1.3148797424699042e-07  1.5719238373908708e-07  1.8712686935102587e-07  2.2192807409644254e-07  2.6231393283561653e-07  3.0909119266814097e-07  3.6316306269944473e-07  4.2553686590497010e-07  4.9733153802890610e-07  5.7978478920948578e-07  6.7425971409686491e-07  7.8225060663041886e-07  9.0538770761573274e-07  1.0454405882655398e-06  1.2043198526297534e-06  1.3840768281892803e-06  1.5869009087770838e-06  1.8151142193769223e-06  2.0711632900884864e-06  2.3576074582494392e-06  2.6771037645909519e-06  3.0323881720451162e-06  3.4262530143894066e-06  3.8615206754366048e-06  4.3410136061499079e-06  4.8675209040818784e-06  5.4437618031190097e-06  6.0723465469814278e-06  6.7557352418664984e-06  7.4961953961365004e-06  8.2957589519605524e-06  9.1561796894518879e-06  1.0078891932803668e-05  1.1064971505911687e-05  1.2115099869002282e-05  1.3229532316491359e-05  1.4408071030100523e-05  1.5650043662396636e-05  1.6954287978385385e-05  1.8319142912083093e-05  1.9742446207776496e-05  2.1221538619355665e-05  2.2753274443289658e-05  2.4334037968849298e-05  2.5959765249633118e-05  2.7625970438705137e-05  2.9327775789575577e-05  3.1059944309004800e-05  3.2816913955538257e-05  3.4592832208387215e-05  3.6381589781729344e-05  3.8176852225310546e-05  3.9972088127866146e-05  4.1760592619045633e-05  4.3535504841442633e-05  4.5289818030058296e-05  4.7016380785204161e-05  4.8707888049958012e-05  5.0356860198779649e-05  5.1955608504389393e-05  5.3496185070847831e-05  5.4970315098140855e-05  5.6369309074555908e-05  5.7683952175854232e-05  5.8904367783943827e-05  6.0019851623037148e-05  6.1018672550291355e-05  6.1887835534767647e-05  6.2612801819647478e-05  6.3177160697371190e-05  6.3562246748689243e-05  6.3746695821961067e-05  6.3705932481289084e-05  6.3411581160728584e-05  6.2830792864367998e-05  6.1925478995515751e-05  6.0651443840787331e-05  5.8957407447896865e-05  5.6783911205904630e-05  5.4062099467364485e-05  5.0712372166665065e-05  4.6642905733509581e-05  4.1748042846740689e-05  3.5906555929987298e-05  2.8979795036690157e-05  2.0809738316113993e-05  1.1216974316736541e-05  0.0000000000000000e+00  0.0000000000000000e+00  4.6889311877050713e-09  1.0166714562477035e-08  1.6579513649045478e-08  2.4097684289898539e-08  3.2919947346031917e-08  4.3277580112247434e-08  5.5439114196816993e-08  6.9715575578764928e-08  8.6466300248926471e-08  1.0610535404830564e-07  1.2910857841040266e-07  1.5602127437369053e-07  1.8746652510541091e-07  2.2415414192207651e-07  2.6689020008806285e-07  3.1658710825779977e-07  3.7427412911896294e-07  4.4110823853110969e-07  5.1838517633026799e-07  6.0755050427716362e-07  7.1021044589843205e-07  8.2814224002217763e-07  9.6330369577668126e-07  1.1178415931850006e-06  1.2940985320887148e-06  1.4946177951628678e-06  1.7221457607521197e-06  1.9796313809317964e-06  2.2702222325007401e-06  2.5972566564912960e-06  2.9642515280302154e-06  3.3748852454415750e-06  3.8329755972013904e-06  4.3424522587578638e-06  4.9073237882806245e-06  5.5316391297821253e-06  6.2194437910170332e-06  6.9747310378481910e-06  7.8013886306073608e-06  8.7031418142455913e-06  9.6834934545216341e-06  1.0745662378148803e-05  1.1892521116508614e-05  1.3126534361376492e-05  1.4449699509177140e-05  1.5863490691238293e-05  1.7368807657079888e-05  1.8965930794217454e-05  2.0654483432295655e-05  2.2433402395439124e-05  2.4300917541000251e-05  2.6254540764149205e-05  2.8291064666443208e-05  3.0406570794072770e-05  3.2596447059569964e-05  3.4855413680437979e-05  3.7177556709174060e-05  3.9556367999290890e-05  4.1984790256591973e-05  4.4455265666822926e-05  4.6959786469852319e-05  4.9489945764042141e-05  5.2036986767367742e-05  5.4591848727079048e-05  5.7145207648663871e-05  5.9687509997955881e-05  6.2208997507252049e-05  6.4699721176995453e-05  6.7149542498956107e-05  6.9548119825515022e-05  7.1884877664068529e-05  7.4148956478179735e-05  7.6329140321477982e-05  7.8413759311271028e-05  8.0390563562493785e-05  8.2246564746533472e-05  8.3967840912798695e-05  8.5539299614630749e-05  8.6944393718475479e-05  8.8164783551983677e-05  8.9179938272014386e-05  8.9966668520585866e-05  9.0498581603915974e-05  9.0745449601352214e-05  9.0672480019447641e-05  9.0239477893264960e-05  8.9399887655104059e-05  8.8099702706605237e-05  8.6276230525922853e-05  8.3856701418335704e-05  8.0756709798816210e-05  7.6878478325918470e-05  7.2108937463093828e-05  6.6317616332939081e-05  5.9354345294181832e-05  5.1046776792094798e-05  4.1197739025112589e-05  2.9582447100146272e-05  1.5945611329945308e-05  0.0000000000000000e+00  0.0000000000000000e+00  6.2626855198355051e-09  1.3579515664439971e-08  2.2146178890395425e-08  3.2190945041080071e-08  4.3980191454556822e-08  5.7824055461544286e-08  7.4082773777449720e-08  9.3173758332146758e-08  1.1557945478189405e-07  1.4185602355483239e-07  1.7264287403499118e-07  2.0867306990788124e-07  2.5078460727909170e-07  2.9993254644768278e-07  3.5720195271564060e-07  4.2382157096038594e-07  5.0117812261810007e-07  5.9083107211033819e-07  6.9452766269912527e-07  8.1421796965528315e-07  9.5206966218682637e-07  1.1104821059118822e-06  1.2920993763383949e-06  1.4998216928885301e-06  1.7368147250519652e-06  2.0065161703504829e-06  2.3126389614940077e-06  2.6591704313319678e-06  3.0503667531213506e-06  3.4907419844597472e-06  3.9850510799841950e-06  4.5382663041334170e-06  5.1555465735971958e-06  5.8421993910290182e-06  6.6036351971349733e-06  7.4453141654817391e-06  8.3726856893127961e-06  9.3911210561352804e-06  1.0505840065464085e-05  1.1721832607514262e-05  1.3043776473843632e-05  1.4475952901953383e-05  1.6022161551353075e-05  1.7685636755844589e-05  1.9468966984518185e-05  2.1374019463301538e-05  2.3401871854148618e-05  2.5552752758162876e-05  2.7825992604297529e-05  3.0219986213083041e-05  3.2732167995265551e-05  3.5359000371673759e-05  3.8095975598779666e-05  4.0937630771212888e-05  4.3877575364926994e-05  4.6908530298646940e-05  5.0022377140309491e-05  5.3210215780015133e-05  5.6462428638432537e-05  5.9768749282518695e-05  6.3118333177710045e-05  6.6499828212488311e-05  6.9901442579241952e-05  7.3311007573760470e-05  7.6716032871732397e-05  8.0103751840263050e-05  8.3461154431223200e-05  8.6775005166832628e-05  9.0031843652598267e-05  9.3217964925920618e-05  9.6319376759056635e-05  9.9321730772882779e-05  1.0221022387487636e-04  1.0496946610443911e-04  1.0758331044644617e-04  1.1003463955686421e-04  1.1230510363171767e-04  1.1437480284418379e-04  1.1622190687859690e-04  1.1782220311247223e-04  1.1914856395042903e-04  1.2017032271449942e-04  1.2085254636779041e-04  1.2115519222509965e-04  1.2103213472729376e-04  1.2043004738084827e-04  1.1928712415973486e-04  1.1753162412151767e-04  1.1508022281204974e-04  1.1183615435727440e-04  1.0768712912891339e-04  1.0250301371871820e-04  9.6133262896267604e-05  8.8404097532317457e-05  7.9115428463101184e-05  6.8037534316719571e-05  5.4907511825791535e-05  3.9425530543201015e-05  2.1250943662896578e-05  0.0000000000000000e+00  0.0000000000000000e+00  8.0343226828306914e-09  1.7421742300431432e-08  2.8414102479685682e-08  4.1305401090871121e-08  5.6438872023222426e-08  7.4214322177177623e-08  9.5096366465430203e-08  1.1962362702653983e-07  1.4841895861124116e-07  1.8220075394084392e-07  2.2179537093645149e-07  2.6815070741363123e-07  3.2235092745076886e-07  3.8563231649863043e-07  4.5940020877380574e-07  5.4524689002750870e-07  6.4497033100511345e-07  7.6059355162185218e-07  8.9438435317262209e-07  1.0488750862333276e-06  1.2268820462175388e-06  1.4315240082869824e-06  1.6662393305596329e-06  1.9348009720801236e-06  2.2413286932984167e-06  2.5902976360463436e-06  2.9865424220748058e-06  3.4352558695348232e-06  3.9419814111338568e-06  4.5125983119523650e-06  5.1532988346915898e-06  5.8705565903986108e-06  6.6710854472853914e-06  7.5617885512717585e-06  8.5496972393177842e-06  9.6418998978300202e-06  1.0845461127821231e-05  1.2167331917314499e-05  1.3614251877824389e-05  1.5192644960897445e-05  1.6908510415652962e-05  1.8767311060604366e-05  2.0773861203987022e-05  2.2932216738510484e-05  2.5245570043297406e-05  2.7716152335738103e-05  3.0345146021757753e-05  3.3132609392790862e-05  3.6077415715804398e-05  3.9177208369190142e-05  4.2428373207869910e-05  4.5826028815574145e-05  4.9364034744059277e-05  5.3035017272518481e-05  5.6830411669737866e-05  6.0740519428708465e-05  6.4754578486886645e-05  6.8860844058801722e-05  7.3046677399422517e-05  7.7298639588946290e-05  8.1602587279108857e-05  8.5943767259172890e-05  9.0306906673501169e-05  9.4676295735765601e-05  9.9035859818812641e-05  1.0336921783425403e-04  1.0765972383202698e-04  1.1189048872817676e-04  1.1604437899094814e-04  1.2010398896469289e-04  1.2405158327391625e-04  1.2786900541400385e-04  1.3153754819104717e-04  1.3503778111323466e-04  1.3834932915527260e-04  1.4145059651236237e-04  1.4431842803103081e-04  1.4692769995311376e-04  1.4925083044232856e-04  1.5125719909026556e-04  1.5291246323561743e-04  1.5417775749899110e-04  1.5500876146596037e-04  1.5535461898369209e-04  1.5515669112497495e-04  1.5434712358691313e-04  1.5284720821812645e-04  1.5056551761906525e-04  1.4739579147311061e-04  1.4321455361141866e-04  1.3787843999870571e-04  1.3122122009938210e-04  1.2305049774039836e-04  1.1314408297887299e-04  1.0124603401699786e-04  8.7062378352973600e-05  7.0256535646600777e-05  5.0444481819651919e-05  2.7189718741771428e-05  0.0000000000000000e+00  0.0000000000000000e+00  1.0026298989389452e-08  2.1742218264216314e-08  3.5463260995286392e-08  5.1558014856860768e-08  7.0457025088950654e-08  9.2662077268939910e-08  1.1875662600675455e-07  1.4941745604449335e-07  1.8542765706506366e-07  2.2769098343955715e-07  2.7724765526263378e-07  3.3529163646009314e-07  4.0318939859379062e-07  4.8250014432790131e-07  5.7499742149535161e-07  6.8269200655748983e-07  8.0785587440617585e-07  9.5304699960491170e-07  1.1211346523628751e-06  1.3153247613236674e-06  1.5391848157729333e-06  1.7966676739939784e-06  2.0921335349335711e-06  2.4303692207178729e-06  2.8166038125067478e-06  3.2565195873181664e-06  3.7562571253545567e-06  4.3224134033730857e-06  4.9620316676575160e-06  5.6825818982481923e-06  6.4919307420499415e-06  7.3982999131656525e-06  8.4102122396394366e-06  9.5364247797991426e-06  1.0785848738619097e-05  1.2167456281370851e-05  1.3690174760513741e-05  1.5362769330068949e-05  1.7193715402977268e-05  1.9191062890513286e-05  2.1362294624879479e-05  2.3714181780834041e-05  2.6252639453441755e-05  2.8982585792063895e-05  3.1907808214231778e-05  3.5030840211087434e-05  3.8352852099567197e-05  4.1873558774469644e-05  4.5591147073663386e-05  4.9502224808093183e-05  5.3601792848658977e-05  5.7883240934181936e-05  6.2338367102100344e-05  6.6957419881198498e-05  7.1729161657287468e-05  7.6640950958388788e-05  8.1678840829944434e-05  8.6827689999910169e-05  9.2071283177154800e-05  9.7392456584868945e-05  1.0277322469622271e-04  1.0819490409788341e-04  1.1363823043816268e-04  1.1908346449643213e-04  1.2451048351254599e-04  1.2989885401200189e-04  1.3522788242761172e-04  1.4047663982627034e-04  1.4562395697707712e-04  1.5064838582450117e-04  1.5552812314046258e-04  1.6024089170824045e-04  1.6476377382811005e-04  1.6907299122158017e-04  1.7314362454282336e-04  1.7694926467992078e-04  1.8046158684538498e-04  1.8364983711884931e-04  1.8648021962256334e-04  1.8891517089505302e-04  1.9091250629881887e-04  1.9242442148103376e-04  1.9339633003864870e-04  1.9376551667053902e-04  1.9345958329452378e-04  1.9239466395072467e-04  1.9047338291288128e-04  1.8758252942222318e-04  1.8359042201428777e-04  1.7834393573713757e-04  1.7166516691521092e-04  1.6334771280465156e-04  1.5315254788138928e-04  1.4080348503720395e-04  1.2598221913974139e-04  1.0832296282759678e-04  8.7406700734242139e-05  6.2755109338141004e-05  3.3824219887204656e-05  0.0000000000000000e+00  0.0000000000000000e+00  1.2263568492503348e-08  2.6595210564140611e-08  4.3382581954769147e-08  6.3078909353888770e-08  8.6213929013046386e-08  1.1340542086814080e-07  1.4537218058507978e-07  1.8294854086364385e-07  2.2710054725804958e-07  2.7894388165253198e-07  3.3976360833397141e-07  4.1103579218293009e-07  4.9445100465888451e-07  5.9193968977232070e-07  7.0569930794880216e-07  8.3822310955238592e-07  9.9233031101911558e-07  1.1711973545596235e-06  1.3783898271956935e-06  1.6178944970931739e-06  1.8941507961238866e-06  2