<?xml version="1.0"?>
<VTKFile type="UnstructuredGrid"  version="0.1"  >
<UnstructuredGrid>
<Piece  NumberOfPoints="10201" NumberOfCells="20000">
<Points>
<DataArray  type="Float64"  NumberOfComponents="3"  format="ascii">0 0 0  0.01 0 0  0.02 0 0  0.03 0 0  0.04 0 0  0.05 0 0  0.06 0 0  0.07000000000000001 0 0  0.08 0 0  0.09 0 0  0.1 0 0  0.11 0 0  0.12 0 0  0.13 0 0  0.14 0 0  0.15 0 0  0.16 0 0  0.17 0 0  0.18 0 0  0.19 0 0  0.2 0 0  0.21 0 0  0.22 0 0  0.23 0 0  0.24 0 0  0.25 0 0  0.26 0 0  0.27 0 0  0.28 0 0  0.29 0 0  0.3 0 0  0.31 0 0  0.32 0 0  0.33 0 0  0.34 0 0  0.35 0 0  0.36 0 0  0.37 0 0  0.38 0 0  0.39 0 0  0.4 0 0  0.41 0 0  0.42 0 0  0.43 0 0  0.44 0 0  0.45 0 0  0.46 0 0  0.47 0 0  0.48 0 0  0.49 0 0  0.5 0 0  0.51 0 0  0.52 0 0  0.53 0 0  0.54 0 0  0.55 0 0  0.5600000000000001 0 0  0.57 0 0  0.58 0 0  0.59 0 0  0.6 0 0  0.61 0 0  0.62 0 0  0.63 0 0  0.64 0 0  0.65 0 0  0.66 0 0  0.67 0 0  0.68 0 0  0.6899999999999999 0 0  0.7 0 0  0.71 0 0  0.72 0 0  0.73 0 0  0.74 0 0  0.75 0 0  0.76 0 0  0.77 0 0  0.78 0 0  0.79 0 0  0.8 0 0  0.8100000000000001 0 0  0.82 0 0  0.83 0 0  0.84 0 0  0.85 0 0  0.86 0 0  0.87 0 0  0.88 0 0  0.89 0 0  0.9 0 0  0.91 0 0  0.92 0 0  0.93 0 0  0.9399999999999999 0 0  0.95 0 0  0.96 0 0  0.97 0 0  0.98 0 0  0.99 0 0  1 0 0  0 0.01 0  0.01 0.01 0  0.02 0.01 0  0.03 0.01 0  0.04 0.01 0  0.05 0.01 0  0.06 0.01 0  0.07000000000000001 0.01 0  0.08 0.01 0  0.09 0.01 0  0.1 0.01 0  0.11 0.01 0  0.12 0.01 0  0.13 0.01 0  0.14 0.01 0  0.15 0.01 0  0.16 0.01 0  0.17 0.01 0  0.18 0.01 0  0.19 0.01 0  0.2 0.01 0  0.21 0.01 0  0.22 0.01 0  0.23 0.01 0  0.24 0.01 0  0.25 0.01 0  0.26 0.01 0  0.27 0.01 0  0.28 0.01 0  0.29 0.01 0  0.3 0.01 0  0.31 0.01 0  0.32 0.01 0  0.33 0.01 0  0.34 0.01 0  0.35 0.01 0  0.36 0.01 0  0.37 0.01 0  0.38 0.01 0  0.39 0.01 0  0.4 0.01 0  0.41 0.01 0  0.42 0.01 0  0.43 0.01 0  0.44 0.01 0  0.45 0.01 0  0.46 0.01 0  0.47 0.01 0  0.48 0.01 0  0.49 0.01 0  0.5 0.01 0  0.51 0.01 0  0.52 0.01 0  0.53 0.01 0  0.54 0.01 0  0.55 0.01 0  0.5600000000000001 0.01 0  0.57 0.01 0  0.58 0.01 0  0.59 0.01 0  0.6 0.01 0  0.61 0.01 0  0.62 0.01 0  0.63 0.01 0  0.64 0.01 0  0.65 0.01 0  0.66 0.01 0  0.67 0.01 0  0.68 0.01 0  0.6899999999999999 0.01 0  0.7 0.01 0  0.71 0.01 0  0.72 0.01 0  0.73 0.01 0  0.74 0.01 0  0.75 0.01 0  0.76 0.01 0  0.77 0.01 0  0.78 0.01 0  0.79 0.01 0  0.8 0.01 0  0.8100000000000001 0.01 0  0.82 0.01 0  0.83 0.01 0  0.84 0.01 0  0.85 0.01 0  0.86 0.01 0  0.87 0.01 0  0.88 0.01 0  0.89 0.01 0  0.9 0.01 0  0.91 0.01 0  0.92 0.01 0  0.93 0.01 0  0.9399999999999999 0.01 0  0.95 0.01 0  0.96 0.01 0  0.97 0.01 0  0.98 0.01 0  0.99 0.01 0  1 0.01 0  0 0.02 0  0.01 0.02 0  0.02 0.02 0  0.03 0.02 0  0.04 0.02 0  0.05 0.02 0  0.06 0.02 0  0.07000000000000001 0.02 0  0.08 0.02 0  0.09 0.02 0  0.1 0.02 0  0.11 0.02 0  0.12 0.02 0  0.13 0.02 0  0.14 0.02 0  0.15 0.02 0  0.16 0.02 0  0.17 0.02 0  0.18 0.02 0  0.19 0.02 0  0.2 0.02 0  0.21 0.02 0  0.22 0.02 0  0.23 0.02 0  0.24 0.02 0  0.25 0.02 0  0.26 0.02 0  0.27 0.02 0  0.28 0.02 0  0.29 0.02 0  0.3 0.02 0  0.31 0.02 0  0.32 0.02 0  0.33 0.02 0  0.34 0.02 0  0.35 0.02 0  0.36 0.02 0  0.37 0.02 0  0.38 0.02 0  0.39 0.02 0  0.4 0.02 0  0.41 0.02 0  0.42 0.02 0  0.43 0.02 0  0.44 0.02 0  0.45 0.02 0  0.46 0.02 0  0.47 0.02 0  0.48 0.02 0  0.49 0.02 0  0.5 0.02 0  0.51 0.02 0  0.52 0.02 0  0.53 0.02 0  0.54 0.02 0  0.55 0.02 0  0.5600000000000001 0.02 0  0.57 0.02 0  0.58 0.02 0  0.59 0.02 0  0.6 0.02 0  0.61 0.02 0  0.62 0.02 0  0.63 0.02 0  0.64 0.02 0  0.65 0.02 0  0.66 0.02 0  0.67 0.02 0  0.68 0.02 0  0.6899999999999999 0.02 0  0.7 0.02 0  0.71 0.02 0  0.72 0.02 0  0.73 0.02 0  0.74 0.02 0  0.75 0.02 0  0.76 0.02 0  0.77 0.02 0  0.78 0.02 0  0.79 0.02 0  0.8 0.02 0  0.8100000000000001 0.02 0  0.82 0.02 0  0.83 0.02 0  0.84 0.02 0  0.85 0.02 0  0.86 0.02 0  0.87 0.02 0  0.88 0.02 0  0.89 0.02 0  0.9 0.02 0  0.91 0.02 0  0.92 0.02 0  0.93 0.02 0  0.9399999999999999 0.02 0  0.95 0.02 0  0.96 0.02 0  0.97 0.02 0  0.98 0.02 0  0.99 0.02 0  1 0.02 0  0 0.03 0  0.01 0.03 0  0.02 0.03 0  0.03 0.03 0  0.04 0.03 0  0.05 0.03 0  0.06 0.03 0  0.07000000000000001 0.03 0  0.08 0.03 0  0.09 0.03 0  0.1 0.03 0  0.11 0.03 0  0.12 0.03 0  0.13 0.03 0  0.14 0.03 0  0.15 0.03 0  0.16 0.03 0  0.17 0.03 0  0.18 0.03 0  0.19 0.03 0  0.2 0.03 0  0.21 0.03 0  0.22 0.03 0  0.23 0.03 0  0.24 0.03 0  0.25 0.03 0  0.26 0.03 0  0.27 0.03 0  0.28 0.03 0  0.29 0.03 0  0.3 0.03 0  0.31 0.03 0  0.32 0.03 0  0.33 0.03 0  0.34 0.03 0  0.35 0.03 0  0.36 0.03 0  0.37 0.03 0  0.38 0.03 0  0.39 0.03 0  0.4 0.03 0  0.41 0.03 0  0.42 0.03 0  0.43 0.03 0  0.44 0.03 0  0.45 0.03 0  0.46 0.03 0  0.47 0.03 0  0.48 0.03 0  0.49 0.03 0  0.5 0.03 0  0.51 0.03 0  0.52 0.03 0  0.53 0.03 0  0.54 0.03 0  0.55 0.03 0  0.5600000000000001 0.03 0  0.57 0.03 0  0.58 0.03 0  0.59 0.03 0  0.6 0.03 0  0.61 0.03 0  0.62 0.03 0  0.63 0.03 0  0.64 0.03 0  0.65 0.03 0  0.66 0.03 0  0.67 0.03 0  0.68 0.03 0  0.6899999999999999 0.03 0  0.7 0.03 0  0.71 0.03 0  0.72 0.03 0  0.73 0.03 0  0.74 0.03 0  0.75 0.03 0  0.76 0.03 0  0.77 0.03 0  0.78 0.03 0  0.79 0.03 0  0.8 0.03 0  0.8100000000000001 0.03 0  0.82 0.03 0  0.83 0.03 0  0.84 0.03 0  0.85 0.03 0  0.86 0.03 0  0.87 0.03 0  0.88 0.03 0  0.89 0.03 0  0.9 0.03 0  0.91 0.03 0  0.92 0.03 0  0.93 0.03 0  0.9399999999999999 0.03 0  0.95 0.03 0  0.96 0.03 0  0.97 0.03 0  0.98 0.03 0  0.99 0.03 0  1 0.03 0  0 0.04 0  0.01 0.04 0  0.02 0.04 0  0.03 0.04 0  0.04 0.04 0  0.05 0.04 0  0.06 0.04 0  0.07000000000000001 0.04 0  0.08 0.04 0  0.09 0.04 0  0.1 0.04 0  0.11 0.04 0  0.12 0.04 0  0.13 0.04 0  0.14 0.04 0  0.15 0.04 0  0.16 0.04 0  0.17 0.04 0  0.18 0.04 0  0.19 0.04 0  0.2 0.04 0  0.21 0.04 0  0.22 0.04 0  0.23 0.04 0  0.24 0.04 0  0.25 0.04 0  0.26 0.04 0  0.27 0.04 0  0.28 0.04 0  0.29 0.04 0  0.3 0.04 0  0.31 0.04 0  0.32 0.04 0  0.33 0.04 0  0.34 0.04 0  0.35 0.04 0  0.36 0.04 0  0.37 0.04 0  0.38 0.04 0  0.39 0.04 0  0.4 0.04 0  0.41 0.04 0  0.42 0.04 0  0.43 0.04 0  0.44 0.04 0  0.45 0.04 0  0.46 0.04 0  0.47 0.04 0  0.48 0.04 0  0.49 0.04 0  0.5 0.04 0  0.51 0.04 0  0.52 0.04 0  0.53 0.04 0  0.54 0.04 0  0.55 0.04 0  0.5600000000000001 0.04 0  0.57 0.04 0  0.58 0.04 0  0.59 0.04 0  0.6 0.04 0  0.61 0.04 0  0.62 0.04 0  0.63 0.04 0  0.64 0.04 0  0.65 0.04 0  0.66 0.04 0  0.67 0.04 0  0.68 0.04 0  0.6899999999999999 0.04 0  0.7 0.04 0  0.71 0.04 0  0.72 0.04 0  0.73 0.04 0  0.74 0.04 0  0.75 0.04 0  0.76 0.04 0  0.77 0.04 0  0.78 0.04 0  0.79 0.04 0  0.8 0.04 0  0.8100000000000001 0.04 0  0.82 0.04 0  0.83 0.04 0  0.84 0.04 0  0.85 0.04 0  0.86 0.04 0  0.87 0.04 0  0.88 0.04 0  0.89 0.04 0  0.9 0.04 0  0.91 0.04 0  0.92 0.04 0  0.93 0.04 0  0.9399999999999999 0.04 0  0.95 0.04 0  0.96 0.04 0  0.97 0.04 0  0.98 0.04 0  0.99 0.04 0  1 0.04 0  0 0.05 0  0.01 0.05 0  0.02 0.05 0  0.03 0.05 0  0.04 0.05 0  0.05 0.05 0  0.06 0.05 0  0.07000000000000001 0.05 0  0.08 0.05 0  0.09 0.05 0  0.1 0.05 0  0.11 0.05 0  0.12 0.05 0  0.13 0.05 0  0.14 0.05 0  0.15 0.05 0  0.16 0.05 0  0.17 0.05 0  0.18 0.05 0  0.19 0.05 0  0.2 0.05 0  0.21 0.05 0  0.22 0.05 0  0.23 0.05 0  0.24 0.05 0  0.25 0.05 0  0.26 0.05 0  0.27 0.05 0  0.28 0.05 0  0.29 0.05 0  0.3 0.05 0  0.31 0.05 0  0.32 0.05 0  0.33 0.05 0  0.34 0.05 0  0.35 0.05 0  0.36 0.05 0  0.37 0.05 0  0.38 0.05 0  0.39 0.05 0  0.4 0.05 0  0.41 0.05 0  0.42 0.05 0  0.43 0.05 0  0.44 0.05 0  0.45 0.05 0  0.46 0.05 0  0.47 0.05 0  0.48 0.05 0  0.49 0.05 0  0.5 0.05 0  0.51 0.05 0  0.52 0.05 0  0.53 0.05 0  0.54 0.05 0  0.55 0.05 0  0.5600000000000001 0.05 0  0.57 0.05 0  0.58 0.05 0  0.59 0.05 0  0.6 0.05 0  0.61 0.05 0  0.62 0.05 0  0.63 0.05 0  0.64 0.05 0  0.65 0.05 0  0.66 0.05 0  0.67 0.05 0  0.68 0.05 0  0.6899999999999999 0.05 0  0.7 0.05 0  0.71 0.05 0  0.72 0.05 0  0.73 0.05 0  0.74 0.05 0  0.75 0.05 0  0.76 0.05 0  0.77 0.05 0  0.78 0.05 0  0.79 0.05 0  0.8 0.05 0  0.8100000000000001 0.05 0  0.82 0.05 0  0.83 0.05 0  0.84 0.05 0  0.85 0.05 0  0.86 0.05 0  0.87 0.05 0  0.88 0.05 0  0.89 0.05 0  0.9 0.05 0  0.91 0.05 0  0.92 0.05 0  0.93 0.05 0  0.9399999999999999 0.05 0  0.95 0.05 0  0.96 0.05 0  0.97 0.05 0  0.98 0.05 0  0.99 0.05 0  1 0.05 0  0 0.06 0  0.01 0.06 0  0.02 0.06 0  0.03 0.06 0  0.04 0.06 0  0.05 0.06 0  0.06 0.06 0  0.07000000000000001 0.06 0  0.08 0.06 0  0.09 0.06 0  0.1 0.06 0  0.11 0.06 0  0.12 0.06 0  0.13 0.06 0  0.14 0.06 0  0.15 0.06 0  0.16 0.06 0  0.17 0.06 0  0.18 0.06 0  0.19 0.06 0  0.2 0.06 0  0.21 0.06 0  0.22 0.06 0  0.23 0.06 0  0.24 0.06 0  0.25 0.06 0  0.26 0.06 0  0.27 0.06 0  0.28 0.06 0  0.29 0.06 0  0.3 0.06 0  0.31 0.06 0  0.32 0.06 0  0.33 0.06 0  0.34 0.06 0  0.35 0.06 0  0.36 0.06 0  0.37 0.06 0  0.38 0.06 0  0.39 0.06 0  0.4 0.06 0  0.41 0.06 0  0.42 0.06 0  0.43 0.06 0  0.44 0.06 0  0.45 0.06 0  0.46 0.06 0  0.47 0.06 0  0.48 0.06 0  0.49 0.06 0  0.5 0.06 0  0.51 0.06 0  0.52 0.06 0  0.53 0.06 0  0.54 0.06 0  0.55 0.06 0  0.5600000000000001 0.06 0  0.57 0.06 0  0.58 0.06 0  0.59 0.06 0  0.6 0.06 0  0.61 0.06 0  0.62 0.06 0  0.63 0.06 0  0.64 0.06 0  0.65 0.06 0  0.66 0.06 0  0.67 0.06 0  0.68 0.06 0  0.6899999999999999 0.06 0  0.7 0.06 0  0.71 0.06 0  0.72 0.06 0  0.73 0.06 0  0.74 0.06 0  0.75 0.06 0  0.76 0.06 0  0.77 0.06 0  0.78 0.06 0  0.79 0.06 0  0.8 0.06 0  0.8100000000000001 0.06 0  0.82 0.06 0  0.83 0.06 0  0.84 0.06 0  0.85 0.06 0  0.86 0.06 0  0.87 0.06 0  0.88 0.06 0  0.89 0.06 0  0.9 0.06 0  0.91 0.06 0  0.92 0.06 0  0.93 0.06 0  0.9399999999999999 0.06 0  0.95 0.06 0  0.96 0.06 0  0.97 0.06 0  0.98 0.06 0  0.99 0.06 0  1 0.06 0  0 0.07000000000000001 0  0.01 0.07000000000000001 0  0.02 0.07000000000000001 0  0.03 0.07000000000000001 0  0.04 0.07000000000000001 0  0.05 0.07000000000000001 0  0.06 0.07000000000000001 0  0.07000000000000001 0.07000000000000001 0  0.08 0.07000000000000001 0  0.09 0.07000000000000001 0  0.1 0.07000000000000001 0  0.11 0.07000000000000001 0  0.12 0.07000000000000001 0  0.13 0.07000000000000001 0  0.14 0.07000000000000001 0  0.15 0.07000000000000001 0  0.16 0.07000000000000001 0  0.17 0.0700
[...]
<PointData  Scalars="u"> 
<DataArray  type="Float64"  Name="u"  format="ascii">0.0000000000000000e+00  0.0000000000000000e+00  0.0000000000000000e+00  0.0000000000000000e+00  0.0000000000000000e+00  0.0000000000000000e+00  0.0000000000000000e+00  0.0000000000000000e+00  0.0000000000000000e+00  0.0000000000000000e+00  0.0000000000000000e+00  0.0000000000000000e+00  0.0000000000000000e+00  0.0000000000000000e+00  0.0000000000000000e+00  0.0000000000000000e+00  0.0000000000000000e+00  0.0000000000000000e+00  0.0000000000000000e+00  0.0000000000000000e+00  0.0000000000000000e+00  0.0000000000000000e+00  0.0000000000000000e+00  0.0000000000000000e+00  0.0000000000000000e+00  0.0000000000000000e+00  0.0000000000000000e+00  0.0000000000000000e+00  0.0000000000000000e+00  0.0000000000000000e+00  0.0000000000000000e+00  0.0000000000000000e+00  0.0000000000000000e+00  0.0000000000000000e+00  0.0000000000000000e+00  0.0000000000000000e+00  0.0000000000000000e+00  0.0000000000000000e+00  0.0000000000000000e+00  0.0000000000000000e+00  0.0000000000000000e+00  0.0000000000000000e+00  0.0000000000000000e+00  0.0000000000000000e+00  0.0000000000000000e+00  0.0000000000000000e+00  0.0000000000000000e+00  0.0000000000000000e+00  0.0000000000000000e+00  0.0000000000000000e+00  0.0000000000000000e+00  0.0000000000000000e+00  0.0000000000000000e+00  0.0000000000000000e+00  0.0000000000000000e+00  0.0000000000000000e+00  0.0000000000000000e+00  0.0000000000000000e+00  0.0000000000000000e+00  0.0000000000000000e+00  0.0000000000000000e+00  0.0000000000000000e+00  0.0000000000000000e+00  0.0000000000000000e+00  0.0000000000000000e+00  0.0000000000000000e+00  0.0000000000000000e+00  0.0000000000000000e+00  0.0000000000000000e+00  0.0000000000000000e+00  0.0000000000000000e+00  0.0000000000000000e+00  0.0000000000000000e+00  0.0000000000000000e+00  0.0000000000000000e+00  0.0000000000000000e+00  0.0000000000000000e+00  0.0000000000000000e+00  0.0000000000000000e+00  0.0000000000000000e+00  0.0000000000000000e+00  0.0000000000000000e+00  0.0000000000000000e+00  0.0000000000000000e+00  0.0000000000000000e+00  0.0000000000000000e+00  0.0000000000000000e+00  0.0000000000000000e+00  0.0000000000000000e+00  0.0000000000000000e+00  0.0000000000000000e+00  0.0000000000000000e+00  0.0000000000000000e+00  0.0000000000000000e+00  0.0000000000000000e+00  0.0000000000000000e+00  0.0000000000000000e+00  0.0000000000000000e+00  0.0000000000000000e+00  0.0000000000000000e+00  0.0000000000000000e+00  0.0000000000000000e+00  9.2686994012123869e-10  1.9657069230480602e-09  3.1366950110247631e-09  4.4623751977055666e-09  5.9683451463897397e-09  7.6836201374734978e-09  9.6410273711352204e-09  1.1877630146793283e-08  1.4435180239351077e-08  1.7360596338127988e-08  2.0706465435912202e-08  2.4531562832902373e-08  2.8901385001739345e-08  3.3888687958413852e-08  3.9574022012036889e-08  4.6046251844492257e-08  5.3403048830200894e-08  6.1751340391315944e-08  7.1207699054442584e-08  8.1898651807621009e-08  9.3960888444042141e-08  1.0754134593180644e-07  1.2279714459251199e-07  1.3989535114389790e-07  1.5901254361003454e-07  1.8033415387604161e-07  2.0405356540705565e-07  2.3037094649229286e-07  2.5949180341756647e-07  2.9162524327826581e-07  3.2698194273338795e-07  3.6577182682045584e-07  4.0820147087813573e-07  4.5447124845379038e-07  5.0477225851780371e-07  5.5928307599281716e-07  6.1816638008660317e-07  6.8156552468493344e-07  7.4960112357091412e-07  8.2236772993689329e-07  8.9993069401695126e-07  9.8232328422814332e-07  1.0695441556039659e-06  1.1615552443064896e-06  1.2582801585515266e-06  1.3596031244946740e-06  1.4653685308165730e-06  1.5753810984081268e-06  1.6894066823479717e-06  1.8071736930695446e-06  1.9283751030988653e-06  2.0526709858987870e-06  2.1796915150422440e-06  2.3090403359311312e-06  2.4402982092177839e-06  2.5730268154370175e-06  2.7067726043823022e-06  2.8410705705144768e-06  2.9754478370257423e-06  3.1094269357623976e-06  3.2425286775524061e-06  3.3742745169933519e-06  3.5041883267729125e-06  3.6317975084387355e-06  3.7566333785543406e-06  3.8782307807813572e-06  3.9961268851193035e-06  4.1098591449300026e-06  4.2189623902214965e-06  4.3229650418454902e-06  4.4213844357846626e-06  4.5137212497063272e-06  4.5994530256856994e-06  4.6780267838035270e-06  4.7488507216345207e-06  4.8112849949744119e-06  4.8646315760779086e-06  4.9081231878255607e-06  4.9409113162829382e-06  4.9620533107826920e-06  4.9704985907184697e-06  4.9650739924986210e-06  4.9444683094250623e-06  4.9072161025382831e-06  4.8516808926481558e-06  4.7760378838371658e-06  4.6782564176961708e-06  4.5560824164722997e-06  4.4070211432165605e-06  4.2283206889300213e-06  4.0169566915671525e-06  3.7696189003650566e-06  3.4827003218424661e-06  3.1522898208140247e-06  2.7741691988700268e-06  2.3438159249076645e-06  1.8564128051536354e-06  1.3068657223864949e-06  6.8982924472795180e-07  0.0000000000000000e+00  0.0000000000000000e+00  2.0171214912549876e-09  4.2783628000131176e-09  6.8273280538046173e-09  9.7131691526206695e-09  1.2991693512548654e-08  1.6726164922273239e-08  2.0988167947754220e-08  2.5858536230655699e-08  3.1428342461082152e-08  3.7799945655852648e-08  4.5088089032810951e-08  5.3421039051152917e-08  6.2941753064600780e-08  7.3809059512628295e-08  8.6198830676273999e-08  1.0030512379167379e-07  1.1634126181400982e-07  1.3454082045460485e-07  1.5515848340542091e-07  1.7847072308572808e-07  2.0477626000067024e-07  2.3439625013398874e-07  2.6767414698530315e-07  3.0497518321317121e-07  3.4668541668547966e-07  3.9321028740183004e-07  4.4497263556078994e-07  5.0241013728814598e-07  5.6597212345335517e-07  6.3611575872827504e-07  7.1330157261990286e-07  7.9798835153159408e-07  8.9062742070459667e-07  9.9165636671103553e-07  1.1014922743668710e-06  1.2205245756777508e-06  1.3491076317217239e-06  1.4875531900749308e-06  1.6361228792791873e-06  1.7950209166939117e-06  1.9643872156871535e-06  2.1442910814617576e-06  2.3347256810716532e-06  2.5356034618554483e-06  2.7467526734676315e-06  2.9679151222047867e-06  3.1987452531184983e-06  3.4388106166056811e-06  3.6875937332613445e-06  3.9444953255442390e-06  4.2088388391936015e-06  4.4798761333520402e-06  4.7567941779246494e-06  5.0387225615633884e-06  5.3247415852217189e-06  5.6138906954870426e-06  5.9051769994247996e-06  6.1975835985381376e-06  6.4900774832837421e-06  6.7816167406018565e-06  7.0711568439950236e-06  7.3576558174673987e-06  7.6400780896185691e-06  7.9173968808472620e-06  8.1885949935007631e-06  8.4526639005983639e-06  8.7086010523688819e-06  8.9554053404458766e-06  9.1920706766219064e-06  9.4175776563343515e-06  9.6308832865920982e-06  9.8309087641792434e-06  1.0016525293256326e-05  1.0186537932710783e-05  1.0339667463755262e-05  1.0474530268465698e-05  1.0589616211452171e-05  1.0683264521043008e-05  1.0753637674716809e-05  1.0798693307612628e-05  1.0816154184455243e-05  1.0803476305909874e-05  1.0757815262087452e-05  1.0675991000608394e-05  1.0554451246349924e-05  1.0389233896884774e-05  1.0175928823879856e-05  9.9096396386213012e-06  9.5849461316371967e-06  9.1958682743204430e-06  8.7358328765968327e-06  8.1976442308591631e-06  7.5734603399580102e-06  6.8547766265456168e-06  6.0324193515809550e-06  5.0965513281871868e-06  4.0366929039618898e-06  2.8417616969343150e-06  1.5001369298887494e-06  0.0000000000000000e+00  0.0000000000000000e+00  3.2940741004827724e-09  6.9871393856198933e-09  1.1150377733909727e-08  1.5864252389837775e-08  2.1220143155564880e-08  2.7321661455114051e-08  3.4286073168651089e-08  4.2245827407450860e-08  5.1350187589938552e-08  6.1766957826499865e-08  7.3684293725937389e-08  8.7312582219573282e-08  1.0288636981942977e-07  1.2066631288165859e-07  1.4094111696536820e-07  1.6402942532676874e-07  1.9028160907881292e-07  2.2008140373701232e-07  2.5384732897918301e-07  2.9203382074848865e-07  3.3513199766787749e-07  3.8366997751684184e-07  4.3821265471561557e-07  4.9936084688545541e-07  5.6774971816003038e-07  6.4404638957893604e-07  7.2894665315074270e-07  8.2317071652830703e-07  9.2745792009716743e-07  1.0425603879006728e-06  1.1692355982840937e-06  1.3082378892665023e-06  1.4603089469946734e-06  1.6261673624361506e-06  1.8064973806383573e-06  2.0019370070036451e-06  2.2130656743987867e-06  2.4403917115892436e-06  2.6843398853720669e-06  2.9452393137501421e-06  3.2233120635168112e-06  3.5186627509233155e-06  3.8312694572971973e-06  4.1609762517175665e-06  4.5074875799302975e-06  4.8703647331214881e-06  5.2490245532270375e-06  5.6427404651209334e-06  6.0506458529024213e-06  6.4717397206806667e-06  6.9048945011169270e-06  7.3488658009847458e-06  7.8023038054502107e-06  8.2637660045840211e-06  8.7317308591569095e-06  9.2046119896898551e-06  9.6807724538795595e-06  1.0158538672922985e-05  1.0636213576157264e-05  1.1112088554355175e-05  1.1584453842956408e-05  1.2051606995071009e-05  1.2511859147657710e-05  1.2963538830231409e-05  1.3404993111306223e-05  1.3834585921338945e-05  1.4250693430394908e-05  1.4651696392776928e-05  1.5035969398599404e-05  1.5401866993425915e-05  1.5747706641780921e-05  1.6071748519205595e-05  1.6372172121567347e-05  1.6647049680913593e-05  1.6894316375934529e-05  1.7111737323964399e-05  1.7296871342508273e-05  1.7447031473807407e-05  1.7559242278380649e-05  1.7630193925377136e-05  1.7656193141664068e-05  1.7633111130712673e-05  1.7556328639549486e-05  1.7420678440475592e-05  1.7220385607246744e-05  1.6949006106420863e-05  1.6599364397213028e-05  1.6163490941131170e-05  1.5632560769607276e-05  1.4996834547430482e-05  1.4245603905487221e-05  1.3367143201222855e-05  1.2348670301913089e-05  1.1176319476090635e-05  9.8351300235728732e-06  8.3090548772365775e-06  6.5809940840624800e-06  4.6328588688281039e-06  2.4456734101074479e-06  0.0000000000000000e+00  0.0000000000000000e+00  4.7839034709637849e-09  1.0147651299875197e-08  1.6194807252763504e-08  2.3042618378817232e-08  3.0824279015631171e-08  3.9690859511750452e-08  4.9813394735032756e-08  6.1385129956697424e-08  7.4623918832417977e-08  8.9774763449284588e-08  1.0711248071396310e-07  1.2694447269285018e-07  1.4961357084617470e-07  1.7550091542145206e-07  2.0502882162725187e-07  2.3866357368929465e-07  2.7691807665519960e-07  3.2035428409489528e-07  3.6958530795946915e-07  4.2527710522469401e-07  4.8814962506831263e-07  5.5897729082385258e-07  6.3858868352391618e-07  7.2786528927909633e-07  8.2773917187981316e-07  9.3918943572767949e-07  1.0632373533517244e-06  1.2009400471199421e-06  1.3533826369551863e-06  1.5216687953306543e-06  1.7069096876878179e-06  1.9102113204567531e-06  2.1326603693994396e-06  2.3753086168895860e-06  2.6391561863235515e-06  2.9251338229541596e-06  3.2340845304180540e-06  3.5667449280796927e-06  3.9237267427956935e-06  4.3054988865065969e-06  4.7123705950375720e-06  5.1444761108713229e-06  5.6017613813076532e-06  6.0839732120530238e-06  6.5906512646233753e-06  7.1211232148709786e-06  7.6745033015154576e-06  8.2496943909505914e-06  8.8453935719658832e-06  9.4601011762580497e-06  1.0092133003036286e-05  1.0739635414049454e-05  1.1400602864095148e-05  1.2072897345987723e-05  1.2754269161603530e-05  1.3442378384370849e-05  1.4134816354530691e-05  1.4829126546455193e-05  1.5522824165843500e-05  1.6213413871224044e-05  1.6898405065557397e-05  1.7575324265987187e-05  1.8241724128802921e-05  1.8895188778367973e-05  1.9533335159322581e-05  2.0153810197490320e-05  2.0754283613939606e-05  2.1332436286673776e-05  2.1885944094323895e-05  2.2412457205663979e-05  2.2909574798155725e-05  2.3374815199130981e-05  2.3805581446271908e-05  2.4199122261897048e-05  2.4552488430730460e-05  2.4862484566194617e-05  2.5125616248950338e-05  2.5338032526766359e-05  2.5495463780387720e-05  2.5593154989624667e-05  2.5625794481328022e-05  2.5587438310374535e-05  2.5471430520588798e-05  2.5270319659231021e-05  2.4975772081057562e-05  2.4578482781013433e-05  2.4068084743525264e-05  2.3433058096457377e-05  2.2660640714449303e-05  2.1736742334887123e-05  2.0645864735251503e-05  1.9371031077677169e-05  1.7893728159209713e-05  1.6193866017545716e-05  1.4249760134216403e-05  1.2038142352081360e-05  9.5342075823213193e-06  6.7117044012686812e-06  3.5430793706737240e-06  0.0000000000000000e+00  0.0000000000000000e+00  6.5163889601781540e-09  1.3823173898197161e-08  2.2061872997630417e-08  3.1392879402385767e-08  4.1998471126215087e-08  5.4085472543484571e-08  6.7888138652962733e-08  8.3671259592491204e-08  1.0173347858617940e-07  1.2241080994657490e-07  1.4608033588107117e-07  1.7316405159025205e-07  2.0413281744651915e-07  2.3951036489459237e-07  2.7987728916893458e-07  3.2587494709828826e-07  3.7820916237618885e-07  4.3765362403753814e-07  5.0505284693652588e-07  5.8132454634768844e-07  6.6746126313134627e-07  7.6453106208583998e-07  8.7367711516131593e-07  9.9611597426609859e-07  1.1331343366820517e-06  1.2860841108908693e-06  1.4563756031527254e-06  1.6454686666280809e-06  1.8548616861552592e-06  2.0860783136506088e-06  2.3406519217269744e-06  2.6201078062390101e-06  2.9259432411324529e-06  3.2596055695518816e-06  3.6224686012358758e-06  4.0158076746258797e-06  4.4407738289620510e-06  4.8983676124947471e-06  5.3894131229954869e-06  5.9145329311006775e-06  6.4741245709840350e-06  7.0683392923316595e-06  7.6970637494365829e-06  8.3599052555693674e-06  9.0561811533083568e-06  9.7849127456507518e-06  1.0544824101681465e-05  1.1334345899250274e-05  1.2151624301849291e-05  1.2994534695121742e-05  1.3860699938191046e-05  1.4747512624346364e-05  1.5652160702105626e-05  1.6571655687800626e-05  1.7502862609598391e-05  1.8442530763488841e-05  1.9387324335452866e-05  2.0333851950031630e-05  2.1278694241270356e-05  2.2218428603404700e-05  2.3149650360428714e-05  2.4068989689859857e-05  2.4973123740360250e-05  2.5858783489321234e-05  2.6722754989542607e-05  2.7561874749052415e-05  2.8373019071261634e-05  2.9153087251533533e-05  2.9898978579546715e-05  3.0607563134364498e-05  3.1275646381754830e-05  3.1899927592821544e-05  3.2476952101966236e-05  3.3003057413798714e-05  3.3474313156545852e-05  3.3886454867865793e-05  3.4234811592148959e-05  3.4514227271031905e-05  3.4718975925828915e-05  3.4842670666982131e-05  3.4878166626746337e-05  3.4817458002706604e-05  3.4651569527195536e-05  3.4370442847342677e-05  3.3962818518774391e-05  3.3416114589612030e-05  3.2716303087390536e-05  3.1847786127048700e-05  3.0793273840535488e-05  2.9533666895099670e-05  2.8047947024964820e-05  2.6313079756282979e-05  2.4303934363557236e-05  2.1993227061392784e-05  1.9351494510957178e-05  1.6347105905586798e-05  1.2946323188354743e-05  9.1134203289156747e-06  4.8108748434138318e-06  0.0000000000000000e+00  0.0000000000000000e+00  8.5253692431325163e-09  1.8085621673555043e-08  2.8866697440351580e-08  4.1079532533490570e-08  5.4963954401849391e-08  7.0792219280846826e-08  8.8872849418806930e-08  1.0955476790838494e-07  1.3323172290951114e-07  1.6034698430756647e-07  1.9139828533396231e-07  2.2694296925779460e-07  2.6760328685238127e-07  3.1407177392140618e-07  3.6711661978487061e-07  4.2758691742322294e-07  4.9641766422985387e-07  5.7463435944581270e-07  6.6335702093429473e-07  7.6380342077474526e-07  8.7729131720052372e-07  1.0052394408642117e-06  1.1491669776901041e-06  1.3106912802471389e-06  1.4915235363737620e-06  1.6934621295155446e-06  1.9183834416961062e-06  2.1682298789116349e-06  2.4449949414410006e-06  2.7507052191061190e-06  3.0873992643252943e-06  3.4571033835471973e-06  3.8618044890934825e-06  4.3034202662945970e-06  4.7837670316820548e-06  5.3045257823881363e-06  5.8672070592513585e-06  6.4731153600351516e-06  7.1233139376815669e-06  7.8185908945271190e-06  8.5594275301063055e-06  9.3459699116197433e-06  1.0178004607807484e-05  1.1054939456211723e-05  1.1975790120321754e-05  1.2939173039133707e-05  1.3943305182136727e-05  1.4986010805062161e-05  1.6064735165418224e-05  1.7176564912929060e-05  1.8318254630334094e-05  1.9486258776359441e-05  2.0676768085913414e-05  2.1885749321854072e-05  2.3108987154854610e-05  2.4342126877008034e-05  2.5580716631936300e-05  2.6820247867465909e-05  2.8056192781917634e-05  2.9284037635121029e-05  3.0499310922227039e-05  3.1697605553255277e-05  3.2874594334873949e-05  3.4026038204446140e-05  3.5147786812119121e-05  3.6235771178300073e-05  3.7285988266467094e-05  3.8294477401870162e-05  3.9257288533935799e-05  4.0170442384382087e-05  4.1029882545863257e-05  4.1831419600313648e-05  4.2570667315926733e-05  4.3242970961549102e-05  4.3843327752411196e-05  4.4366299417200650e-05  4.4805916859461280e-05  4.5155576882358503e-05  4.5407930961387096e-05  4.5554766091218537e-05  4.5586877807441082e-05  4.5493935598570459e-05  4.5264341085865599e-05  4.4885079566019370e-05  4.4341565792953810e-05  4.3617485228405971e-05  4.2694632425781098e-05  4.1552748737243075e-05  4.0169362159732048e-05  3.8519632871071922e-05  3.6576208861764787e-05  3.4309097050032120e-05  3.1685556384562004e-05  2.8670020696933969e-05  2.5224060466872521e-05  2.1306394207451508e-05  1.6872961857296069e-05  1.1877074370661964e-05  6.2696565338646394e-06  0.0000000000000000e+00  0.0000000000000000e+00  1.0849245899107331e-08  2.3016624017681342e-08  3.6740002546191346e-08  5.2289459177959117e-08  6.9972229613549754e-08  9.0137292978387133e-08  1.1318035198846491e-07  1.3954920635427339e-07  1.6974951010243034e-07  2.0435089215118480e-07  2.4399340577050995e-07  2.8939425629992516e-07  3.4135473755233684e-07  4.0076728563864988e-07  4.6862253454446691e-07  5.4601623084618787e-07  6.3415583580211986e-07  7.3436661222545626e-07  8.4809696180226044e-07  9.7692274688263400e-07  1.1225503005559312e-06  1.2868178016280205e-06  1.4716946688513068e-06  1.6792786135880024e-06  1.9117899844043974e-06  2.1715630434257073e-06  2.4610338351727467e-06  2.7827243464613103e-06  3.1392227128513860e-06  3.5331593046124621e-06  3.9671786239513340e-06  4.4439070650101149e-06  4.9659167272795492e-06  5.5356856285016546e-06  6.1555548301675209e-06  6.8276831610348216e-06  7.5540003938595937e-06  8.3361598886601115e-06  9.1754918523681834e-06  1.0072958469469234e-05  1.1029112221425067e-05  1.2044058725783476e-05  1.3117425382430882e-05  1.4248337010766536e-05  1.5435399497420124e-05  1.6676692253050355e-05  1.7969770006192604e-05  1.9311674153156092e-05  2.0698953549731499e-05  2.2127694289230054e-05  2.3593557679401779e-05  2.5091825325056846e-05  2.6617449959167181e-05  2.8165110455556365e-05  2.9729269310059292e-05  3.1304230799084390e-05  3.2884198015243327e-05  3.4463327035267700e-05  3.6035776588214907e-05  3.7595751751454308e-05  3.9137540395617267e-05  4.0655541314194047e-05  4.2144283195438090e-05  4.3598433811375797e-05  4.5012799000380136e-05  4.6382311197525611e-05  4.7702007414837622e-05  4.8966996688169576e-05  5.0172417087805665e-05  5.1313382437223615e-05  5.2384918901859679e-05  5.3381891601844692e-05  5.4298921375320204e-05  5.5130291778763771e-05  5.5869846364982978e-05  5.6510876235690613e-05  5.7045997831683986e-05  5.7467020907629222e-05  5.7764806648432326e-05  5.7929115928482052e-05  5.7948447802218180e-05  5.7809868453374320e-05  5.7498831030116091e-05  5.6998987063877430e-05  5.6291990521247740e-05  5.5357295981593542e-05  5.4171952979545530e-05  5.2710399212846030e-05  5.0944256104392473e-05  4.8842131134773631e-05  4.6369432439997273e-05  4.3488202409533959e-05  4.0156978431951514e-05  3.6330690526838230e-05  3.1960607376750686e-05  2.6994344231389452e-05  2.1375948291911594e-05  1.5046079485572668e-05  7.9423080312404813e-06  0.0000000000000000e+00  0.0000000000000000e+00  1.3531535184675027e-08  2.8708703349545533e-08  4.5830009801246952e-08  6.5234667833258654e-08  8.7308799984176796e-08  1.1249127902070685e-07  1.4128008065144362e-07  1.7423914812266060e-07  2.1200575881369404e-07  2.5529836851502846e-07  3.0492489153033782e-07  3.6179135382205569e-07  4.2691083191066307e-07  5.0141256202461321e-07  5.8655107209168676e-07  6.8371515374296926e-07  7.9443645296064098e-07  9.2039741699536224e-07  1.0634382926733582e-06  1.2255628285279285e-06  1.4089422920379461e-06  1