<?xml version="1.0"?>
<VTKFile type="UnstructuredGrid"  version="0.1"  >
<UnstructuredGrid>
<Piece  NumberOfPoints="10201" NumberOfCells="20000">
<Points>
<DataArray  type="Float64"  NumberOfComponents="3"  format="ascii">0 0 0  0.01 0 0  0.02 0 0  0.03 0 0  0.04 0 0  0.05 0 0  0.06 0 0  0.07000000000000001 0 0  0.08 0 0  0.09 0 0  0.1 0 0  0.11 0 0  0.12 0 0  0.13 0 0  0.14 0 0  0.15 0 0  0.16 0 0  0.17 0 0  0.18 0 0  0.19 0 0  0.2 0 0  0.21 0 0  0.22 0 0  0.23 0 0  0.24 0 0  0.25 0 0  0.26 0 0  0.27 0 0  0.28 0 0  0.29 0 0  0.3 0 0  0.31 0 0  0.32 0 0  0.33 0 0  0.34 0 0  0.35 0 0  0.36 0 0  0.37 0 0  0.38 0 0  0.39 0 0  0.4 0 0  0.41 0 0  0.42 0 0  0.43 0 0  0.44 0 0  0.45 0 0  0.46 0 0  0.47 0 0  0.48 0 0  0.49 0 0  0.5 0 0  0.51 0 0  0.52 0 0  0.53 0 0  0.54 0 0  0.55 0 0  0.5600000000000001 0 0  0.57 0 0  0.58 0 0  0.59 0 0  0.6 0 0  0.61 0 0  0.62 0 0  0.63 0 0  0.64 0 0  0.65 0 0  0.66 0 0  0.67 0 0  0.68 0 0  0.6899999999999999 0 0  0.7 0 0  0.71 0 0  0.72 0 0  0.73 0 0  0.74 0 0  0.75 0 0  0.76 0 0  0.77 0 0  0.78 0 0  0.79 0 0  0.8 0 0  0.8100000000000001 0 0  0.82 0 0  0.83 0 0  0.84 0 0  0.85 0 0  0.86 0 0  0.87 0 0  0.88 0 0  0.89 0 0  0.9 0 0  0.91 0 0  0.92 0 0  0.93 0 0  0.9399999999999999 0 0  0.95 0 0  0.96 0 0  0.97 0 0  0.98 0 0  0.99 0 0  1 0 0  0 0.01 0  0.01 0.01 0  0.02 0.01 0  0.03 0.01 0  0.04 0.01 0  0.05 0.01 0  0.06 0.01 0  0.07000000000000001 0.01 0  0.08 0.01 0  0.09 0.01 0  0.1 0.01 0  0.11 0.01 0  0.12 0.01 0  0.13 0.01 0  0.14 0.01 0  0.15 0.01 0  0.16 0.01 0  0.17 0.01 0  0.18 0.01 0  0.19 0.01 0  0.2 0.01 0  0.21 0.01 0  0.22 0.01 0  0.23 0.01 0  0.24 0.01 0  0.25 0.01 0  0.26 0.01 0  0.27 0.01 0  0.28 0.01 0  0.29 0.01 0  0.3 0.01 0  0.31 0.01 0  0.32 0.01 0  0.33 0.01 0  0.34 0.01 0  0.35 0.01 0  0.36 0.01 0  0.37 0.01 0  0.38 0.01 0  0.39 0.01 0  0.4 0.01 0  0.41 0.01 0  0.42 0.01 0  0.43 0.01 0  0.44 0.01 0  0.45 0.01 0  0.46 0.01 0  0.47 0.01 0  0.48 0.01 0  0.49 0.01 0  0.5 0.01 0  0.51 0.01 0  0.52 0.01 0  0.53 0.01 0  0.54 0.01 0  0.55 0.01 0  0.5600000000000001 0.01 0  0.57 0.01 0  0.58 0.01 0  0.59 0.01 0  0.6 0.01 0  0.61 0.01 0  0.62 0.01 0  0.63 0.01 0  0.64 0.01 0  0.65 0.01 0  0.66 0.01 0  0.67 0.01 0  0.68 0.01 0  0.6899999999999999 0.01 0  0.7 0.01 0  0.71 0.01 0  0.72 0.01 0  0.73 0.01 0  0.74 0.01 0  0.75 0.01 0  0.76 0.01 0  0.77 0.01 0  0.78 0.01 0  0.79 0.01 0  0.8 0.01 0  0.8100000000000001 0.01 0  0.82 0.01 0  0.83 0.01 0  0.84 0.01 0  0.85 0.01 0  0.86 0.01 0  0.87 0.01 0  0.88 0.01 0  0.89 0.01 0  0.9 0.01 0  0.91 0.01 0  0.92 0.01 0  0.93 0.01 0  0.9399999999999999 0.01 0  0.95 0.01 0  0.96 0.01 0  0.97 0.01 0  0.98 0.01 0  0.99 0.01 0  1 0.01 0  0 0.02 0  0.01 0.02 0  0.02 0.02 0  0.03 0.02 0  0.04 0.02 0  0.05 0.02 0  0.06 0.02 0  0.07000000000000001 0.02 0  0.08 0.02 0  0.09 0.02 0  0.1 0.02 0  0.11 0.02 0  0.12 0.02 0  0.13 0.02 0  0.14 0.02 0  0.15 0.02 0  0.16 0.02 0  0.17 0.02 0  0.18 0.02 0  0.19 0.02 0  0.2 0.02 0  0.21 0.02 0  0.22 0.02 0  0.23 0.02 0  0.24 0.02 0  0.25 0.02 0  0.26 0.02 0  0.27 0.02 0  0.28 0.02 0  0.29 0.02 0  0.3 0.02 0  0.31 0.02 0  0.32 0.02 0  0.33 0.02 0  0.34 0.02 0  0.35 0.02 0  0.36 0.02 0  0.37 0.02 0  0.38 0.02 0  0.39 0.02 0  0.4 0.02 0  0.41 0.02 0  0.42 0.02 0  0.43 0.02 0  0.44 0.02 0  0.45 0.02 0  0.46 0.02 0  0.47 0.02 0  0.48 0.02 0  0.49 0.02 0  0.5 0.02 0  0.51 0.02 0  0.52 0.02 0  0.53 0.02 0  0.54 0.02 0  0.55 0.02 0  0.5600000000000001 0.02 0  0.57 0.02 0  0.58 0.02 0  0.59 0.02 0  0.6 0.02 0  0.61 0.02 0  0.62 0.02 0  0.63 0.02 0  0.64 0.02 0  0.65 0.02 0  0.66 0.02 0  0.67 0.02 0  0.68 0.02 0  0.6899999999999999 0.02 0  0.7 0.02 0  0.71 0.02 0  0.72 0.02 0  0.73 0.02 0  0.74 0.02 0  0.75 0.02 0  0.76 0.02 0  0.77 0.02 0  0.78 0.02 0  0.79 0.02 0  0.8 0.02 0  0.8100000000000001 0.02 0  0.82 0.02 0  0.83 0.02 0  0.84 0.02 0  0.85 0.02 0  0.86 0.02 0  0.87 0.02 0  0.88 0.02 0  0.89 0.02 0  0.9 0.02 0  0.91 0.02 0  0.92 0.02 0  0.93 0.02 0  0.9399999999999999 0.02 0  0.95 0.02 0  0.96 0.02 0  0.97 0.02 0  0.98 0.02 0  0.99 0.02 0  1 0.02 0  0 0.03 0  0.01 0.03 0  0.02 0.03 0  0.03 0.03 0  0.04 0.03 0  0.05 0.03 0  0.06 0.03 0  0.07000000000000001 0.03 0  0.08 0.03 0  0.09 0.03 0  0.1 0.03 0  0.11 0.03 0  0.12 0.03 0  0.13 0.03 0  0.14 0.03 0  0.15 0.03 0  0.16 0.03 0  0.17 0.03 0  0.18 0.03 0  0.19 0.03 0  0.2 0.03 0  0.21 0.03 0  0.22 0.03 0  0.23 0.03 0  0.24 0.03 0  0.25 0.03 0  0.26 0.03 0  0.27 0.03 0  0.28 0.03 0  0.29 0.03 0  0.3 0.03 0  0.31 0.03 0  0.32 0.03 0  0.33 0.03 0  0.34 0.03 0  0.35 0.03 0  0.36 0.03 0  0.37 0.03 0  0.38 0.03 0  0.39 0.03 0  0.4 0.03 0  0.41 0.03 0  0.42 0.03 0  0.43 0.03 0  0.44 0.03 0  0.45 0.03 0  0.46 0.03 0  0.47 0.03 0  0.48 0.03 0  0.49 0.03 0  0.5 0.03 0  0.51 0.03 0  0.52 0.03 0  0.53 0.03 0  0.54 0.03 0  0.55 0.03 0  0.5600000000000001 0.03 0  0.57 0.03 0  0.58 0.03 0  0.59 0.03 0  0.6 0.03 0  0.61 0.03 0  0.62 0.03 0  0.63 0.03 0  0.64 0.03 0  0.65 0.03 0  0.66 0.03 0  0.67 0.03 0  0.68 0.03 0  0.6899999999999999 0.03 0  0.7 0.03 0  0.71 0.03 0  0.72 0.03 0  0.73 0.03 0  0.74 0.03 0  0.75 0.03 0  0.76 0.03 0  0.77 0.03 0  0.78 0.03 0  0.79 0.03 0  0.8 0.03 0  0.8100000000000001 0.03 0  0.82 0.03 0  0.83 0.03 0  0.84 0.03 0  0.85 0.03 0  0.86 0.03 0  0.87 0.03 0  0.88 0.03 0  0.89 0.03 0  0.9 0.03 0  0.91 0.03 0  0.92 0.03 0  0.93 0.03 0  0.9399999999999999 0.03 0  0.95 0.03 0  0.96 0.03 0  0.97 0.03 0  0.98 0.03 0  0.99 0.03 0  1 0.03 0  0 0.04 0  0.01 0.04 0  0.02 0.04 0  0.03 0.04 0  0.04 0.04 0  0.05 0.04 0  0.06 0.04 0  0.07000000000000001 0.04 0  0.08 0.04 0  0.09 0.04 0  0.1 0.04 0  0.11 0.04 0  0.12 0.04 0  0.13 0.04 0  0.14 0.04 0  0.15 0.04 0  0.16 0.04 0  0.17 0.04 0  0.18 0.04 0  0.19 0.04 0  0.2 0.04 0  0.21 0.04 0  0.22 0.04 0  0.23 0.04 0  0.24 0.04 0  0.25 0.04 0  0.26 0.04 0  0.27 0.04 0  0.28 0.04 0  0.29 0.04 0  0.3 0.04 0  0.31 0.04 0  0.32 0.04 0  0.33 0.04 0  0.34 0.04 0  0.35 0.04 0  0.36 0.04 0  0.37 0.04 0  0.38 0.04 0  0.39 0.04 0  0.4 0.04 0  0.41 0.04 0  0.42 0.04 0  0.43 0.04 0  0.44 0.04 0  0.45 0.04 0  0.46 0.04 0  0.47 0.04 0  0.48 0.04 0  0.49 0.04 0  0.5 0.04 0  0.51 0.04 0  0.52 0.04 0  0.53 0.04 0  0.54 0.04 0  0.55 0.04 0  0.5600000000000001 0.04 0  0.57 0.04 0  0.58 0.04 0  0.59 0.04 0  0.6 0.04 0  0.61 0.04 0  0.62 0.04 0  0.63 0.04 0  0.64 0.04 0  0.65 0.04 0  0.66 0.04 0  0.67 0.04 0  0.68 0.04 0  0.6899999999999999 0.04 0  0.7 0.04 0  0.71 0.04 0  0.72 0.04 0  0.73 0.04 0  0.74 0.04 0  0.75 0.04 0  0.76 0.04 0  0.77 0.04 0  0.78 0.04 0  0.79 0.04 0  0.8 0.04 0  0.8100000000000001 0.04 0  0.82 0.04 0  0.83 0.04 0  0.84 0.04 0  0.85 0.04 0  0.86 0.04 0  0.87 0.04 0  0.88 0.04 0  0.89 0.04 0  0.9 0.04 0  0.91 0.04 0  0.92 0.04 0  0.93 0.04 0  0.9399999999999999 0.04 0  0.95 0.04 0  0.96 0.04 0  0.97 0.04 0  0.98 0.04 0  0.99 0.04 0  1 0.04 0  0 0.05 0  0.01 0.05 0  0.02 0.05 0  0.03 0.05 0  0.04 0.05 0  0.05 0.05 0  0.06 0.05 0  0.07000000000000001 0.05 0  0.08 0.05 0  0.09 0.05 0  0.1 0.05 0  0.11 0.05 0  0.12 0.05 0  0.13 0.05 0  0.14 0.05 0  0.15 0.05 0  0.16 0.05 0  0.17 0.05 0  0.18 0.05 0  0.19 0.05 0  0.2 0.05 0  0.21 0.05 0  0.22 0.05 0  0.23 0.05 0  0.24 0.05 0  0.25 0.05 0  0.26 0.05 0  0.27 0.05 0  0.28 0.05 0  0.29 0.05 0  0.3 0.05 0  0.31 0.05 0  0.32 0.05 0  0.33 0.05 0  0.34 0.05 0  0.35 0.05 0  0.36 0.05 0  0.37 0.05 0  0.38 0.05 0  0.39 0.05 0  0.4 0.05 0  0.41 0.05 0  0.42 0.05 0  0.43 0.05 0  0.44 0.05 0  0.45 0.05 0  0.46 0.05 0  0.47 0.05 0  0.48 0.05 0  0.49 0.05 0  0.5 0.05 0  0.51 0.05 0  0.52 0.05 0  0.53 0.05 0  0.54 0.05 0  0.55 0.05 0  0.5600000000000001 0.05 0  0.57 0.05 0  0.58 0.05 0  0.59 0.05 0  0.6 0.05 0  0.61 0.05 0  0.62 0.05 0  0.63 0.05 0  0.64 0.05 0  0.65 0.05 0  0.66 0.05 0  0.67 0.05 0  0.68 0.05 0  0.6899999999999999 0.05 0  0.7 0.05 0  0.71 0.05 0  0.72 0.05 0  0.73 0.05 0  0.74 0.05 0  0.75 0.05 0  0.76 0.05 0  0.77 0.05 0  0.78 0.05 0  0.79 0.05 0  0.8 0.05 0  0.8100000000000001 0.05 0  0.82 0.05 0  0.83 0.05 0  0.84 0.05 0  0.85 0.05 0  0.86 0.05 0  0.87 0.05 0  0.88 0.05 0  0.89 0.05 0  0.9 0.05 0  0.91 0.05 0  0.92 0.05 0  0.93 0.05 0  0.9399999999999999 0.05 0  0.95 0.05 0  0.96 0.05 0  0.97 0.05 0  0.98 0.05 0  0.99 0.05 0  1 0.05 0  0 0.06 0  0.01 0.06 0  0.02 0.06 0  0.03 0.06 0  0.04 0.06 0  0.05 0.06 0  0.06 0.06 0  0.07000000000000001 0.06 0  0.08 0.06 0  0.09 0.06 0  0.1 0.06 0  0.11 0.06 0  0.12 0.06 0  0.13 0.06 0  0.14 0.06 0  0.15 0.06 0  0.16 0.06 0  0.17 0.06 0  0.18 0.06 0  0.19 0.06 0  0.2 0.06 0  0.21 0.06 0  0.22 0.06 0  0.23 0.06 0  0.24 0.06 0  0.25 0.06 0  0.26 0.06 0  0.27 0.06 0  0.28 0.06 0  0.29 0.06 0  0.3 0.06 0  0.31 0.06 0  0.32 0.06 0  0.33 0.06 0  0.34 0.06 0  0.35 0.06 0  0.36 0.06 0  0.37 0.06 0  0.38 0.06 0  0.39 0.06 0  0.4 0.06 0  0.41 0.06 0  0.42 0.06 0  0.43 0.06 0  0.44 0.06 0  0.45 0.06 0  0.46 0.06 0  0.47 0.06 0  0.48 0.06 0  0.49 0.06 0  0.5 0.06 0  0.51 0.06 0  0.52 0.06 0  0.53 0.06 0  0.54 0.06 0  0.55 0.06 0  0.5600000000000001 0.06 0  0.57 0.06 0  0.58 0.06 0  0.59 0.06 0  0.6 0.06 0  0.61 0.06 0  0.62 0.06 0  0.63 0.06 0  0.64 0.06 0  0.65 0.06 0  0.66 0.06 0  0.67 0.06 0  0.68 0.06 0  0.6899999999999999 0.06 0  0.7 0.06 0  0.71 0.06 0  0.72 0.06 0  0.73 0.06 0  0.74 0.06 0  0.75 0.06 0  0.76 0.06 0  0.77 0.06 0  0.78 0.06 0  0.79 0.06 0  0.8 0.06 0  0.8100000000000001 0.06 0  0.82 0.06 0  0.83 0.06 0  0.84 0.06 0  0.85 0.06 0  0.86 0.06 0  0.87 0.06 0  0.88 0.06 0  0.89 0.06 0  0.9 0.06 0  0.91 0.06 0  0.92 0.06 0  0.93 0.06 0  0.9399999999999999 0.06 0  0.95 0.06 0  0.96 0.06 0  0.97 0.06 0  0.98 0.06 0  0.99 0.06 0  1 0.06 0  0 0.07000000000000001 0  0.01 0.07000000000000001 0  0.02 0.07000000000000001 0  0.03 0.07000000000000001 0  0.04 0.07000000000000001 0  0.05 0.07000000000000001 0  0.06 0.07000000000000001 0  0.07000000000000001 0.07000000000000001 0  0.08 0.07000000000000001 0  0.09 0.07000000000000001 0  0.1 0.07000000000000001 0  0.11 0.07000000000000001 0  0.12 0.07000000000000001 0  0.13 0.07000000000000001 0  0.14 0.07000000000000001 0  0.15 0.07000000000000001 0  0.16 0.07000000000000001 0  0.17 0.0700
[...]
<PointData  Scalars="u"> 
<DataArray  type="Float64"  Name="u"  format="ascii">0.0000000000000000e+00  0.0000000000000000e+00  0.0000000000000000e+00  0.0000000000000000e+00  0.0000000000000000e+00  0.0000000000000000e+00  0.0000000000000000e+00  0.0000000000000000e+00  0.0000000000000000e+00  0.0000000000000000e+00  0.0000000000000000e+00  0.0000000000000000e+00  0.0000000000000000e+00  0.0000000000000000e+00  0.0000000000000000e+00  0.0000000000000000e+00  0.0000000000000000e+00  0.0000000000000000e+00  0.0000000000000000e+00  0.0000000000000000e+00  0.0000000000000000e+00  0.0000000000000000e+00  0.0000000000000000e+00  0.0000000000000000e+00  0.0000000000000000e+00  0.0000000000000000e+00  0.0000000000000000e+00  0.0000000000000000e+00  0.0000000000000000e+00  0.0000000000000000e+00  0.0000000000000000e+00  0.0000000000000000e+00  0.0000000000000000e+00  0.0000000000000000e+00  0.0000000000000000e+00  0.0000000000000000e+00  0.0000000000000000e+00  0.0000000000000000e+00  0.0000000000000000e+00  0.0000000000000000e+00  0.0000000000000000e+00  0.0000000000000000e+00  0.0000000000000000e+00  0.0000000000000000e+00  0.0000000000000000e+00  0.0000000000000000e+00  0.0000000000000000e+00  0.0000000000000000e+00  0.0000000000000000e+00  0.0000000000000000e+00  0.0000000000000000e+00  0.0000000000000000e+00  0.0000000000000000e+00  0.0000000000000000e+00  0.0000000000000000e+00  0.0000000000000000e+00  0.0000000000000000e+00  0.0000000000000000e+00  0.0000000000000000e+00  0.0000000000000000e+00  0.0000000000000000e+00  0.0000000000000000e+00  0.0000000000000000e+00  0.0000000000000000e+00  0.0000000000000000e+00  0.0000000000000000e+00  0.0000000000000000e+00  0.0000000000000000e+00  0.0000000000000000e+00  0.0000000000000000e+00  0.0000000000000000e+00  0.0000000000000000e+00  0.0000000000000000e+00  0.0000000000000000e+00  0.0000000000000000e+00  0.0000000000000000e+00  0.0000000000000000e+00  0.0000000000000000e+00  0.0000000000000000e+00  0.0000000000000000e+00  0.0000000000000000e+00  0.0000000000000000e+00  0.0000000000000000e+00  0.0000000000000000e+00  0.0000000000000000e+00  0.0000000000000000e+00  0.0000000000000000e+00  0.0000000000000000e+00  0.0000000000000000e+00  0.0000000000000000e+00  0.0000000000000000e+00  0.0000000000000000e+00  0.0000000000000000e+00  0.0000000000000000e+00  0.0000000000000000e+00  0.0000000000000000e+00  0.0000000000000000e+00  0.0000000000000000e+00  0.0000000000000000e+00  0.0000000000000000e+00  0.0000000000000000e+00  0.0000000000000000e+00  5.1958568481399312e-15  1.0455466665249282e-14  1.6545201908785735e-14  2.4218904870107547e-14  3.4321250583972935e-14  4.7876607833832015e-14  6.6180871477672674e-14  9.0904156065201202e-14  1.2421106397023421e-13  1.6890454566139593e-13  2.2859892275535331e-13  3.0792722550993993e-13  4.1278740751173379e-13  5.5063105303634794e-13  7.3079670043127997e-13  9.6488768341594276e-13  1.2671912666429481e-12  1.6551316727287513e-12  2.1497442645143521e-12  2.7761516374948634e-12  3.5640147885955068e-12  4.5479241105946507e-12  5.7676861630377997e-12  7.2684536619280497e-12  9.1006388220956324e-12  1.1319545215036464e-11  1.3984651987705550e-11  1.7158488029491449e-11  2.0905043830935906e-11  2.5287686470385308e-11  3.0366569061759209e-11  3.6195560077390337e-11  4.2818759295088025e-11  5.0266713704086768e-11  5.8552495392818334e-11  6.7667850011565249e-11  7.7579663800403753e-11  8.8227023929684649e-11  9.9519155721045061e-11  1.1133450677916343e-10  1.2352120935481082e-10  1.3589908783845355e-10  1.4826329036043290e-10  1.6038951718573640e-10  1.7204070180435957e-10  1.8297488332260646e-10  1.9295390209742451e-10  2.0175246557546686e-10  2.0916707761119093e-10  2.1502430904863408e-10  2.1918791327334088e-10  2.2156435675317999e-10  2.2210643602985851e-10  2.2081478024932974e-10  2.1773718052524006e-10  2.1296583131763730e-10  2.0663270188278141e-10  1.9890336662643328e-10  1.8996970354472323e-10  1.8004191502104395e-10  1.6934033396025465e-10  1.5808745300248717e-10  1.4650056070494813e-10  1.3478529349011123e-10  1.2313032425386519e-10  1.1170331628935348e-10  1.0064818230756716e-10  9.0083609104245084e-11  8.0102743322469357e-11  7.0773885364988978e-11  6.2142007576071966e-11  5.4230898542358783e-11  4.7045735772449589e-11  4.0575901345607721e-11  3.4797876232407890e-11  2.9678075715556791e-11  2.5175517751931799e-11  2.1244245723440338e-11  1.7835454868215210e-11  1.4899296377975986e-11  1.2386353849001603e-11  1.0248803117572597e-11  8.4412785181444298e-12  6.9214765848648572e-12  5.6505326778167229e-12  4.5932075652507110e-12  3.7179202808036778e-12  2.9966612365141657e-12  2.4048162008524658e-12  1.9209278823996568e-12  1.5264179804063163e-12  1.2052891328595035e-12  9.4382368621227610e-13  7.3029518221102935e-13  5.5470962346059028e-13  4.0859792862150503e-13  2.8488989401245476e-13  1.7791524422400617e-13  8.3600793809060358e-14  0.0000000000000000e+00  0.0000000000000000e+00  1.0410545483054624e-14  2.0969065871709402e-14  3.3215368311741078e-14  4.8677487728302337e-14  6.9072462833391448e-14  9.6488725724647157e-14  1.3357534530397978e-13  1.8375468313702137e-13  2.5147253947646562e-13  3.4249854499584802e-13  4.6428876220613795e-13  6.2642173126731552e-13  8.4111811249965555e-13  1.1238522423726328e-12  1.4940609291875741e-12  1.9759502644128689e-12  2.5993947239418872e-12  3.4009140344180565e-12  4.4247019333651768e-12  5.7236669719519851e-12  7.3604290549943451e-12  9.4081969791920254e-12  1.1951432737487093e-11  1.5086189223557713e-11  1.8919991153725697e-11  2.3571117006182478e-11  2.9167135473661347e-11  3.5842556492414510e-11  4.3735477448919393e-11  5.2983142316015595e-11  6.3716386917225305e-11  7.6053017454182064e-11  9.0090260041750433e-11  1.0589652205053209e-10  1.2350281472355889e-10  1.4289429149091198e-10  1.6400244634515882e-10  1.8669857919206914e-10  2.1078915813678620e-10  2.3601368193737657e-10  2.6204556263826140e-10  2.8849640707772911e-10  3.1492388118913189e-10  3.4084310414046154e-10  3.6574125804406635e-10  3.8909483583213551e-10  4.1038871027689076e-10  4.2913601624552691e-10  4.4489771806481795e-10  4.5730070007296325e-10  4.6605327830838141e-10  4.7095718233017662e-10  4.7191528614781210e-10  4.6893465549293534e-10  4.6212479852722170e-10  4.5169132906568130e-10  4.3792554668496185e-10  4.2119068177642889e-10  4.0190572729578198e-10  3.8052787237018658e-10  3.5753456436403095e-10  3.3340616178421503e-10  3.0861001333554815e-10  2.8358662574195134e-10  2.5873838393960762e-10  2.3442108107095390e-10  2.1093831945273008e-10  1.8853867102022660e-10  1.6741534613304933e-10  1.4770801815630804e-10  1.2950638892587314e-10  1.1285505468495743e-10  9.7759238434732984e-11  8.4190986388593150e-11  7.2095476192449244e-11  6.1397145691019112e-11  5.2005416869127956e-11  4.3819854817473451e-11  3.6734662054460132e-11  3.0642461457290118e-11  2.5437364795450270e-11  2.1017357829526220e-11  1.7286057368485192e-11  1.4153911392956124e-11  1.1538921553569443e-11  9.3669694390944113e-12  7.5718254231212990e-12  6.0949130273873903e-12  4.8848938524519657e-12  3.8971293497171159e-12  3.0930670464930206e-12  2.4395912217863553e-12  1.9083724211098274e-12  1.4752477084461656e-12  1.1196656427334905e-12  8.2423868933979143e-13  5.7446409692501343e-13  3.5870642649722235e-13  1.6858688809469653e-13  0.0000000000000000e+00  0.0000000000000000e+00  1.6330935340985161e-14  3.2926946281682002e-14  5.2230936549343130e-14  7.6680051408537032e-14  1.0902598910448450e-13  1.5263091468805998e-13  2.1177705116402979e-13  2.9201719642527870e-13  4.0058976803990183e-13  5.4692014125848215e-13  7.4322908780052852e-13  1.0052682776563557e-12  1.3532013787824553e-12  1.8126465973236993e-12  2.4158918417943885e-12  3.2032863438043188e-12  4.2248018029539966e-12  5.5417412793151077e-12  7.2285546130207596e-12  9.3746948509310886e-12  1.2086421162358656e-11  1.5488420768796313e-11  1.9725086990783544e-11  2.4961255029768551e-11  3.1382164960371517e-11  3.9192397023706159e-11  4.8613512974349232e-11  5.9880144792331930e-11  7.3234304418995006e-11  8.8917750514080196e-11  1.0716234416059023e-10  1.2817845593805369e-10  1.5214164918248663e-10  1.7917805142223940e-10  2.0934902586234383e-10  2.4263595050233448e-10  2.7892608314607098e-10  3.1800061299956733e-10  3.5952605066224104e-10  4.0305006814277347e-10  4.4800275554082746e-10  4.9370400719412130e-10  5.3937739517196292e-10  5.8417045262142935e-10  6.2718080645751382e-10  6.6748711074168218e-10  7.0418328677681001e-10  7.3641422135618311e-10  7.6341085249120643e-10  7.8452251218071053e-10  7.9924451190670420e-10  8.0723924331151628e-10  8.0834950000064856e-10  8.0260326663687449e-10  7.9020981722107466e-10  7.7154755951677202e-10  7.4714460261459682e-10  7.1765346338807792e-10  6.8382163177082985e-10  6.4645986695301114e-10  6.0641009582824104e-10  5.6451464544882423e-10  5.2158828890322839e-10  4.7839425265917200e-10  4.3562495990873723e-10  3.9388790456892175e-10  3.5369669547112319e-10  3.1546700403542323e-10  2.7951690726306457e-10  2.4607094876879589e-10  2.1526714388670632e-10  1.8716612462925304e-10  1.6176164617437800e-10  1.3899174584282642e-10  1.1874994464453210e-10  1.0089599741751440e-10  8.5265818907896389e-11  7.1680330562276023e-11  5.9953079464814872e-11  4.9896572290948465e-11  4.1327341072774676e-11  3.4069813485168035e-11  2.7959099152745078e-11  2.2842826984988829e-11  1.8582179173429589e-11  1.5052267873471015e-11  1.2141993377817517e-11  9.7535102240443364e-12  7.8014123503274837e-12  6.2117320116062045e-12  4.9208313313632073e-12  3.8742515779541920e-12  3.0255750175031572e-12  2.3353492551548083e-12  1.7701266572885197e-12  1.3016851000559194e-12  9.0652590337613225e-13  5.6579783404451846e-13  2.6588348530126858e-13  0.0000000000000000e+00  0.0000000000000000e+00  2.3618628675476330e-14  4.7677117299136219e-14  7.5763218960168903e-14  1.1147584737501747e-13  1.5890258420133283e-13  2.2306630154273318e-13  3.1039701703241733e-13  4.2927104421015647e-13  5.9065453880402560e-13  8.0888637232389858e-13  1.1026344719563072e-12  1.4960591766945925e-12  2.0202156881898484e-12  2.7147242464445742e-12  3.6297300791614461e-12  4.8281642316270822e-12  6.3882998173459985e-12  8.4065748233738027e-12  1.1000621334242430e-11  1.4312401271068381e-11  1.8511300491000363e-11  2.3796977315848720e-11  3.0401700481472191e-11  3.8591848907038231e-11  4.8668187142057444e-11  6.0964483274789204e-11  7.5844009580391678e-11  9.3693470565975989e-11  1.1491394901350617e-10  1.3990855793281517e-10  1.6906664233306213e-10  2.0274459237835425e-10  2.4124360555043598e-10  2.8478505875258023e-10  3.3348450178983972e-10  3.8732563232553689e-10  4.4613592253233010e-10  5.0956579763191987e-10  5.7707337416597870e-10  6.4791671389081513e-10  7.2115531138355616e-10  7.9566210038137138e-10  8.7014664752769602e-10  9.4318943815633613e-10  1.0132863052920548e-09  1.0789011867537512e-09  1.1385246032244137e-09  1.1907346198048406e-09  1.2342566612136173e-09  1.2680184508863282e-09  1.2911965609535827e-09  1.3032515828525913e-09  1.3039497120419336e-09  1.2933695104413240e-09  1.2718936721707176e-09  1.2401866690866031e-09  1.1991600942334074e-09  1.1499282715281276e-09  1.0937572016130273e-09  1.0320101395231362e-09  9.6609305274815400e-10  8.9740291864951547e-10  8.2728133897068409e-10  7.5697533986552176e-10  6.8760655597233595e-10  6.2014933029586202e-10  5.5541765185236749e-10  4.9406034019844581e-10  4.3656349465382258e-10  3.8325896571777803e-10  3.3433747322539057e-10  2.8986497639878160e-10  2.4980097457331352e-10  2.1401756006751819e-10  1.8231823199102828e-10  1.5445568913254625e-10  1.3014803220008877e-10  1.0909300558541147e-10  9.0980085947773823e-11  7.5500372945243991e-11  6.2354353745405843e-11  5.1257697819992349e-11  4.1945294411168120e-11  3.4173775775540068e-11  2.7722779410131028e-11  2.2395196675305396e-11  1.8016638086025282e-11  1.4434321130804341e-11  1.1515558316945607e-11  9.1459941772974189e-12  7.2277126715916968e-12  5.6773129370081242e-12  4.4240338233552990e-12  3.4079985798728156e-12  2.5786538189209155e-12  1.8934964574167315e-12  1.3172263585875419e-12  8.2154257914155532e-13  3.8593540054467242e-13  0.0000000000000000e+00  0.0000000000000000e+00  3.2992286129236203e-14  6.6688349571049106e-14  1.0619016595911981e-13  1.5664579009763504e-13  2.2394165488489344e-13  3.1535754386215444e-13  4.4026611747117775e-13  6.1094032161044660e-13  8.4352565980142712e-13  1.1592321826553540e-12  1.5858010531550264e-12  2.1593009338256553e-12  2.9263085594037178e-12  3.9465239946797188e-12  5.2958623714806888e-12  7.0700483163506618e-12  9.3887146569674915e-12  1.2399971163828053e-11  1.6285360096178803e-11  2.1265051773073346e-11  2.7603054849868709e-11  3.5612123507138247e-11  4.5657940477667685e-11  5.8162046502133181e-11  7.3602882259521784e-11  9.2514220230628054e-11  1.1548020666622861e-10  1.4312622569502350e-10  1.7610485764185992e-10  2.1507634996335328e-10  2.6068326631260751e-10  3.1351933461547264e-10  3.7409297570251221e-10  4.4278654335479059e-10  5.1981291206288073e-10  6.0517166142087558e-10  6.9860766232341804e-10  7.9957529643652215e-10  9.0721176064619514e-10  1.0203228535127711e-09  1.1373842608149843e-09  1.2565606311460633e-09  1.3757436775705773e-09  1.4926092178449893e-09  1.6046915757964956e-09  1.7094722465175142e-09  1.8044783346848294e-09  1.8873851665706269e-09  1.9561167904619142e-09  2.0089379156739324e-09  2.0445312400197948e-09  2.0620550584692176e-09  2.0611774475641426e-09  2.0420850434095013e-09  2.0054663024894436e-09  1.9524709677843690e-09  1.8846490819134687e-09  1.8038741504301283e-09  1.7122558656302137e-09  1.6120481135765179e-09  1.5055578192941535e-09  1.3950596001773304e-09  1.2827202938480853e-09  1.1705363220160721e-09  1.0602856681087543e-09  9.5349509524801773e-10  8.5142220367200096e-10  7.5505108737804207e-10  6.6509973445164312e-10  5.8203693327772868e-10  5.0610628421568080e-10  4.3735494349070077e-10  3.7566490306961952e-10  3.2078489314271399e-10  2.7236133946714245e-10  2.2996717783708894e-10  1.9312769089626881e-10  1.6134286498362513e-10  1.3410605130980113e-10  1.1091894837889921e-10  9.1303099126206548e-11  7.4808219281757373e-11  6.1017748703412685e-11  4.9552052416313251e-11  4.0069701170741173e-11  3.2267240731532192e-11  2.5877822429221737e-11  2.0669021338016741e-11  1.6440118286078910e-11  1.3019072169533721e-11  1.0259363276032779e-11  8.0368495099933606e-12  6.2467484199331808e-12  4.8008421163396488e-12  3.6250041941087167e-12  2.6571747164399291e-12  1.8459722613384116e-12  1.1502483365102941e-12  5.4008612882356964e-13  0.0000000000000000e+00  0.0000000000000000e+00  4.5294364840540564e-14  9.1688104752233222e-14  1.4632276091474077e-13  2.1644946086595637e-13  3.1041924856680435e-13  4.3863071201467321e-13  6.1455375858964915e-13  8.5592384563381928e-13  1.1861933198275996e-12  1.6363251954331867e-12  2.2470166846284481e-12  3.0714425165015843e-12  4.1786090661844531e-12  5.6574069221245163e-12  7.6214387920350201e-12  1.0214678256272248e-11  1.3617979165593491e-11  1.8056401647539944e-11  2.3807245122626837e-11  3.1208578536387027e-11  4.0667931698791429e-11  5.2670660000524527e-11  6.7787321971785940e-11  8.6679223651671177e-11  1.1010109932319092e-10  1.3889973450470143e-10  1.7400721972175730e-10  2.1642748306349125e-10  2.6721481937102377e-10  3.2744334723214018e-10  3.9816670978057908e-10  4.8036790870122424e-10  5.7489992257033896e-10  6.8241868702179252e-10  8.0331105347146260e-10  9.3762141362930332e-10  1.0849816696049755e-09  1.2445500147348123e-09  1.4149644316082448e-09  1.5943167845431506e-09  1.7801527878909900e-09  1.9695019240661967e-09  2.1589395892272822e-09  2.3446814610769554e-09  2.5227074903712325e-09  2.6889102575235192e-09  2.8392599891348106e-09  2.9699765816667067e-09  3.0776977812067062e-09  3.1596323973158317e-09  3.2136881614883150e-09  3.2385655356960770e-09  3.2338112770736984e-09  3.1998286176252378e-09  3.1378442063994825e-09  3.0498351487303108e-09  2.9384222493472236e-09  2.8067376724632309e-09  2.6582765116517498e-09  2.4967421579937097e-09  2.3258949099889206e-09  2.1494121113957184e-09  1.9707664214054750e-09  1.7931268330881073e-09  1.6192849790726464e-09  1.4516072919418442e-09  1.2920118730942052e-09  1.1419675692083396e-09  1.0025118090270119e-09  8.7428321689842733e-10  7.5756485760975787e-10  6.5233411770761577e-10  5.5831561572270915e-10  4.7503407792289917e-10  4.0186474265905905e-10  3.3807950091722809e-10  2.8288759307966384e-10  2.3547022670974049e-10  1.9500893612038739e-10  1.6070786251275181e-10  1.3181039425581875e-10  1.0761077811304440e-10  8.7461406054283287e-11  7.0776513099050830e-11  5.7033004272992128e-11  4.5769077279638873e-11  3.6581234345492339e-11  2.9120192327779177e-11  2.3086112929736694e-11  1.8223491184631322e-11  1.4315965150891196e-11  1.1181246926700747e-11  8.6663282959458789e-12  6.6430878682107088e-12  5.0044266598451933e-12  3.6610954108183382e-12  2.5394651672348460e-12  1.5806576839745984e-12  7.4173321547570798e-13  0.0000000000000000e+00  0.0000000000000000e+00  6.1556270328274085e-14  1.2479779546898281e-13  1.9962919027023518e-13  2.9617257402911318e-13  4.2617315796607256e-13  6.0435972914452788e-13  8.4993191779497868e-13  1.1883138777403696e-12  1.6533054614086177e-12  2.2897629102097560e-12  3.1569471805548157e-12  4.3326855682345460e-12  5.9184976050868410e-12  8.0458352527875668e-12  1.0883575561069958e-11  1.4646875797820426e-11  1.9607450492882562e-11  2.6105250294213169e-11  3.4561407471496807e-11  4.5492156608609988e-11  5.9523237770490260e-11  7.7404042943492165e-11  1.0002047979402271e-10  1.2840521187223906e-10  1.6374361236005653e-10  2.0737347068107764e-10  2.6077625984280259e-10  3.2555765907292221e-10  4.0341508967029262e-10  4.9609032189573415e-10  6.0530580050069259e-10  7.3268425273616055e-10  8.7965239369657188e-10  1.0473310980897441e-09  1.2364161842019118e-09  1.4470558201588970e-09  1.6787323281732931e-09  1.9301576028914586e-09  2.1991922304299242e-09  2.4827984629743995e-09  2.7770362873741635e-09  3.0771098305419019e-09  3.3774682961277266e-09  3.6719616933308571e-09  3.9540471092126053e-09  4.2170366196990564e-09  4.4543736356447384e-09  4.6599210543498307e-09  4.8282424879426761e-09  4.9548573906759717e-09  5.0364522435394752e-09  5.0710329973050308e-09  5.0580084329238860e-09  4.9981995044472127e-09  4.8937755060578906e-09  4.7481234414917354e-09  4.5656617120954351e-09  4.3516127421400062e-09  4.1117511609349968e-09  3.8521445863411372e-09  3.5789030116666615e-09  3.2979505450833583e-09  3.0148301443789984e-09  2.7345484296853129e-09  2.4614640315660591e-09  2.1992195759940826e-09  1.9507145726199139e-09  1.7181143135626985e-09  1.5028884673537214e-09  1.3058723452832678e-09  1.1273437415354957e-09  9.6710868047502159e-10  8.2459020230361819e-10  6.9891534018076618e-10  5.8899655983537494e-10  4.9360504135625696e-10  4.1143420359993355e-10  3.4115275279055387e-10  2.8144725110609754e-10  2.3105474123727550e-10  1.8878633720120212e-10  1.5354291851054922e-10  1.2432416840175815e-10  1.0023220366468859e-10  8.0470979590370924e-11  6.4342542160425645e-11  5.1241060877368691e-11  4.0645425747574035e-11  3.2111043272070057e-11  2.5261327955850795e-11  1.9779264309788239e-11  1.5399314436792213e-11  1.1899872402606699e-11  9.0964239229727960e-12  6.8355663803518348e-12  4.9900928695042522e-12  3.4554664609236902e-12  2.1482422397264045e-12  1.0073908211326530e-12  0.0000000000000000e+00  0.0000000000000000e+00  8.3066737294424177e-14  1.6867563073804876e-13  2.7047384209995038e-13  4.0250167808369485e-13  5.8117624906358905e-13  8.2723389840313210e-13  1.1678791963334927e-12  1.6393464150194399e-12  2.2900710211277373e-12  3.1846745786550024e-12  4.4089804257892380e-12  6.0762942561921729e-12  8.3351979129949758e-12  1.1379110208120770e-11  1.5457858173404730e-11  2.0891467186027739e-11  2.8086308811814435e-11  3.7553629765036947e-11  4.9930312456412421e-11  6.6001476354030398e-11  8.6724211597685045e-11  1