<?xml version="1.0"?>
<VTKFile type="UnstructuredGrid"  version="0.1"  >
<UnstructuredGrid>
<Piece  NumberOfPoints="10201" NumberOfCells="20000">
<Points>
<DataArray  type="Float64"  NumberOfComponents="3"  format="ascii">0 0 0  0.01 0 0  0.02 0 0  0.03 0 0  0.04 0 0  0.05 0 0  0.06 0 0  0.07000000000000001 0 0  0.08 0 0  0.09 0 0  0.1 0 0  0.11 0 0  0.12 0 0  0.13 0 0  0.14 0 0  0.15 0 0  0.16 0 0  0.17 0 0  0.18 0 0  0.19 0 0  0.2 0 0  0.21 0 0  0.22 0 0  0.23 0 0  0.24 0 0  0.25 0 0  0.26 0 0  0.27 0 0  0.28 0 0  0.29 0 0  0.3 0 0  0.31 0 0  0.32 0 0  0.33 0 0  0.34 0 0  0.35 0 0  0.36 0 0  0.37 0 0  0.38 0 0  0.39 0 0  0.4 0 0  0.41 0 0  0.42 0 0  0.43 0 0  0.44 0 0  0.45 0 0  0.46 0 0  0.47 0 0  0.48 0 0  0.49 0 0  0.5 0 0  0.51 0 0  0.52 0 0  0.53 0 0  0.54 0 0  0.55 0 0  0.5600000000000001 0 0  0.57 0 0  0.58 0 0  0.59 0 0  0.6 0 0  0.61 0 0  0.62 0 0  0.63 0 0  0.64 0 0  0.65 0 0  0.66 0 0  0.67 0 0  0.68 0 0  0.6899999999999999 0 0  0.7 0 0  0.71 0 0  0.72 0 0  0.73 0 0  0.74 0 0  0.75 0 0  0.76 0 0  0.77 0 0  0.78 0 0  0.79 0 0  0.8 0 0  0.8100000000000001 0 0  0.82 0 0  0.83 0 0  0.84 0 0  0.85 0 0  0.86 0 0  0.87 0 0  0.88 0 0  0.89 0 0  0.9 0 0  0.91 0 0  0.92 0 0  0.93 0 0  0.9399999999999999 0 0  0.95 0 0  0.96 0 0  0.97 0 0  0.98 0 0  0.99 0 0  1 0 0  0 0.01 0  0.01 0.01 0  0.02 0.01 0  0.03 0.01 0  0.04 0.01 0  0.05 0.01 0  0.06 0.01 0  0.07000000000000001 0.01 0  0.08 0.01 0  0.09 0.01 0  0.1 0.01 0  0.11 0.01 0  0.12 0.01 0  0.13 0.01 0  0.14 0.01 0  0.15 0.01 0  0.16 0.01 0  0.17 0.01 0  0.18 0.01 0  0.19 0.01 0  0.2 0.01 0  0.21 0.01 0  0.22 0.01 0  0.23 0.01 0  0.24 0.01 0  0.25 0.01 0  0.26 0.01 0  0.27 0.01 0  0.28 0.01 0  0.29 0.01 0  0.3 0.01 0  0.31 0.01 0  0.32 0.01 0  0.33 0.01 0  0.34 0.01 0  0.35 0.01 0  0.36 0.01 0  0.37 0.01 0  0.38 0.01 0  0.39 0.01 0  0.4 0.01 0  0.41 0.01 0  0.42 0.01 0  0.43 0.01 0  0.44 0.01 0  0.45 0.01 0  0.46 0.01 0  0.47 0.01 0  0.48 0.01 0  0.49 0.01 0  0.5 0.01 0  0.51 0.01 0  0.52 0.01 0  0.53 0.01 0  0.54 0.01 0  0.55 0.01 0  0.5600000000000001 0.01 0  0.57 0.01 0  0.58 0.01 0  0.59 0.01 0  0.6 0.01 0  0.61 0.01 0  0.62 0.01 0  0.63 0.01 0  0.64 0.01 0  0.65 0.01 0  0.66 0.01 0  0.67 0.01 0  0.68 0.01 0  0.6899999999999999 0.01 0  0.7 0.01 0  0.71 0.01 0  0.72 0.01 0  0.73 0.01 0  0.74 0.01 0  0.75 0.01 0  0.76 0.01 0  0.77 0.01 0  0.78 0.01 0  0.79 0.01 0  0.8 0.01 0  0.8100000000000001 0.01 0  0.82 0.01 0  0.83 0.01 0  0.84 0.01 0  0.85 0.01 0  0.86 0.01 0  0.87 0.01 0  0.88 0.01 0  0.89 0.01 0  0.9 0.01 0  0.91 0.01 0  0.92 0.01 0  0.93 0.01 0  0.9399999999999999 0.01 0  0.95 0.01 0  0.96 0.01 0  0.97 0.01 0  0.98 0.01 0  0.99 0.01 0  1 0.01 0  0 0.02 0  0.01 0.02 0  0.02 0.02 0  0.03 0.02 0  0.04 0.02 0  0.05 0.02 0  0.06 0.02 0  0.07000000000000001 0.02 0  0.08 0.02 0  0.09 0.02 0  0.1 0.02 0  0.11 0.02 0  0.12 0.02 0  0.13 0.02 0  0.14 0.02 0  0.15 0.02 0  0.16 0.02 0  0.17 0.02 0  0.18 0.02 0  0.19 0.02 0  0.2 0.02 0  0.21 0.02 0  0.22 0.02 0  0.23 0.02 0  0.24 0.02 0  0.25 0.02 0  0.26 0.02 0  0.27 0.02 0  0.28 0.02 0  0.29 0.02 0  0.3 0.02 0  0.31 0.02 0  0.32 0.02 0  0.33 0.02 0  0.34 0.02 0  0.35 0.02 0  0.36 0.02 0  0.37 0.02 0  0.38 0.02 0  0.39 0.02 0  0.4 0.02 0  0.41 0.02 0  0.42 0.02 0  0.43 0.02 0  0.44 0.02 0  0.45 0.02 0  0.46 0.02 0  0.47 0.02 0  0.48 0.02 0  0.49 0.02 0  0.5 0.02 0  0.51 0.02 0  0.52 0.02 0  0.53 0.02 0  0.54 0.02 0  0.55 0.02 0  0.5600000000000001 0.02 0  0.57 0.02 0  0.58 0.02 0  0.59 0.02 0  0.6 0.02 0  0.61 0.02 0  0.62 0.02 0  0.63 0.02 0  0.64 0.02 0  0.65 0.02 0  0.66 0.02 0  0.67 0.02 0  0.68 0.02 0  0.6899999999999999 0.02 0  0.7 0.02 0  0.71 0.02 0  0.72 0.02 0  0.73 0.02 0  0.74 0.02 0  0.75 0.02 0  0.76 0.02 0  0.77 0.02 0  0.78 0.02 0  0.79 0.02 0  0.8 0.02 0  0.8100000000000001 0.02 0  0.82 0.02 0  0.83 0.02 0  0.84 0.02 0  0.85 0.02 0  0.86 0.02 0  0.87 0.02 0  0.88 0.02 0  0.89 0.02 0  0.9 0.02 0  0.91 0.02 0  0.92 0.02 0  0.93 0.02 0  0.9399999999999999 0.02 0  0.95 0.02 0  0.96 0.02 0  0.97 0.02 0  0.98 0.02 0  0.99 0.02 0  1 0.02 0  0 0.03 0  0.01 0.03 0  0.02 0.03 0  0.03 0.03 0  0.04 0.03 0  0.05 0.03 0  0.06 0.03 0  0.07000000000000001 0.03 0  0.08 0.03 0  0.09 0.03 0  0.1 0.03 0  0.11 0.03 0  0.12 0.03 0  0.13 0.03 0  0.14 0.03 0  0.15 0.03 0  0.16 0.03 0  0.17 0.03 0  0.18 0.03 0  0.19 0.03 0  0.2 0.03 0  0.21 0.03 0  0.22 0.03 0  0.23 0.03 0  0.24 0.03 0  0.25 0.03 0  0.26 0.03 0  0.27 0.03 0  0.28 0.03 0  0.29 0.03 0  0.3 0.03 0  0.31 0.03 0  0.32 0.03 0  0.33 0.03 0  0.34 0.03 0  0.35 0.03 0  0.36 0.03 0  0.37 0.03 0  0.38 0.03 0  0.39 0.03 0  0.4 0.03 0  0.41 0.03 0  0.42 0.03 0  0.43 0.03 0  0.44 0.03 0  0.45 0.03 0  0.46 0.03 0  0.47 0.03 0  0.48 0.03 0  0.49 0.03 0  0.5 0.03 0  0.51 0.03 0  0.52 0.03 0  0.53 0.03 0  0.54 0.03 0  0.55 0.03 0  0.5600000000000001 0.03 0  0.57 0.03 0  0.58 0.03 0  0.59 0.03 0  0.6 0.03 0  0.61 0.03 0  0.62 0.03 0  0.63 0.03 0  0.64 0.03 0  0.65 0.03 0  0.66 0.03 0  0.67 0.03 0  0.68 0.03 0  0.6899999999999999 0.03 0  0.7 0.03 0  0.71 0.03 0  0.72 0.03 0  0.73 0.03 0  0.74 0.03 0  0.75 0.03 0  0.76 0.03 0  0.77 0.03 0  0.78 0.03 0  0.79 0.03 0  0.8 0.03 0  0.8100000000000001 0.03 0  0.82 0.03 0  0.83 0.03 0  0.84 0.03 0  0.85 0.03 0  0.86 0.03 0  0.87 0.03 0  0.88 0.03 0  0.89 0.03 0  0.9 0.03 0  0.91 0.03 0  0.92 0.03 0  0.93 0.03 0  0.9399999999999999 0.03 0  0.95 0.03 0  0.96 0.03 0  0.97 0.03 0  0.98 0.03 0  0.99 0.03 0  1 0.03 0  0 0.04 0  0.01 0.04 0  0.02 0.04 0  0.03 0.04 0  0.04 0.04 0  0.05 0.04 0  0.06 0.04 0  0.07000000000000001 0.04 0  0.08 0.04 0  0.09 0.04 0  0.1 0.04 0  0.11 0.04 0  0.12 0.04 0  0.13 0.04 0  0.14 0.04 0  0.15 0.04 0  0.16 0.04 0  0.17 0.04 0  0.18 0.04 0  0.19 0.04 0  0.2 0.04 0  0.21 0.04 0  0.22 0.04 0  0.23 0.04 0  0.24 0.04 0  0.25 0.04 0  0.26 0.04 0  0.27 0.04 0  0.28 0.04 0  0.29 0.04 0  0.3 0.04 0  0.31 0.04 0  0.32 0.04 0  0.33 0.04 0  0.34 0.04 0  0.35 0.04 0  0.36 0.04 0  0.37 0.04 0  0.38 0.04 0  0.39 0.04 0  0.4 0.04 0  0.41 0.04 0  0.42 0.04 0  0.43 0.04 0  0.44 0.04 0  0.45 0.04 0  0.46 0.04 0  0.47 0.04 0  0.48 0.04 0  0.49 0.04 0  0.5 0.04 0  0.51 0.04 0  0.52 0.04 0  0.53 0.04 0  0.54 0.04 0  0.55 0.04 0  0.5600000000000001 0.04 0  0.57 0.04 0  0.58 0.04 0  0.59 0.04 0  0.6 0.04 0  0.61 0.04 0  0.62 0.04 0  0.63 0.04 0  0.64 0.04 0  0.65 0.04 0  0.66 0.04 0  0.67 0.04 0  0.68 0.04 0  0.6899999999999999 0.04 0  0.7 0.04 0  0.71 0.04 0  0.72 0.04 0  0.73 0.04 0  0.74 0.04 0  0.75 0.04 0  0.76 0.04 0  0.77 0.04 0  0.78 0.04 0  0.79 0.04 0  0.8 0.04 0  0.8100000000000001 0.04 0  0.82 0.04 0  0.83 0.04 0  0.84 0.04 0  0.85 0.04 0  0.86 0.04 0  0.87 0.04 0  0.88 0.04 0  0.89 0.04 0  0.9 0.04 0  0.91 0.04 0  0.92 0.04 0  0.93 0.04 0  0.9399999999999999 0.04 0  0.95 0.04 0  0.96 0.04 0  0.97 0.04 0  0.98 0.04 0  0.99 0.04 0  1 0.04 0  0 0.05 0  0.01 0.05 0  0.02 0.05 0  0.03 0.05 0  0.04 0.05 0  0.05 0.05 0  0.06 0.05 0  0.07000000000000001 0.05 0  0.08 0.05 0  0.09 0.05 0  0.1 0.05 0  0.11 0.05 0  0.12 0.05 0  0.13 0.05 0  0.14 0.05 0  0.15 0.05 0  0.16 0.05 0  0.17 0.05 0  0.18 0.05 0  0.19 0.05 0  0.2 0.05 0  0.21 0.05 0  0.22 0.05 0  0.23 0.05 0  0.24 0.05 0  0.25 0.05 0  0.26 0.05 0  0.27 0.05 0  0.28 0.05 0  0.29 0.05 0  0.3 0.05 0  0.31 0.05 0  0.32 0.05 0  0.33 0.05 0  0.34 0.05 0  0.35 0.05 0  0.36 0.05 0  0.37 0.05 0  0.38 0.05 0  0.39 0.05 0  0.4 0.05 0  0.41 0.05 0  0.42 0.05 0  0.43 0.05 0  0.44 0.05 0  0.45 0.05 0  0.46 0.05 0  0.47 0.05 0  0.48 0.05 0  0.49 0.05 0  0.5 0.05 0  0.51 0.05 0  0.52 0.05 0  0.53 0.05 0  0.54 0.05 0  0.55 0.05 0  0.5600000000000001 0.05 0  0.57 0.05 0  0.58 0.05 0  0.59 0.05 0  0.6 0.05 0  0.61 0.05 0  0.62 0.05 0  0.63 0.05 0  0.64 0.05 0  0.65 0.05 0  0.66 0.05 0  0.67 0.05 0  0.68 0.05 0  0.6899999999999999 0.05 0  0.7 0.05 0  0.71 0.05 0  0.72 0.05 0  0.73 0.05 0  0.74 0.05 0  0.75 0.05 0  0.76 0.05 0  0.77 0.05 0  0.78 0.05 0  0.79 0.05 0  0.8 0.05 0  0.8100000000000001 0.05 0  0.82 0.05 0  0.83 0.05 0  0.84 0.05 0  0.85 0.05 0  0.86 0.05 0  0.87 0.05 0  0.88 0.05 0  0.89 0.05 0  0.9 0.05 0  0.91 0.05 0  0.92 0.05 0  0.93 0.05 0  0.9399999999999999 0.05 0  0.95 0.05 0  0.96 0.05 0  0.97 0.05 0  0.98 0.05 0  0.99 0.05 0  1 0.05 0  0 0.06 0  0.01 0.06 0  0.02 0.06 0  0.03 0.06 0  0.04 0.06 0  0.05 0.06 0  0.06 0.06 0  0.07000000000000001 0.06 0  0.08 0.06 0  0.09 0.06 0  0.1 0.06 0  0.11 0.06 0  0.12 0.06 0  0.13 0.06 0  0.14 0.06 0  0.15 0.06 0  0.16 0.06 0  0.17 0.06 0  0.18 0.06 0  0.19 0.06 0  0.2 0.06 0  0.21 0.06 0  0.22 0.06 0  0.23 0.06 0  0.24 0.06 0  0.25 0.06 0  0.26 0.06 0  0.27 0.06 0  0.28 0.06 0  0.29 0.06 0  0.3 0.06 0  0.31 0.06 0  0.32 0.06 0  0.33 0.06 0  0.34 0.06 0  0.35 0.06 0  0.36 0.06 0  0.37 0.06 0  0.38 0.06 0  0.39 0.06 0  0.4 0.06 0  0.41 0.06 0  0.42 0.06 0  0.43 0.06 0  0.44 0.06 0  0.45 0.06 0  0.46 0.06 0  0.47 0.06 0  0.48 0.06 0  0.49 0.06 0  0.5 0.06 0  0.51 0.06 0  0.52 0.06 0  0.53 0.06 0  0.54 0.06 0  0.55 0.06 0  0.5600000000000001 0.06 0  0.57 0.06 0  0.58 0.06 0  0.59 0.06 0  0.6 0.06 0  0.61 0.06 0  0.62 0.06 0  0.63 0.06 0  0.64 0.06 0  0.65 0.06 0  0.66 0.06 0  0.67 0.06 0  0.68 0.06 0  0.6899999999999999 0.06 0  0.7 0.06 0  0.71 0.06 0  0.72 0.06 0  0.73 0.06 0  0.74 0.06 0  0.75 0.06 0  0.76 0.06 0  0.77 0.06 0  0.78 0.06 0  0.79 0.06 0  0.8 0.06 0  0.8100000000000001 0.06 0  0.82 0.06 0  0.83 0.06 0  0.84 0.06 0  0.85 0.06 0  0.86 0.06 0  0.87 0.06 0  0.88 0.06 0  0.89 0.06 0  0.9 0.06 0  0.91 0.06 0  0.92 0.06 0  0.93 0.06 0  0.9399999999999999 0.06 0  0.95 0.06 0  0.96 0.06 0  0.97 0.06 0  0.98 0.06 0  0.99 0.06 0  1 0.06 0  0 0.07000000000000001 0  0.01 0.07000000000000001 0  0.02 0.07000000000000001 0  0.03 0.07000000000000001 0  0.04 0.07000000000000001 0  0.05 0.07000000000000001 0  0.06 0.07000000000000001 0  0.07000000000000001 0.07000000000000001 0  0.08 0.07000000000000001 0  0.09 0.07000000000000001 0  0.1 0.07000000000000001 0  0.11 0.07000000000000001 0  0.12 0.07000000000000001 0  0.13 0.07000000000000001 0  0.14 0.07000000000000001 0  0.15 0.07000000000000001 0  0.16 0.07000000000000001 0  0.17 0.0700
[...]
<PointData  Scalars="u"> 
<DataArray  type="Float64"  Name="u"  format="ascii">0.0000000000000000e+00  0.0000000000000000e+00  0.0000000000000000e+00  0.0000000000000000e+00  0.0000000000000000e+00  0.0000000000000000e+00  0.0000000000000000e+00  0.0000000000000000e+00  0.0000000000000000e+00  0.0000000000000000e+00  0.0000000000000000e+00  0.0000000000000000e+00  0.0000000000000000e+00  0.0000000000000000e+00  0.0000000000000000e+00  0.0000000000000000e+00  0.0000000000000000e+00  0.0000000000000000e+00  0.0000000000000000e+00  0.0000000000000000e+00  0.0000000000000000e+00  0.0000000000000000e+00  0.0000000000000000e+00  0.0000000000000000e+00  0.0000000000000000e+00  0.0000000000000000e+00  0.0000000000000000e+00  0.0000000000000000e+00  0.0000000000000000e+00  0.0000000000000000e+00  0.0000000000000000e+00  0.0000000000000000e+00  0.0000000000000000e+00  0.0000000000000000e+00  0.0000000000000000e+00  0.0000000000000000e+00  0.0000000000000000e+00  0.0000000000000000e+00  0.0000000000000000e+00  0.0000000000000000e+00  0.0000000000000000e+00  0.0000000000000000e+00  0.0000000000000000e+00  0.0000000000000000e+00  0.0000000000000000e+00  0.0000000000000000e+00  0.0000000000000000e+00  0.0000000000000000e+00  0.0000000000000000e+00  0.0000000000000000e+00  0.0000000000000000e+00  0.0000000000000000e+00  0.0000000000000000e+00  0.0000000000000000e+00  0.0000000000000000e+00  0.0000000000000000e+00  0.0000000000000000e+00  0.0000000000000000e+00  0.0000000000000000e+00  0.0000000000000000e+00  0.0000000000000000e+00  0.0000000000000000e+00  0.0000000000000000e+00  0.0000000000000000e+00  0.0000000000000000e+00  0.0000000000000000e+00  0.0000000000000000e+00  0.0000000000000000e+00  0.0000000000000000e+00  0.0000000000000000e+00  0.0000000000000000e+00  0.0000000000000000e+00  0.0000000000000000e+00  0.0000000000000000e+00  0.0000000000000000e+00  0.0000000000000000e+00  0.0000000000000000e+00  0.0000000000000000e+00  0.0000000000000000e+00  0.0000000000000000e+00  0.0000000000000000e+00  0.0000000000000000e+00  0.0000000000000000e+00  0.0000000000000000e+00  0.0000000000000000e+00  0.0000000000000000e+00  0.0000000000000000e+00  0.0000000000000000e+00  0.0000000000000000e+00  0.0000000000000000e+00  0.0000000000000000e+00  0.0000000000000000e+00  0.0000000000000000e+00  0.0000000000000000e+00  0.0000000000000000e+00  0.0000000000000000e+00  0.0000000000000000e+00  0.0000000000000000e+00  0.0000000000000000e+00  0.0000000000000000e+00  0.0000000000000000e+00  0.0000000000000000e+00  3.0990758487056141e-09  6.2189389876512338e-09  9.3988186831124614e-09  1.2676129829099435e-08  1.6087594926406566e-08  1.9669460992688720e-08  2.3457682782973419e-08  2.7488060755084265e-08  3.1796331232874390e-08  3.6418207355176385e-08  4.1389369395228534e-08  4.6745402903889142e-08  5.2521683076408109e-08  5.8753203827059201e-08  6.5474350307356195e-08  7.2718614042211259e-08  8.0518250500687277e-08  8.8903879776658218e-08  9.7904032137599203e-08  1.0754464150824155e-07  1.1784849148297519e-07  1.2883462018936282e-07  1.4051769222550445e-07  1.5290734792294944e-07  1.6600754228605938e-07  1.7981588805416894e-07  1.9432301933509902e-07  2.0951199406398649e-07  2.2535775503486995e-07  2.4182667031130645e-07  2.5887617432175017e-07  2.7645453076553380e-07  2.9450073748915642e-07  3.1294459165533645e-07  3.3170693076561797e-07  3.5070006139852005e-07  3.6982838292524726e-07  3.8898920805425953e-07  4.0807377598250280e-07  4.2696844739930139e-07  4.4555606385476042e-07  4.6371744736527293e-07  4.8133300990867052e-07  4.9828443699336195e-07  5.1445640508949660e-07  5.2973828967029006e-07  5.4402581915539450e-07  5.5722263032594449e-07  5.6924168285134032e-07  5.8000649438922530e-07  5.8945216314922162e-07  5.9752615160933686e-07  6.0418881292245153e-07  6.0941365006938556e-07  6.1318730659059777e-07  6.1550929633942063e-07  6.1639148774583874e-07  6.1585736520757393e-07  6.1394109614867351e-07  6.1068643680102472e-07  6.0614551275760462e-07  6.0037751179476048e-07  5.9344732642590209e-07  5.8542418226519541e-07  5.7638028573893466e-07  5.6638952121543276e-07  5.5552622348349864e-07  5.4386404695011962e-07  5.3147494819292698e-07  5.1842829381102623e-07  5.0479010105403817e-07  4.9062241462031484e-07  4.7598281940720888e-07  4.6092408593534187e-07  4.4549394268481820e-07  4.2973496767245865e-07  4.1368459023768714e-07  3.9737519314321210e-07  3.8083430467397866e-07  3.6408487036469369e-07  3.4714559422991925e-07  3.3003133983930879e-07  3.1275358220578884e-07  2.9532090217398678e-07  2.7773951575500614e-07  2.6001383160476049e-07  2.4214703054777256e-07  2.2414166167585935e-07  2.0600025007803971e-07  1.8772591166746111e-07  1.6932297085158896e-07  1.5079757693531233e-07  1.3215831514482036e-07  1.1341680799506949e-07  9.4588302335087514e-08  7.5692236562233573e-08  5.6752780198681247e-08  3.7799329255007741e-08  1.8866906873160263e-08  0.0000000000000000e+00  0.0000000000000000e+00  6.8649128521016336e-09  1.3776792997180351e-08  2.0821901452527340e-08  2.8083372928699149e-08  3.5642768327729285e-08  4.3580600353303024e-08  5.1976750159187841e-08  6.0910777727815211e-08  7.0462124921922914e-08  8.0710208873653234e-08  9.1734402684675560e-08  1.0361389996132604e-07  1.1642745953726913e-07  1.3025302689642731e-07  1.4516722934767841e-07  1.6124474296172105e-07  1.7855753069600379e-07  1.9717395303502778e-07  2.1715775487965144e-07  2.3856693533501317e-07  2.6145251045860916e-07  2.8585718290118640e-07  3.1181393663947152e-07  3.3934457956611464e-07  3.6845826143941501e-07  3.9914999943839182e-07  4.3139924811727757e-07  4.6516855467452328e-07  5.0040234388486264e-07  5.3702587951049031e-07  5.7494445022460390e-07  6.1404282777260193e-07  6.5418504301637566e-07  6.9521452145741820e-07  7.3695461368749513e-07  7.7920954793566224e-07  8.2176582154198506e-07  8.6439403599053409e-07  9.0685116640777600e-07  9.4888324163873464e-07  9.9022839573237438e-07  1.0306202365767450e-06  1.0697914632641923e-06  1.1074776512998301e-06  1.1434211147273970e-06  1.1773747472908727e-06  1.2091057414022091e-06  1.2383990842937063e-06  1.2650607354352383e-06  1.2889203979980418e-06  1.3098338095196154e-06  1.3276844924209481e-06  1.3423849229134628e-06  1.3538770962361481e-06  1.3621324861311986e-06  1.3671514160323560e-06  1.3689618776874240e-06  1.3676178490576297e-06  1.3631971766814614e-06  1.3557990978001476e-06  1.3455414841654696e-06  1.3325578925461695e-06  1.3169945066691071e-06  1.2990070519938824e-06  1.2787577587729911e-06  1.2564124408292319e-06  1.2321377479684793e-06  1.2060986395237173e-06  1.1784561157491811e-06  1.1493652331466732e-06  1.1189734197262819e-06  1.0874190970076761e-06  1.0548306074890679e-06  1.0213254394915391e-06  9.8700973578639332e-07  9.5197806822099662e-07  9.1631345760499680e-07  8.8008761629085801e-07  8.4336139003774439e-07  8.0618537572616600e-07  7.6860069212641809e-07  7.3063988205325135e-07  6.9232792570838890e-07  6.5368334668150495e-07  6.1471939382625603e-07  5.7544528394672499e-07  5.3586749183563511e-07  4.9599107563163545e-07  4.5582102665808147e-07  4.1536363383414320e-07  3.7462785338733245e-07  3.3362667493058095e-07  2.9237847498771188e-07  2.5090834874589256e-07  2.0924941014942866e-07  1.6744404934771888e-07  1.2554513494055940e-07  8.3617148138557168e-08  4.1737266787443508e-08  0.0000000000000000e+00  0.0000000000000000e+00  1.1423302801494134e-08  2.2925665461793855e-08  3.4650682830271894e-08  4.6737215992761150e-08  5.9321534742814904e-08  7.2538200698250732e-08  8.6520772660205634e-08  1.0140233324908619e-07  1.1731583540798192e-07  1.3439426513776738e-07  1.5277061536959522e-07  1.7257766497496499e-07  1.9394755653943448e-07  2.1701116673082456e-07  2.4189726394146361e-07  2.6873144944395746e-07  2.9763488063383176e-07  3.2872277809270428e-07  3.6210272222854169e-07  3.9787275014793920e-07  4.3611926917126563e-07  4.7691480995841892e-07  5.2031564946803021e-07  5.6635934177007819e-07  6.1506220285619578e-07  6.6641680376651924e-07  7.2038953423750937e-07  7.7691830627446657e-07  8.3591047311869758e-07  8.9724104353098386e-07  9.6075127365458064e-07  1.0262477184692110e-06  1.0935018215638469e-06  1.1622501152825658e-06  1.2321950929957889e-06  1.3030068012369141e-06  1.3743251818311935e-06  1.4457631732558966e-06  1.5169105568670350e-06  1.5873385080980546e-06  1.6566047862830214e-06  1.7242594705595285e-06  1.7898511246614084e-06  1.8529332516590332e-06  1.9130708821434781e-06  1.9698471271416321e-06  2.0228695211263354e-06  2.0717759814723418e-06  2.1162402188563102e-06  2.1559764482468160e-06  2.1907432717015525e-06  2.2203466312159841e-06  2.2446417610514736e-06  2.2635341027670941e-06  2.2769791809045904e-06  2.2849814712246776e-06  2.2875923249529290e-06  2.2849070402523909e-06  2.2770611949690292e-06  2.2642263718104364e-06  2.2466054181045893e-06  2.2244273871023476e-06  2.1979423067336471e-06  2.1674159153927556e-06  2.1331244935242124e-06  2.0953499054669826e-06  2.0543749492182633e-06  2.0104790935277989e-06  1.9639346629923721e-06  1.9150035134424136e-06  1.8639342226086661e-06  1.8109598053752668e-06  1.7562959492498771e-06  1.7001397542356804e-06  1.6426689521552933e-06  1.5840415736120560e-06  1.5243960260419692e-06  1.4638515434995616e-06  1.4025089676760229e-06  1.3404518198843898e-06  1.2777476250742731e-06  1.2144494510742768e-06  1.1505976289400830e-06  1.0862216232722638e-06  1.0213420244534073e-06  9.5597263776534169e-07  8.9012264714289705e-07  8.2379883379104868e-07  7.5700783195610585e-07  6.8975840574313540e-07  6.2206373197684030e-07  5.5394367469576402e-07  4.8542703694861440e-07  4.1655377513922531e-07  3.4737716027931944e-07  2.7796586927655958e-07  2.0840598827388308e-07  1.3880291061021095e-07  6.9283125634146558e-08  0.0000000000000000e+00  0.0000000000000000e+00  1.6922095602891362e-08  3.3962624683833823e-08  5.1335002442045753e-08  6.9245992658353428e-08  8.7898583417637239e-08  1.0749331536583054e-07  1.2822934688353373e-07  1.5030525352234157e-07  1.7391955877469236e-07  1.9927099041355484e-07  2.2655845444426485e-07  2.5598071724395634e-07  2.8773578578418481e-07  3.2201997602290667e-07  3.5902666071238114e-07  3.9894469010409211e-07  4.4195648244027006e-07  4.8823578579049958e-07  5.3794511878479090e-07  5.9123290514104505e-07  6.4823032556920941e-07  7.0904792058285511e-07  7.7377198881729578e-07  8.4246083741585284e-07  9.1514095358535053e-07  9.9180317912361680e-07  1.0723989820718165e-06  1.1568369310346116e-06  1.2449794874506785e-06  1.3366402384337672e-06  1.4315816969584748e-06  1.5295137963647154e-06  1.6300932016903088e-06  1.7329235506203879e-06  1.8375567214532321e-06  1.9434952042541917e-06  2.0501956244301459e-06  2.1570734357776368e-06  2.2635087634802001e-06  2.3688533377708334e-06  2.4724384175988283e-06  2.5735835625027281e-06  2.6716060720514538e-06  2.7658308778158388e-06  2.8556006449585080e-06  2.9402858210584158e-06  3.0192943602344908e-06  3.0920808520228407e-06  3.1581547972143696e-06  3.2170877967304103e-06  3.2685194536819999e-06  3.3121618314682592e-06  3.3478023600275252e-06  3.3753051356725766e-06  3.3946106146083851e-06  3.4057337535093148e-06  3.4087606998463042e-06  3.4038441777607944e-06  3.3911977504103759e-06  3.3710891656547956e-06  3.3438330081110710e-06  3.3097828869834197e-06  3.2693233862143562e-06  3.2228619924120636e-06  3.1708211980343224e-06  3.1136309540171189e-06  3.0517216190861239e-06  2.9855175240186810e-06  2.9154312396514687e-06  2.8418586087811944e-06  2.7651745753684644e-06  2.6857298204493592e-06  2.6038481934393024e-06  2.5198249103817098e-06  2.4339254772282369e-06  2.3463852863305486e-06  2.2574098277216652e-06  2.1671754531100694e-06  2.0758306293773779e-06  1.9834976193043560e-06  1.8902745297903181e-06  1.7962376715358996e-06  1.7014441786219431e-06  1.6059348412761535e-06  1.5097371100633099e-06  1.4128682345064552e-06  1.3153385035396285e-06  1.2171545590496048e-06  1.1183227569713728e-06  1.0188525528847794e-06  9.1875989077604161e-07  8.1807057456454591e-07  7.1682360216405930e-07  6.1507444128644767e-07  5.1289822498086882e-07  4.1039284317894561e-07  3.0768190453229804e-07  2.0491754067798027e-07  1.0228303443347612e-07  0.0000000000000000e+00  0.0000000000000000e+00  2.3535583751808493e-08  4.7237934001475976e-08  7.1405420566068120e-08  9.6327496137514104e-08  1.2228847419982610e-07  1.4956941521428250e-07  1.7844964461818544e-07  2.0920789903762105e-07  2.4212309591776433e-07  2.7747471782662233e-07  3.1554279952955814e-07  3.5660750371235620e-07  4.0094827008486500e-07  4.4884252266676007e-07  5.0056392149438646e-07  5.5638014795093611e-07  6.1655021756470542e-07  6.8132132057885690e-07  7.5092519897793830e-07  8.2557407902261395e-07  9.0545619069279011e-07  9.9073091968713253e-07  1.0815236535897195e-06  1.1779204011894817e-06  1.2799622822879766e-06  1.3876400040729470e-06  1.5008884585353663e-06  1.6195815925862051e-06  1.7435277174742366e-06  1.8724654357035866e-06  2.0060603707258261e-06  2.1439028860623340e-06  2.2855069750980309e-06  2.4303104896374254e-06  2.5776768537420031e-06  2.7268983790408082e-06  2.8772012587310418e-06  3.0277522704885744e-06  3.1776671646811055e-06  3.3260206553914263e-06  3.4718578701348976e-06  3.6142070525806659e-06  3.7520932541819053e-06  3.8845526986608536e-06  4.0106474609921847e-06  4.1294800727937492e-06  4.2402076512366030e-06  4.3420551503392109e-06  4.4343273524971594e-06  4.5164192539705320e-06  4.5878245494006351e-06  4.6481419848605205e-06  4.6970794232249778e-06  4.7344555459275089e-06  4.7601991972714251e-06  4.7743464571668524e-06  4.7770356015331565e-06  4.7685001732361586e-06  4.7490604376738193e-06  4.7191135342291457e-06  4.6791226569725622e-06  4.6296056053461752e-06  4.5711230390628858e-06  4.5042667527568450e-06  4.4296482571823441e-06  4.3478879174334289e-06  4.2596048573086427e-06  4.1654077950671294e-06  4.0658869316901239e-06  3.9616069703307418e-06  3.8531013064710129e-06  3.7408673935582814e-06  3.6253632593018739e-06  3.5070051237338555e-06  3.3861660516024832e-06  3.2631755584327648e-06  3.1383200812090774e-06  3.0118442205237815e-06  2.8839526605240526e-06  2.7548126753753815e-06  2.6245571355514149e-06  2.4932879334026355e-06  2.3610797545575706e-06  2.2279841292515764e-06  2.0940337052208295e-06  1.9592466909857329e-06  1.8236314248982580e-06  1.6871910310333027e-06  1.5499281277194084e-06  1.4118495581391251e-06  1.2729711149400416e-06  1.1333222321796921e-06  9.9295061821013561e-07  8.5192680235079697e-07  7.1034856649080762e-07  5.6834523021701194e-07  4.2608175475930752e-07  2.8376262688011254e-07  1.4163549351543424e-07  0.0000000000000000e+00  0.0000000000000000e+00  3.1468906656516820e-08  6.3163925166123968e-08  9.5486709510749277e-08  1.2882733786993380e-07  1.6356920075702351e-07  2.0009158800677973e-07  2.3877177937635856e-07  2.7998663413074861e-07  3.2411367244417168e-07  3.7153163586856441e-07  4.2262050960126952e-07  4.7776098599461048e-07  5.3733334688263202e-07  6.0171574206376848e-07  6.7128184289675158e-07  7.4639785367343747e-07  8.2741886945597050e-07  9.1468457761830744e-07  1.0085143115882240e-06  1.1092014793614824e-06  1.2170074062875672e-06  1.3321546513285049e-06  1.4548198782524147e-06  1.5851263876588883e-06  1.7231364417696055e-06  1.8688435407693388e-06  2.0221648361408940e-06  2.1829338916728827e-06  2.3508940251958845e-06  2.5256924820169896e-06  2.7068757027595510e-06  2.8938859521320637e-06  3.0860595693802798e-06  3.2826270843585250e-06  3.4827154141718155e-06  3.6853523135665566e-06  3.8894731976965777e-06  4.0939303893347380e-06  4.2975047656544365e-06  4.4989196948663037e-06  4.6968570636034640e-06  4.8899751060815971e-06  5.0769276603370001e-06  5.2563844001657579e-06  5.4270515285945430e-06  5.5876923742369494e-06  5.7371473093642564e-06  5.8743524104505512e-06  5.9983563094373246e-06  6.1083347365258002e-06  6.2036023308511512e-06  6.2836213903089148e-06  6.3480073411897094e-06  6.3965308263035168e-06  6.4291164306075120e-06  6.4458381796421356e-06  6.4469120524231033e-06  6.4326858417920063e-06  6.4036267677371289e-06  6.3603073003954480e-06  6.3033896783332699e-06  6.2336096146910267e-06  6.1517596705298019e-06  6.0586727439035580e-06  5.9552060781814442e-06  5.8422261377347579e-06  5.7205946371530002e-06  5.5911559453635013e-06  5.4547260217178569e-06  5.3120829800670012e-06  5.1639593212500494e-06  5.0110358258070731e-06  4.8539370580099245e-06  4.6932283998496617e-06  4.5294145093119531e-06  4.3629390806278391e-06  4.1941857744465090e-06  4.0234801821040758e-06  3.8510926893281943e-06  3.6772421097753057e-06  3.5020999667310779e-06  3.3257953111789129e-06  3.1484199754225893e-06  2.9700341728204961e-06  2.7906723653582321e-06  2.6103493312801199e-06  2.4290663744572813e-06  2.2468176253314725e-06  2.0635963899671489e-06  1.8794015088730590e-06  1.6942436907830882e-06  1.5081517885298325e-06  1.3211789845583357e-06  1.1334088525996561e-06  9.4496125966377718e-07  7.5599806893274635e-07  5.6672859941753006e-07  3.7741479244002145e-07  1.8837604569571882e-07  0.0000000000000000e+00  0.0000000000000000e+00  4.0963100414029268e-08  8.2225174894172772e-08  1.2431333904020182e-07  1.6774003231788726e-07  2.1300927413781193e-07  2.6062013275904281e-07  3.1106954208849538e-07  3.6485446036486550e-07  4.2247336039938240e-07  4.8442703326156048e-07  5.5121868089493765e-07  6.2335326833030995e-07  7.0133610318870343e-07  7.8567060932371488e-07  8.7685526306032585e-07  9.7537966487956657e-07  1.0817197269123050e-06  1.1963319675607300e-06  1.3196469192406148e-06  1.4520616738374444e-06  1.5939316130951310e-06  1.7455613977632651e-06  1.9071953196876476e-06  2.0790071546818944e-06  2.2610896902409456e-06  2.4534441399255862e-06  2.6559696942124554e-06  2.8684534940889099e-06  3.0905613466837113e-06  3.3218295294978055e-06  3.5616580488725096e-06  3.8093057266557796e-06  4.0638874841135000e-06  4.3243741717356998e-06  4.5895952559126919e-06  4.8582446173835754e-06  5.1288896416658333e-06  5.3999836892307644e-06  5.6698819251096799e-06  5.9368603673313387e-06  6.1991378858248294e-06  6.4549007540461800e-06  6.7023292313533322e-06  6.9396255423044119e-06  7.1650425268283198e-06  7.3769121692927312e-06  7.5736731804134407e-06  7.7538968075790414e-06  7.9163100882680310e-06  8.0598158371901158e-06  8.1835087675106760e-06  8.2866872846197764e-06  8.3688606500330561e-06  8.4297513843984824e-06  8.4692929527349106e-06  8.4876229424582171e-06  8.4850720967023799e-06  8.4621496945290516e-06  8.4195258703062224e-06  8.3580115334371762e-06  8.2785365855876957e-06  8.1821271365680196e-06  8.0698823949029260e-06  7.9429518591416383e-06  7.8025133663693519e-06  7.6497524709222729e-06  7.4858435347490957e-06  7.3119328166161816e-06  7.1291237551730496e-06  6.9384645546769670e-06  6.7409381048552113e-06  6.5374541999290665e-06  6.3288439672885606e-06  6.1158563739453440e-06  5.8991566482967932e-06  5.6793264349978759e-06  5.4568654906002255e-06  5.2321947256128553e-06  5.0056604032145321e-06  4.7775393144651902e-06  4.5480447630711942e-06  4.3173332082446827e-06  4.0855114308170838e-06  3.8526441045621216e-06  3.6187616708769748e-06  3.3838684299613181e-06  3.1479507749784668e-06  2.9109855070778205e-06  2.6729481784175469e-06  2.4338214173638845e-06  2.1936031948496617e-06  1.9523149935027687e-06  1.7100098417048756e-06  1.4667801733450099e-06  1.2227654708452434e-06  9.7815964421610134e-07  7.3321809259794238e-07  4.8826438716790812e-07  2.4369652589259420e-07  0.0000000000000000e+00  0.0000000000000000e+00  5.2300867279489645e-08  1.0499013532753635e-07  1.5874718386685872e-07  2.1423312343984555e-07  2.7209873904461644e-07  3.3298907055182765e-07  3.9754715238916987e-07  4.6641690462830480e-07  5.4024516091622998e-07  6.1968280798230407e-07  7.0538500247372135e-07  7.9801042389095101e-07  8.9821951775035197e-07  1.0066716811884256e-06  1.1240213444808628e-06  1.2509129068521930e-06  1.3879744939844204e-06  1.5358105182707693e-06  1.6949930415352557e-06  1.8660519639996672e-06  2.0494640929457277e-06  2