<?xml version="1.0"?>
<VTKFile type="UnstructuredGrid"  version="0.1"  >
<UnstructuredGrid>
<Piece  NumberOfPoints="10201" NumberOfCells="20000">
<Points>
<DataArray  type="Float64"  NumberOfComponents="3"  format="ascii">0 0 0  0.01 0 0  0.02 0 0  0.03 0 0  0.04 0 0  0.05 0 0  0.06 0 0  0.07000000000000001 0 0  0.08 0 0  0.09 0 0  0.1 0 0  0.11 0 0  0.12 0 0  0.13 0 0  0.14 0 0  0.15 0 0  0.16 0 0  0.17 0 0  0.18 0 0  0.19 0 0  0.2 0 0  0.21 0 0  0.22 0 0  0.23 0 0  0.24 0 0  0.25 0 0  0.26 0 0  0.27 0 0  0.28 0 0  0.29 0 0  0.3 0 0  0.31 0 0  0.32 0 0  0.33 0 0  0.34 0 0  0.35 0 0  0.36 0 0  0.37 0 0  0.38 0 0  0.39 0 0  0.4 0 0  0.41 0 0  0.42 0 0  0.43 0 0  0.44 0 0  0.45 0 0  0.46 0 0  0.47 0 0  0.48 0 0  0.49 0 0  0.5 0 0  0.51 0 0  0.52 0 0  0.53 0 0  0.54 0 0  0.55 0 0  0.5600000000000001 0 0  0.57 0 0  0.58 0 0  0.59 0 0  0.6 0 0  0.61 0 0  0.62 0 0  0.63 0 0  0.64 0 0  0.65 0 0  0.66 0 0  0.67 0 0  0.68 0 0  0.6899999999999999 0 0  0.7 0 0  0.71 0 0  0.72 0 0  0.73 0 0  0.74 0 0  0.75 0 0  0.76 0 0  0.77 0 0  0.78 0 0  0.79 0 0  0.8 0 0  0.8100000000000001 0 0  0.82 0 0  0.83 0 0  0.84 0 0  0.85 0 0  0.86 0 0  0.87 0 0  0.88 0 0  0.89 0 0  0.9 0 0  0.91 0 0  0.92 0 0  0.93 0 0  0.9399999999999999 0 0  0.95 0 0  0.96 0 0  0.97 0 0  0.98 0 0  0.99 0 0  1 0 0  0 0.01 0  0.01 0.01 0  0.02 0.01 0  0.03 0.01 0  0.04 0.01 0  0.05 0.01 0  0.06 0.01 0  0.07000000000000001 0.01 0  0.08 0.01 0  0.09 0.01 0  0.1 0.01 0  0.11 0.01 0  0.12 0.01 0  0.13 0.01 0  0.14 0.01 0  0.15 0.01 0  0.16 0.01 0  0.17 0.01 0  0.18 0.01 0  0.19 0.01 0  0.2 0.01 0  0.21 0.01 0  0.22 0.01 0  0.23 0.01 0  0.24 0.01 0  0.25 0.01 0  0.26 0.01 0  0.27 0.01 0  0.28 0.01 0  0.29 0.01 0  0.3 0.01 0  0.31 0.01 0  0.32 0.01 0  0.33 0.01 0  0.34 0.01 0  0.35 0.01 0  0.36 0.01 0  0.37 0.01 0  0.38 0.01 0  0.39 0.01 0  0.4 0.01 0  0.41 0.01 0  0.42 0.01 0  0.43 0.01 0  0.44 0.01 0  0.45 0.01 0  0.46 0.01 0  0.47 0.01 0  0.48 0.01 0  0.49 0.01 0  0.5 0.01 0  0.51 0.01 0  0.52 0.01 0  0.53 0.01 0  0.54 0.01 0  0.55 0.01 0  0.5600000000000001 0.01 0  0.57 0.01 0  0.58 0.01 0  0.59 0.01 0  0.6 0.01 0  0.61 0.01 0  0.62 0.01 0  0.63 0.01 0  0.64 0.01 0  0.65 0.01 0  0.66 0.01 0  0.67 0.01 0  0.68 0.01 0  0.6899999999999999 0.01 0  0.7 0.01 0  0.71 0.01 0  0.72 0.01 0  0.73 0.01 0  0.74 0.01 0  0.75 0.01 0  0.76 0.01 0  0.77 0.01 0  0.78 0.01 0  0.79 0.01 0  0.8 0.01 0  0.8100000000000001 0.01 0  0.82 0.01 0  0.83 0.01 0  0.84 0.01 0  0.85 0.01 0  0.86 0.01 0  0.87 0.01 0  0.88 0.01 0  0.89 0.01 0  0.9 0.01 0  0.91 0.01 0  0.92 0.01 0  0.93 0.01 0  0.9399999999999999 0.01 0  0.95 0.01 0  0.96 0.01 0  0.97 0.01 0  0.98 0.01 0  0.99 0.01 0  1 0.01 0  0 0.02 0  0.01 0.02 0  0.02 0.02 0  0.03 0.02 0  0.04 0.02 0  0.05 0.02 0  0.06 0.02 0  0.07000000000000001 0.02 0  0.08 0.02 0  0.09 0.02 0  0.1 0.02 0  0.11 0.02 0  0.12 0.02 0  0.13 0.02 0  0.14 0.02 0  0.15 0.02 0  0.16 0.02 0  0.17 0.02 0  0.18 0.02 0  0.19 0.02 0  0.2 0.02 0  0.21 0.02 0  0.22 0.02 0  0.23 0.02 0  0.24 0.02 0  0.25 0.02 0  0.26 0.02 0  0.27 0.02 0  0.28 0.02 0  0.29 0.02 0  0.3 0.02 0  0.31 0.02 0  0.32 0.02 0  0.33 0.02 0  0.34 0.02 0  0.35 0.02 0  0.36 0.02 0  0.37 0.02 0  0.38 0.02 0  0.39 0.02 0  0.4 0.02 0  0.41 0.02 0  0.42 0.02 0  0.43 0.02 0  0.44 0.02 0  0.45 0.02 0  0.46 0.02 0  0.47 0.02 0  0.48 0.02 0  0.49 0.02 0  0.5 0.02 0  0.51 0.02 0  0.52 0.02 0  0.53 0.02 0  0.54 0.02 0  0.55 0.02 0  0.5600000000000001 0.02 0  0.57 0.02 0  0.58 0.02 0  0.59 0.02 0  0.6 0.02 0  0.61 0.02 0  0.62 0.02 0  0.63 0.02 0  0.64 0.02 0  0.65 0.02 0  0.66 0.02 0  0.67 0.02 0  0.68 0.02 0  0.6899999999999999 0.02 0  0.7 0.02 0  0.71 0.02 0  0.72 0.02 0  0.73 0.02 0  0.74 0.02 0  0.75 0.02 0  0.76 0.02 0  0.77 0.02 0  0.78 0.02 0  0.79 0.02 0  0.8 0.02 0  0.8100000000000001 0.02 0  0.82 0.02 0  0.83 0.02 0  0.84 0.02 0  0.85 0.02 0  0.86 0.02 0  0.87 0.02 0  0.88 0.02 0  0.89 0.02 0  0.9 0.02 0  0.91 0.02 0  0.92 0.02 0  0.93 0.02 0  0.9399999999999999 0.02 0  0.95 0.02 0  0.96 0.02 0  0.97 0.02 0  0.98 0.02 0  0.99 0.02 0  1 0.02 0  0 0.03 0  0.01 0.03 0  0.02 0.03 0  0.03 0.03 0  0.04 0.03 0  0.05 0.03 0  0.06 0.03 0  0.07000000000000001 0.03 0  0.08 0.03 0  0.09 0.03 0  0.1 0.03 0  0.11 0.03 0  0.12 0.03 0  0.13 0.03 0  0.14 0.03 0  0.15 0.03 0  0.16 0.03 0  0.17 0.03 0  0.18 0.03 0  0.19 0.03 0  0.2 0.03 0  0.21 0.03 0  0.22 0.03 0  0.23 0.03 0  0.24 0.03 0  0.25 0.03 0  0.26 0.03 0  0.27 0.03 0  0.28 0.03 0  0.29 0.03 0  0.3 0.03 0  0.31 0.03 0  0.32 0.03 0  0.33 0.03 0  0.34 0.03 0  0.35 0.03 0  0.36 0.03 0  0.37 0.03 0  0.38 0.03 0  0.39 0.03 0  0.4 0.03 0  0.41 0.03 0  0.42 0.03 0  0.43 0.03 0  0.44 0.03 0  0.45 0.03 0  0.46 0.03 0  0.47 0.03 0  0.48 0.03 0  0.49 0.03 0  0.5 0.03 0  0.51 0.03 0  0.52 0.03 0  0.53 0.03 0  0.54 0.03 0  0.55 0.03 0  0.5600000000000001 0.03 0  0.57 0.03 0  0.58 0.03 0  0.59 0.03 0  0.6 0.03 0  0.61 0.03 0  0.62 0.03 0  0.63 0.03 0  0.64 0.03 0  0.65 0.03 0  0.66 0.03 0  0.67 0.03 0  0.68 0.03 0  0.6899999999999999 0.03 0  0.7 0.03 0  0.71 0.03 0  0.72 0.03 0  0.73 0.03 0  0.74 0.03 0  0.75 0.03 0  0.76 0.03 0  0.77 0.03 0  0.78 0.03 0  0.79 0.03 0  0.8 0.03 0  0.8100000000000001 0.03 0  0.82 0.03 0  0.83 0.03 0  0.84 0.03 0  0.85 0.03 0  0.86 0.03 0  0.87 0.03 0  0.88 0.03 0  0.89 0.03 0  0.9 0.03 0  0.91 0.03 0  0.92 0.03 0  0.93 0.03 0  0.9399999999999999 0.03 0  0.95 0.03 0  0.96 0.03 0  0.97 0.03 0  0.98 0.03 0  0.99 0.03 0  1 0.03 0  0 0.04 0  0.01 0.04 0  0.02 0.04 0  0.03 0.04 0  0.04 0.04 0  0.05 0.04 0  0.06 0.04 0  0.07000000000000001 0.04 0  0.08 0.04 0  0.09 0.04 0  0.1 0.04 0  0.11 0.04 0  0.12 0.04 0  0.13 0.04 0  0.14 0.04 0  0.15 0.04 0  0.16 0.04 0  0.17 0.04 0  0.18 0.04 0  0.19 0.04 0  0.2 0.04 0  0.21 0.04 0  0.22 0.04 0  0.23 0.04 0  0.24 0.04 0  0.25 0.04 0  0.26 0.04 0  0.27 0.04 0  0.28 0.04 0  0.29 0.04 0  0.3 0.04 0  0.31 0.04 0  0.32 0.04 0  0.33 0.04 0  0.34 0.04 0  0.35 0.04 0  0.36 0.04 0  0.37 0.04 0  0.38 0.04 0  0.39 0.04 0  0.4 0.04 0  0.41 0.04 0  0.42 0.04 0  0.43 0.04 0  0.44 0.04 0  0.45 0.04 0  0.46 0.04 0  0.47 0.04 0  0.48 0.04 0  0.49 0.04 0  0.5 0.04 0  0.51 0.04 0  0.52 0.04 0  0.53 0.04 0  0.54 0.04 0  0.55 0.04 0  0.5600000000000001 0.04 0  0.57 0.04 0  0.58 0.04 0  0.59 0.04 0  0.6 0.04 0  0.61 0.04 0  0.62 0.04 0  0.63 0.04 0  0.64 0.04 0  0.65 0.04 0  0.66 0.04 0  0.67 0.04 0  0.68 0.04 0  0.6899999999999999 0.04 0  0.7 0.04 0  0.71 0.04 0  0.72 0.04 0  0.73 0.04 0  0.74 0.04 0  0.75 0.04 0  0.76 0.04 0  0.77 0.04 0  0.78 0.04 0  0.79 0.04 0  0.8 0.04 0  0.8100000000000001 0.04 0  0.82 0.04 0  0.83 0.04 0  0.84 0.04 0  0.85 0.04 0  0.86 0.04 0  0.87 0.04 0  0.88 0.04 0  0.89 0.04 0  0.9 0.04 0  0.91 0.04 0  0.92 0.04 0  0.93 0.04 0  0.9399999999999999 0.04 0  0.95 0.04 0  0.96 0.04 0  0.97 0.04 0  0.98 0.04 0  0.99 0.04 0  1 0.04 0  0 0.05 0  0.01 0.05 0  0.02 0.05 0  0.03 0.05 0  0.04 0.05 0  0.05 0.05 0  0.06 0.05 0  0.07000000000000001 0.05 0  0.08 0.05 0  0.09 0.05 0  0.1 0.05 0  0.11 0.05 0  0.12 0.05 0  0.13 0.05 0  0.14 0.05 0  0.15 0.05 0  0.16 0.05 0  0.17 0.05 0  0.18 0.05 0  0.19 0.05 0  0.2 0.05 0  0.21 0.05 0  0.22 0.05 0  0.23 0.05 0  0.24 0.05 0  0.25 0.05 0  0.26 0.05 0  0.27 0.05 0  0.28 0.05 0  0.29 0.05 0  0.3 0.05 0  0.31 0.05 0  0.32 0.05 0  0.33 0.05 0  0.34 0.05 0  0.35 0.05 0  0.36 0.05 0  0.37 0.05 0  0.38 0.05 0  0.39 0.05 0  0.4 0.05 0  0.41 0.05 0  0.42 0.05 0  0.43 0.05 0  0.44 0.05 0  0.45 0.05 0  0.46 0.05 0  0.47 0.05 0  0.48 0.05 0  0.49 0.05 0  0.5 0.05 0  0.51 0.05 0  0.52 0.05 0  0.53 0.05 0  0.54 0.05 0  0.55 0.05 0  0.5600000000000001 0.05 0  0.57 0.05 0  0.58 0.05 0  0.59 0.05 0  0.6 0.05 0  0.61 0.05 0  0.62 0.05 0  0.63 0.05 0  0.64 0.05 0  0.65 0.05 0  0.66 0.05 0  0.67 0.05 0  0.68 0.05 0  0.6899999999999999 0.05 0  0.7 0.05 0  0.71 0.05 0  0.72 0.05 0  0.73 0.05 0  0.74 0.05 0  0.75 0.05 0  0.76 0.05 0  0.77 0.05 0  0.78 0.05 0  0.79 0.05 0  0.8 0.05 0  0.8100000000000001 0.05 0  0.82 0.05 0  0.83 0.05 0  0.84 0.05 0  0.85 0.05 0  0.86 0.05 0  0.87 0.05 0  0.88 0.05 0  0.89 0.05 0  0.9 0.05 0  0.91 0.05 0  0.92 0.05 0  0.93 0.05 0  0.9399999999999999 0.05 0  0.95 0.05 0  0.96 0.05 0  0.97 0.05 0  0.98 0.05 0  0.99 0.05 0  1 0.05 0  0 0.06 0  0.01 0.06 0  0.02 0.06 0  0.03 0.06 0  0.04 0.06 0  0.05 0.06 0  0.06 0.06 0  0.07000000000000001 0.06 0  0.08 0.06 0  0.09 0.06 0  0.1 0.06 0  0.11 0.06 0  0.12 0.06 0  0.13 0.06 0  0.14 0.06 0  0.15 0.06 0  0.16 0.06 0  0.17 0.06 0  0.18 0.06 0  0.19 0.06 0  0.2 0.06 0  0.21 0.06 0  0.22 0.06 0  0.23 0.06 0  0.24 0.06 0  0.25 0.06 0  0.26 0.06 0  0.27 0.06 0  0.28 0.06 0  0.29 0.06 0  0.3 0.06 0  0.31 0.06 0  0.32 0.06 0  0.33 0.06 0  0.34 0.06 0  0.35 0.06 0  0.36 0.06 0  0.37 0.06 0  0.38 0.06 0  0.39 0.06 0  0.4 0.06 0  0.41 0.06 0  0.42 0.06 0  0.43 0.06 0  0.44 0.06 0  0.45 0.06 0  0.46 0.06 0  0.47 0.06 0  0.48 0.06 0  0.49 0.06 0  0.5 0.06 0  0.51 0.06 0  0.52 0.06 0  0.53 0.06 0  0.54 0.06 0  0.55 0.06 0  0.5600000000000001 0.06 0  0.57 0.06 0  0.58 0.06 0  0.59 0.06 0  0.6 0.06 0  0.61 0.06 0  0.62 0.06 0  0.63 0.06 0  0.64 0.06 0  0.65 0.06 0  0.66 0.06 0  0.67 0.06 0  0.68 0.06 0  0.6899999999999999 0.06 0  0.7 0.06 0  0.71 0.06 0  0.72 0.06 0  0.73 0.06 0  0.74 0.06 0  0.75 0.06 0  0.76 0.06 0  0.77 0.06 0  0.78 0.06 0  0.79 0.06 0  0.8 0.06 0  0.8100000000000001 0.06 0  0.82 0.06 0  0.83 0.06 0  0.84 0.06 0  0.85 0.06 0  0.86 0.06 0  0.87 0.06 0  0.88 0.06 0  0.89 0.06 0  0.9 0.06 0  0.91 0.06 0  0.92 0.06 0  0.93 0.06 0  0.9399999999999999 0.06 0  0.95 0.06 0  0.96 0.06 0  0.97 0.06 0  0.98 0.06 0  0.99 0.06 0  1 0.06 0  0 0.07000000000000001 0  0.01 0.07000000000000001 0  0.02 0.07000000000000001 0  0.03 0.07000000000000001 0  0.04 0.07000000000000001 0  0.05 0.07000000000000001 0  0.06 0.07000000000000001 0  0.07000000000000001 0.07000000000000001 0  0.08 0.07000000000000001 0  0.09 0.07000000000000001 0  0.1 0.07000000000000001 0  0.11 0.07000000000000001 0  0.12 0.07000000000000001 0  0.13 0.07000000000000001 0  0.14 0.07000000000000001 0  0.15 0.07000000000000001 0  0.16 0.07000000000000001 0  0.17 0.0700
[...]
<PointData  Scalars="u"> 
<DataArray  type="Float64"  Name="u"  format="ascii">0.0000000000000000e+00  0.0000000000000000e+00  0.0000000000000000e+00  0.0000000000000000e+00  0.0000000000000000e+00  0.0000000000000000e+00  0.0000000000000000e+00  0.0000000000000000e+00  0.0000000000000000e+00  0.0000000000000000e+00  0.0000000000000000e+00  0.0000000000000000e+00  0.0000000000000000e+00  0.0000000000000000e+00  0.0000000000000000e+00  0.0000000000000000e+00  0.0000000000000000e+00  0.0000000000000000e+00  0.0000000000000000e+00  0.0000000000000000e+00  0.0000000000000000e+00  0.0000000000000000e+00  0.0000000000000000e+00  0.0000000000000000e+00  0.0000000000000000e+00  0.0000000000000000e+00  0.0000000000000000e+00  0.0000000000000000e+00  0.0000000000000000e+00  0.0000000000000000e+00  0.0000000000000000e+00  0.0000000000000000e+00  0.0000000000000000e+00  0.0000000000000000e+00  0.0000000000000000e+00  0.0000000000000000e+00  0.0000000000000000e+00  0.0000000000000000e+00  0.0000000000000000e+00  0.0000000000000000e+00  0.0000000000000000e+00  0.0000000000000000e+00  0.0000000000000000e+00  0.0000000000000000e+00  0.0000000000000000e+00  0.0000000000000000e+00  0.0000000000000000e+00  0.0000000000000000e+00  0.0000000000000000e+00  0.0000000000000000e+00  0.0000000000000000e+00  0.0000000000000000e+00  0.0000000000000000e+00  0.0000000000000000e+00  0.0000000000000000e+00  0.0000000000000000e+00  0.0000000000000000e+00  0.0000000000000000e+00  0.0000000000000000e+00  0.0000000000000000e+00  0.0000000000000000e+00  0.0000000000000000e+00  0.0000000000000000e+00  0.0000000000000000e+00  0.0000000000000000e+00  0.0000000000000000e+00  0.0000000000000000e+00  0.0000000000000000e+00  0.0000000000000000e+00  0.0000000000000000e+00  0.0000000000000000e+00  0.0000000000000000e+00  0.0000000000000000e+00  0.0000000000000000e+00  0.0000000000000000e+00  0.0000000000000000e+00  0.0000000000000000e+00  0.0000000000000000e+00  0.0000000000000000e+00  0.0000000000000000e+00  0.0000000000000000e+00  0.0000000000000000e+00  0.0000000000000000e+00  0.0000000000000000e+00  0.0000000000000000e+00  0.0000000000000000e+00  0.0000000000000000e+00  0.0000000000000000e+00  0.0000000000000000e+00  0.0000000000000000e+00  0.0000000000000000e+00  0.0000000000000000e+00  0.0000000000000000e+00  0.0000000000000000e+00  0.0000000000000000e+00  0.0000000000000000e+00  0.0000000000000000e+00  0.0000000000000000e+00  0.0000000000000000e+00  0.0000000000000000e+00  0.0000000000000000e+00  0.0000000000000000e+00  3.5891887597178763e-08  6.8709243598065537e-08  9.9081302728499325e-08  1.2753473384139864e-07  1.5451192454494012e-07  1.8038318369752534e-07  2.0545698707131799e-07  2.2998851845705115e-07  2.5418676462591043e-07  2.7822039191692365e-07  3.0222260110846307e-07  3.2629512999172033e-07  3.5051154991624146e-07  3.7491998306995006e-07  3.9954535085123610e-07  4.2439124988014885e-07  4.4944154051988585e-07  4.7466172282664507e-07  5.0000016624705542e-07  5.2538925180783761e-07  5.5074647869715143e-07  5.7597558075954980e-07  6.0096769228715280e-07  6.2560259639257900e-07  6.4975008303365176e-07  6.7327143730368526e-07  6.9602107182413010e-07  7.1784830994452797e-07  7.3859931898395082e-07  7.5811918500681366e-07  7.7625411273674806e-07  7.9285372635078157e-07  8.0777343928764817e-07  8.2087685411658757e-07  8.3203814724621631e-07  8.4114438812421056e-07  8.4809773890448066e-07  8.5281747863435366e-07  8.5524179609138499e-07  8.5532929766139314e-07  8.5306018119128811e-07  8.4843703355956095e-07  8.4148521865182178e-07  8.3225283325041424e-07  8.2081022066626389e-07  8.0724904526865207e-07  7.9168094482923233e-07  7.7423579115929297e-07  7.5505960223542431e-07  7.3431216025314550e-07  7.1216439926127903e-07  6.8879563275636634e-07  6.6439069553685686e-07  6.3913707506971925e-07  6.1322210561444706e-07  5.8683029355367211e-07  5.6014083511876190e-07  5.3332537842040203e-07  5.0654607093570806e-07  4.7995392195284440e-07  4.5368749752920443e-07  4.2787195384835302e-07  4.0261840397018303e-07  3.7802360327547982e-07  3.5416993072214859e-07  3.3112563655459570e-07  3.0894532242694838e-07  2.8767061699893649e-07  2.6733100883603084e-07  2.4794479871898774e-07  2.2952013501936634e-07  2.1205609837521634e-07  1.9554380524363646e-07  1.7996750375927648e-07  1.6530563945448556e-07  1.5153187259054411e-07  1.3861603293740968e-07  1.2652500168545779e-07  1.1522351367715151e-07  1.0467487624391660e-07  9.4841603588619963e-08  8.5685967857538290e-08  7.7170469808796930e-08  6.9258233333760557e-08  6.1913329061488486e-08  5.5101032918515092e-08  4.8788025874447610e-08  4.2942541226089715e-08  3.7534465705038451e-08  3.2535400478646362e-08  2.7918687790160167e-08  2.3659408584060727e-08  1.9734356015196258e-08  1.6121989267798284e-08  1.2802371629129884e-08  9.7570962783247712e-09  6.9692027413467275e-09  4.4230862826125514e-09  2.1044009587428828e-09  0.0000000000000000e+00  0.0000000000000000e+00  7.8570622493777223e-08  1.5041567734323282e-07  2.1691095128732052e-07  2.7921117862002013e-07  3.3828612982846200e-07  3.9494759267558138e-07  4.4987187670987128e-07  5.0361854675476223e-07  5.5664597581609878e-07  6.0932422167487553e-07  6.6194565975931337e-07  7.1473374434956417e-07  7.6785021916182780e-07  8.2140105549064182e-07  8.7544136008722779e-07  9.2997946467739579e-07  9.8498038345674090e-07  1.0403688031357606e-06  1.0960317513308628e-06  1.1518210725815886e-06  1.2075558263686096e-06  1.2630247076317135e-06  1.3179885769330144e-06  1.3721831741407958e-06  1.4253220759633673e-06  1.4770999435632383e-06  1.5271960916448636e-06  1.5752783947507100e-06  1.6210075300468210e-06  1.6640415387738436e-06  1.7040406710467629e-06  1.7406724611905526e-06  1.7736169637961437e-06  1.8025720647666315e-06  1.8272587674671595e-06  1.8474263424071672e-06  1.8628572203876665e-06  1.8733715044130318e-06  1.8788309754761684e-06  1.8791424720104192e-06  1.8742605325968022e-06  1.8641892064172005e-06  1.8489829556783276e-06  1.8287465982394380e-06  1.8036342661209158e-06  1.7738473853633031e-06  1.7396317135568378e-06  1.7012735018490466e-06  1.6590948768942406e-06  1.6134485636135807e-06  1.5647120905114025e-06  1.5132816345989373e-06  1.4595656719734736e-06  1.4039786024107262e-06  1.3469345119548555e-06  1.2888412268162197e-06  1.2300947956377044e-06  1.1710745163770074e-06  1.1121385998915723e-06  1.0536205361376523e-06  9.9582620206003836e-07  9.3903172404258100e-07  8.8348208335648875e-07  8.2939043132628839e-07  7.7693806263358841e-07  7.2627498074035329e-07  6.7752097902553746e-07  6.3076715484759901e-07  5.8607777112735165e-07  5.4349238079116145e-07  5.0302813301475190e-07  4.6468218609103428e-07  4.2843415931986942e-07  3.9424856500843476e-07  3.6207717094851615e-07  3.3186125313814663e-07  3.0353370765450121e-07  2.7702099916134098e-07  2.5224493132860091e-07  2.2912423131188306e-07  2.0757594631167861e-07  1.8751665508930167e-07  1.6886350118774460e-07  1.5153505755411507e-07  1.3545203437281354e-07  1.2053784329626306e-07  1.0671903201031784e-07  9.3925603302136354e-08  8.2091232612374683e-08  7.1153397546180568e-08  6.1053432073699479e-08  5.1736517244499829e-08  4.3151619233703970e-08  3.5251384481314090e-08  2.7992000619467534e-08  2.1333030832881127e-08  1.5237228284499245e-08  9.6703363124551277e-09  4.6008798508988102e-09  0.0000000000000000e+00  0.0000000000000000e+00  1.2933923679060094e-07  2.4761442921896384e-07  3.5709314413787928e-07  4.5968029422189156e-07  5.5697574805878878e-07  6.5031889034577130e-07  7.4082578978633935e-07  8.2942012103518552e-07  9.1685882180918347e-07  1.0037533216148868e-06  1.0905870582179238e-06  1.1777298971461914e-06  1.2654499849122342e-06  1.3539234956893712e-06  1.4432426716881312e-06  1.5334225075347438e-06  1.6244063868547574e-06  1.7160709435021022e-06  1.8082303890966138e-06  1.9006405215300584e-06  1.9930026047848009e-06  2.0849672878100680e-06  2.1761387084603794e-06  2.2660789068783123e-06  2.3543126505815427e-06  2.4403327504113160e-06  2.5236059220847727e-06  2.6035792222042952e-06  2.6796870602326287e-06  2.7513587593605942e-06  2.8180266097972683e-06  2.8791343284297927e-06  2.9341458098580389e-06  2.9825540265096152e-06  3.0238899110225742e-06  3.0577310335735995e-06  3.0837098715739086e-06  3.1015214603408128e-06  3.1109302120170911e-06  3.1117756969515364e-06  3.1039771974383010e-06  3.0875368682009797e-06  3.0625413708933299e-06  3.0291618902708013e-06  2.9876524861736922e-06  2.9383467862131859e-06  2.8816530768603601e-06  2.8180479030531617e-06  2.7480683359062440e-06  2.6723031121490436e-06  2.5913828852813966e-06  2.5059698552724590e-06  2.4167470596165187e-06  2.3244076130022185e-06  2.2296441757245897e-06  2.1331389129125341e-06  2.0355541789057485e-06  1.9375241254465937e-06  1.8396473908712404e-06  1.7424809825130947e-06  1.6465354184319686e-06  1.5522711495983998e-06  1.4600962417841391e-06  1.3703652592696065e-06  1.2833792612845801e-06  1.1993867976038648e-06  1.1185857722338434e-06  1.0411260335502906e-06  9.6711254513910092e-07  8.9660899323784699e-07  8.2964169318016138e-07  7.6620366760670316e-07  7.0625878239725178e-07  6.4974584130494103e-07  5.9658255622628747e-07  5.4666932612912350e-07  4.9989277323295334e-07  4.5612899958721053e-07  4.1524654036033381e-07  3.7710900170679409e-07  3.4157738090675257e-07  3.0851207455734605e-07  2.7777458699554661e-07  2.4922895596678105e-07  2.2274291597579964e-07  1.9818882194405058e-07  1.7544435693733591e-07  1.5439304800391219e-07  1.3492461375226645e-07  1.1693516636088782e-07  1.0032728939285376e-07  8.5010011209850274e-08  7.0898692047447027e-08  5.7914841011088434e-08  4.5985877448220292e-08  3.5044849400936000e-08  2.5030120198035415e-08  1.5885032786609925e-08  7.5575603527063532e-09  0.0000000000000000e+00  0.0000000000000000e+00  1.8973427381295071e-07  3.6325086399671921e-07  5.2388436381090392e-07  6.7443729380257549e-07  8.1726359891949109e-07  9.5433430222642401e-07  1.0872922493031839e-06  1.2174976301844163e-06  1.3460657256121964e-06  1.4738981127251056e-06  1.6017083873887338e-06  1.7300433110874628e-06  1.8593001651656868e-06  1.9897409904260263e-06  2.1215043023901053e-06  2.2546147990464047e-06  2.3889915161283416e-06  2.5244548326421909e-06  2.6607326844917341e-06  2.7974663048208910e-06  2.9342157744924942e-06  3.0704656334824783e-06  3.2056307725968767e-06  3.3390627936824447e-06  3.4700569944451888e-06  3.5978601003551647e-06  3.7216788303600770e-06  3.8406893449595568e-06  3.9540475845859854e-06  4.0609004634717101e-06  4.1603978398488629e-06  4.2517051383395815e-06  4.3340164559781278e-06  4.4065679409730914e-06  4.4686511948139435e-06  4.5196264155558735e-06  4.5589349750447462e-06  4.5861111073717363e-06  4.6007923816756353e-06  4.6027286408923692e-06  4.5917891100443561e-06  4.5679674134018667e-06  4.5313842888430283e-06  4.4822878487133731e-06  4.4210513073753309e-06  4.3481681736461817e-06  4.2642449880438296e-06  4.1699917663589386e-06  4.0662103885218343e-06  3.9537812410740216e-06  3.8336484791764465e-06  3.7068043169850809e-06  3.5742727812266038e-06  3.4370933707291052e-06  3.2963050543963737e-06  3.1529310126200169e-06  3.0079644843437054e-06  2.8623560266860817e-06  2.7170024295449262e-06  2.5727374576287375e-06  2.4303245206416358e-06  2.2904513024397999e-06  2.1537263150285985e-06  2.0206772858465273e-06  1.8917512387682540e-06  1.7673160918098175e-06  1.6476635680781925e-06  1.5330132008730762e-06  1.4235172082762784e-06  1.3192660158917216e-06  1.2202942171832302e-06  1.1265867775043589e-06  1.0380853087994699e-06  9.5469426552121452e-07  8.7628693714374596e-07  8.0271113753611861e-07  7.3379451540414841e-07  6.6934943225222063e-07  6.0917737432603739e-07  5.5307288244623013e-07  5.0082699838336588e-07  4.5223023845677150e-07  4.0707511447718340e-07  3.6515822919417648e-07  3.2628197830618643e-07  2.9025589412653565e-07  2.5689766746615806e-07  2.2603388448032756e-07  1.9750051440325727e-07  1.7114318250712160e-07  1.4681726048796036e-07  1.2438780398616368e-07  1.0372936424910413e-07  8.4725698164035994e-08  6.7269398130536412e-08  5.1261460581631233e-08  3.6610809462646429e-08  2.3233788677953882e-08  1.1053635513537959e-08  0.0000000000000000e+00  0.0000000000000000e+00  2.6156689034428001e-07  5.0079737127331437e-07  7.2230415943159780e-07  9.2996501276892520e-07  1.1270373834439477e-06  1.3162494412954253e-06  1.4998759303003490e-06  1.6798012049575624e-06  1.8575714568148419e-06  2.0344378472712527e-06  2.2113920151763316e-06  2.3891952198658227e-06  2.5684022061318737e-06  2.7493807320005132e-06  2.9323275785317399e-06  3.1172817591822965e-06  3.3041355610582551e-06  3.4926439785011999e-06  3.6824330380894999e-06  3.8730074607623428e-06  4.0637580590981469e-06  4.2539692237312352e-06  4.4428268106144069e-06  4.6294266986914958e-06  4.8127842441281170e-06  4.9918448114173537e-06  5.1654955125827948e-06  5.3325782328368459e-06  5.4919039642910476e-06  5.6422684089571887e-06  5.7824687490779196e-06  5.9113214180172829e-06  6.0276806402308969e-06  6.1304574463745504e-06  6.2186388119294648e-06  6.2913065176353044e-06  6.3476552904785800e-06  6.3870097579010573e-06  6.4088397379430170e-06  6.4127733964269769e-06  6.3986078305318967e-06  6.3663166868144587e-06  6.3160544904366034e-06  6.2481574494032528e-06  6.1631406001328472e-06  6.0616912746577340e-06  5.9446589901795461e-06  5.8130419828703544e-06  5.6679707236278034e-06  5.5106888579167422e-06  5.3425320992853279e-06  5.1649056719402771e-06  4.9792609384524082e-06  4.7870718622977864e-06  4.5898119412232733e-06  4.3889322077178935e-06  4.1858408300543404e-06  3.9818847655948615e-06  3.7783338224126435e-06  3.5763673813680963e-06  3.3770639243003543e-06  3.1813934103524082e-06  2.9902124464047829e-06  2.8042621130112394e-06  2.6241682369112980e-06  2.4504438468189986e-06  2.2834935113435435e-06  2.1236192361938848e-06  1.9710275910470337e-06  1.8258377427946161e-06  1.6880900890922130e-06  1.5577552117881406e-06  1.4347429014463380e-06  1.3189110394728613e-06  1.2100741612156095e-06  1.1080115600517921e-06  1.0124748274754662e-06  9.2319475647313603e-07  8.3988756429333851e-07  7.6226041564777974e-07  6.9001624825961880e-07  6.2285791954465757e-07  5.6049170628060482e-07  5.0263019871066162e-07  4.4899463703484539e-07  3.9931674209729533e-07  3.5334009371930184e-07  3.1082110998146054e-07  2.7152967921958217e-07  2.3524949392392401e-07  2.0177813243054070e-07  1.7092693053099354e-07  1.4252068111987048e-07  1.1639719592323897e-07  9.2406759340841466e-08  7.0411500591967552e-08  5.0284706749473746e-08  3.1910095914660382e-08  1.5181066862858626e-08  0.0000000000000000e+00  0.0000000000000000e+00  3.4696740471838166e-07  6.6433895672080736e-07  9.5825934012730915e-07  1.2338951901033167e-06  1.4955872806993436e-06  1.7469720993206772e-06  1.9910830933820312e-06  2.2304347387464587e-06  2.4670921236911039e-06  2.7027283466896878e-06  2.9386716935886181e-06  3.1759442805872887e-06  3.4152936158102996e-06  3.6572183371991678e-06  3.9019892218556581e-06  4.1496664264849071e-06  4.4001138054814303e-06  4.6530110582572111e-06  4.9078643768386554e-06  5.1640161951297371e-06  5.4206545794345077e-06  5.6768227430146490e-06  5.9314291130569288e-06  6.1832583241399186e-06  6.4309834561121150e-06  6.6731797745489100e-06  6.9083401673490099e-06  7.1348924007139594e-06  7.3512182413924223e-06  7.5556744099111874e-06  7.7466152424450791e-06  7.9224168485716294e-06  8.0815024606833469e-06  8.2223685812370478e-06  8.3436114498543678e-06  8.4439532775750809e-06  8.5222676346203244e-06  8.5776033352042279e-06  8.6092061423462130e-06  8.6165376208052252e-06  8.5992904997683109e-06  8.5573999701060664e-06  8.4910504336317519e-06  8.4006773418963851e-06  8.2869639058157726e-06  8.1508326192807658e-06  7.9934317127185451e-06  7.8161168280390127e-06  7.6204283755344727e-06  7.4080651870593180e-06  7.1808552097573353e-06  6.9407240835277207e-06  6.6896625079397146e-06  6.4296933272693917e-06  6.1628392450732671e-06  5.8910920240756300e-06  5.6163839373027022e-06  5.3405621184718500e-06  5.0653663211864082e-06  4.7924104458468497e-06  4.5231680388720793e-06  4.2589618188726824e-06  4.0009571458907748e-06  3.7501592284010261e-06  3.5074137625210953e-06  3.2734106211751725e-06  3.0486901585206282e-06  2.8336516660544785e-06  2.6285635095345856e-06  2.4335744873632998e-06  2.2487259780075422e-06  2.0739644827296351e-06  1.9091542167502554e-06  1.7540894535582578e-06  1.6085063804074457e-06  1.4720942755673216e-06  1.3445058676243982e-06  1.2253667825948536e-06  1.1142840248405361e-06  1.0108534722522527e-06  9.1466639472337807e-07  8.2531502772441153e-07  7.4239725016710177e-07  6.6552042822759226e-07  5.9430449498383752e-07  5.2838434025506528e-07  4.6741158655129373e-07  4.1105582616021054e-07  3.5900539167810053e-07  3.1096772822949797e-07  2.6666943064684670e-07  2.2585600335716462e-07  1.8829139494114689e-07  1.5375735352310492e-07  1.2205264349405941e-07  9.2992158692987665e-08  6.6405962157825664e-08  4.2138277956561331e-08  2.0046456596352987e-08  0.0000000000000000e+00  0.0000000000000000e+00  4.4843599698653381e-07  8.5867069902767812e-07  1.2386854692829603e-06  1.5951923232628271e-06  1.9338313699660023e-06  2.2593292043734367e-06  2.5756307105833509e-06  2.8860084009769263e-06  3.1931528149155218e-06  3.4992469807267285e-06  3.8060275078915873e-06  4.1148345101900734e-06  4.4266522545545983e-06  4.7421421753595063e-06  5.0616696818416143e-06  5.3853260102823297e-06  5.7129462262766907e-06  6.0441243603289119e-06  6.3782265571597367e-06  6.7144030309579915e-06  7.0515995412132917e-06  7.3885690329273598e-06  7.7238840174328972e-06  8.0559502025898763e-06  8.3830218109635637e-06  8.7032189493038146e-06  9.0145473102957938e-06  9.3149203967614566e-06  9.6021843585447866e-06  9.8741454232752850e-06  1.0128599785013053e-05  1.0363365691333266e-05  1.0576317342615763e-05  1.0765420091079750e-05  1.0928766306293336e-05  1.1064611164133363e-05  1.1171407523660751e-05  1.1247838987518364e-05  1.1292850202464362e-05  1.1305673453053855e-05  1.1285850637602020e-05  1.1233249794010328e-05  1.1148075464237148e-05  1.1030872348030234e-05  1.0882521894177365e-05  1.0704231703434579e-05  1.0497517861485707e-05  1.0264180570873533e-05  1.0006273694726232e-05  9.7260690488999508e-06  9.4260164701982530e-06  9.1087008356488953e-06  8.7767973030573014e-06  8.4330260811491985e-06  8.0801080171963690e-06  7.7207222135155699e-06  7.3574667575956961e-06  6.9928234827760351e-06  6.6291274784750497e-06  6.2685418532910662e-06  5.9130380334300261e-06  5.5643816647243013e-06  5.2241239893482332e-06  4.8935983964783099e-06  4.5739217054096944e-06  4.2659996332979999e-06  3.9705358285757709e-06  3.6880438138790225e-06  3.4188611759555775e-06  3.1631653602025372e-06  2.9209904691183463e-06  2.6922445216740318e-06  2.4767266991147919e-06  2.2741441771037628e-06  2.0841282201379249e-06  1.9062492882734541e-06  1.7400309756627778e-06  1.5849626632812412e-06  1.4405108232816001e-06  1.3061289590620303e-06  1.1812662032871255e-06  1.0653746260823971e-06  9.5791532804191446e-07  8.5836340834714612e-07  7.6621190809702928e-07  6.8097483383458897e-07  6.0218936714346981e-07  5.2941736394170587e-07  4.6224624249960129e-07  4.0028935293753077e-07  3.4318591359886303e-07  2.9060059172368785e-07  2.4222279765568756e-07  1.9776575369610904e-07  1.5696539089766441e-07  1.1957911972415554e-07  8.5384513690229891e-08  5.4177938897796555e-08  2.5773157000632521e-08  0.0000000000000000e+00  0.0000000000000000e+00  5.6890017729026165e-07  1.0894082516643223e-06  1.5717073749467088e-06  2.0243623604988697e-06  2.4545717030802667e-06  2.8683703578260543e-06  3.2707983283165019e-06  3.6660403760287191e-06  4.0575413823627724e-06  4.4481012222837978e-06  4.8399524442394275e-06  5.2348235785269147e-06  5.6339905020279769e-06  6.0383179593528027e-06  6.4482930686135335e-06  6.8640524152262297e-06  7.2854041513131626e-06  7.7118463642946697e-06  8.1425828496741515e-06  8.5765373139508844e-06  9.0123669386329577e-06  9