<?xml version="1.0"?>
<VTKFile type="UnstructuredGrid"  version="0.1"  >
<UnstructuredGrid>
<Piece  NumberOfPoints="10201" NumberOfCells="20000">
<Points>
<DataArray  type="Float64"  NumberOfComponents="3"  format="ascii">0 0 0  0.01 0 0  0.02 0 0  0.03 0 0  0.04 0 0  0.05 0 0  0.06 0 0  0.07000000000000001 0 0  0.08 0 0  0.09 0 0  0.1 0 0  0.11 0 0  0.12 0 0  0.13 0 0  0.14 0 0  0.15 0 0  0.16 0 0  0.17 0 0  0.18 0 0  0.19 0 0  0.2 0 0  0.21 0 0  0.22 0 0  0.23 0 0  0.24 0 0  0.25 0 0  0.26 0 0  0.27 0 0  0.28 0 0  0.29 0 0  0.3 0 0  0.31 0 0  0.32 0 0  0.33 0 0  0.34 0 0  0.35 0 0  0.36 0 0  0.37 0 0  0.38 0 0  0.39 0 0  0.4 0 0  0.41 0 0  0.42 0 0  0.43 0 0  0.44 0 0  0.45 0 0  0.46 0 0  0.47 0 0  0.48 0 0  0.49 0 0  0.5 0 0  0.51 0 0  0.52 0 0  0.53 0 0  0.54 0 0  0.55 0 0  0.5600000000000001 0 0  0.57 0 0  0.58 0 0  0.59 0 0  0.6 0 0  0.61 0 0  0.62 0 0  0.63 0 0  0.64 0 0  0.65 0 0  0.66 0 0  0.67 0 0  0.68 0 0  0.6899999999999999 0 0  0.7 0 0  0.71 0 0  0.72 0 0  0.73 0 0  0.74 0 0  0.75 0 0  0.76 0 0  0.77 0 0  0.78 0 0  0.79 0 0  0.8 0 0  0.8100000000000001 0 0  0.82 0 0  0.83 0 0  0.84 0 0  0.85 0 0  0.86 0 0  0.87 0 0  0.88 0 0  0.89 0 0  0.9 0 0  0.91 0 0  0.92 0 0  0.93 0 0  0.9399999999999999 0 0  0.95 0 0  0.96 0 0  0.97 0 0  0.98 0 0  0.99 0 0  1 0 0  0 0.01 0  0.01 0.01 0  0.02 0.01 0  0.03 0.01 0  0.04 0.01 0  0.05 0.01 0  0.06 0.01 0  0.07000000000000001 0.01 0  0.08 0.01 0  0.09 0.01 0  0.1 0.01 0  0.11 0.01 0  0.12 0.01 0  0.13 0.01 0  0.14 0.01 0  0.15 0.01 0  0.16 0.01 0  0.17 0.01 0  0.18 0.01 0  0.19 0.01 0  0.2 0.01 0  0.21 0.01 0  0.22 0.01 0  0.23 0.01 0  0.24 0.01 0  0.25 0.01 0  0.26 0.01 0  0.27 0.01 0  0.28 0.01 0  0.29 0.01 0  0.3 0.01 0  0.31 0.01 0  0.32 0.01 0  0.33 0.01 0  0.34 0.01 0  0.35 0.01 0  0.36 0.01 0  0.37 0.01 0  0.38 0.01 0  0.39 0.01 0  0.4 0.01 0  0.41 0.01 0  0.42 0.01 0  0.43 0.01 0  0.44 0.01 0  0.45 0.01 0  0.46 0.01 0  0.47 0.01 0  0.48 0.01 0  0.49 0.01 0  0.5 0.01 0  0.51 0.01 0  0.52 0.01 0  0.53 0.01 0  0.54 0.01 0  0.55 0.01 0  0.5600000000000001 0.01 0  0.57 0.01 0  0.58 0.01 0  0.59 0.01 0  0.6 0.01 0  0.61 0.01 0  0.62 0.01 0  0.63 0.01 0  0.64 0.01 0  0.65 0.01 0  0.66 0.01 0  0.67 0.01 0  0.68 0.01 0  0.6899999999999999 0.01 0  0.7 0.01 0  0.71 0.01 0  0.72 0.01 0  0.73 0.01 0  0.74 0.01 0  0.75 0.01 0  0.76 0.01 0  0.77 0.01 0  0.78 0.01 0  0.79 0.01 0  0.8 0.01 0  0.8100000000000001 0.01 0  0.82 0.01 0  0.83 0.01 0  0.84 0.01 0  0.85 0.01 0  0.86 0.01 0  0.87 0.01 0  0.88 0.01 0  0.89 0.01 0  0.9 0.01 0  0.91 0.01 0  0.92 0.01 0  0.93 0.01 0  0.9399999999999999 0.01 0  0.95 0.01 0  0.96 0.01 0  0.97 0.01 0  0.98 0.01 0  0.99 0.01 0  1 0.01 0  0 0.02 0  0.01 0.02 0  0.02 0.02 0  0.03 0.02 0  0.04 0.02 0  0.05 0.02 0  0.06 0.02 0  0.07000000000000001 0.02 0  0.08 0.02 0  0.09 0.02 0  0.1 0.02 0  0.11 0.02 0  0.12 0.02 0  0.13 0.02 0  0.14 0.02 0  0.15 0.02 0  0.16 0.02 0  0.17 0.02 0  0.18 0.02 0  0.19 0.02 0  0.2 0.02 0  0.21 0.02 0  0.22 0.02 0  0.23 0.02 0  0.24 0.02 0  0.25 0.02 0  0.26 0.02 0  0.27 0.02 0  0.28 0.02 0  0.29 0.02 0  0.3 0.02 0  0.31 0.02 0  0.32 0.02 0  0.33 0.02 0  0.34 0.02 0  0.35 0.02 0  0.36 0.02 0  0.37 0.02 0  0.38 0.02 0  0.39 0.02 0  0.4 0.02 0  0.41 0.02 0  0.42 0.02 0  0.43 0.02 0  0.44 0.02 0  0.45 0.02 0  0.46 0.02 0  0.47 0.02 0  0.48 0.02 0  0.49 0.02 0  0.5 0.02 0  0.51 0.02 0  0.52 0.02 0  0.53 0.02 0  0.54 0.02 0  0.55 0.02 0  0.5600000000000001 0.02 0  0.57 0.02 0  0.58 0.02 0  0.59 0.02 0  0.6 0.02 0  0.61 0.02 0  0.62 0.02 0  0.63 0.02 0  0.64 0.02 0  0.65 0.02 0  0.66 0.02 0  0.67 0.02 0  0.68 0.02 0  0.6899999999999999 0.02 0  0.7 0.02 0  0.71 0.02 0  0.72 0.02 0  0.73 0.02 0  0.74 0.02 0  0.75 0.02 0  0.76 0.02 0  0.77 0.02 0  0.78 0.02 0  0.79 0.02 0  0.8 0.02 0  0.8100000000000001 0.02 0  0.82 0.02 0  0.83 0.02 0  0.84 0.02 0  0.85 0.02 0  0.86 0.02 0  0.87 0.02 0  0.88 0.02 0  0.89 0.02 0  0.9 0.02 0  0.91 0.02 0  0.92 0.02 0  0.93 0.02 0  0.9399999999999999 0.02 0  0.95 0.02 0  0.96 0.02 0  0.97 0.02 0  0.98 0.02 0  0.99 0.02 0  1 0.02 0  0 0.03 0  0.01 0.03 0  0.02 0.03 0  0.03 0.03 0  0.04 0.03 0  0.05 0.03 0  0.06 0.03 0  0.07000000000000001 0.03 0  0.08 0.03 0  0.09 0.03 0  0.1 0.03 0  0.11 0.03 0  0.12 0.03 0  0.13 0.03 0  0.14 0.03 0  0.15 0.03 0  0.16 0.03 0  0.17 0.03 0  0.18 0.03 0  0.19 0.03 0  0.2 0.03 0  0.21 0.03 0  0.22 0.03 0  0.23 0.03 0  0.24 0.03 0  0.25 0.03 0  0.26 0.03 0  0.27 0.03 0  0.28 0.03 0  0.29 0.03 0  0.3 0.03 0  0.31 0.03 0  0.32 0.03 0  0.33 0.03 0  0.34 0.03 0  0.35 0.03 0  0.36 0.03 0  0.37 0.03 0  0.38 0.03 0  0.39 0.03 0  0.4 0.03 0  0.41 0.03 0  0.42 0.03 0  0.43 0.03 0  0.44 0.03 0  0.45 0.03 0  0.46 0.03 0  0.47 0.03 0  0.48 0.03 0  0.49 0.03 0  0.5 0.03 0  0.51 0.03 0  0.52 0.03 0  0.53 0.03 0  0.54 0.03 0  0.55 0.03 0  0.5600000000000001 0.03 0  0.57 0.03 0  0.58 0.03 0  0.59 0.03 0  0.6 0.03 0  0.61 0.03 0  0.62 0.03 0  0.63 0.03 0  0.64 0.03 0  0.65 0.03 0  0.66 0.03 0  0.67 0.03 0  0.68 0.03 0  0.6899999999999999 0.03 0  0.7 0.03 0  0.71 0.03 0  0.72 0.03 0  0.73 0.03 0  0.74 0.03 0  0.75 0.03 0  0.76 0.03 0  0.77 0.03 0  0.78 0.03 0  0.79 0.03 0  0.8 0.03 0  0.8100000000000001 0.03 0  0.82 0.03 0  0.83 0.03 0  0.84 0.03 0  0.85 0.03 0  0.86 0.03 0  0.87 0.03 0  0.88 0.03 0  0.89 0.03 0  0.9 0.03 0  0.91 0.03 0  0.92 0.03 0  0.93 0.03 0  0.9399999999999999 0.03 0  0.95 0.03 0  0.96 0.03 0  0.97 0.03 0  0.98 0.03 0  0.99 0.03 0  1 0.03 0  0 0.04 0  0.01 0.04 0  0.02 0.04 0  0.03 0.04 0  0.04 0.04 0  0.05 0.04 0  0.06 0.04 0  0.07000000000000001 0.04 0  0.08 0.04 0  0.09 0.04 0  0.1 0.04 0  0.11 0.04 0  0.12 0.04 0  0.13 0.04 0  0.14 0.04 0  0.15 0.04 0  0.16 0.04 0  0.17 0.04 0  0.18 0.04 0  0.19 0.04 0  0.2 0.04 0  0.21 0.04 0  0.22 0.04 0  0.23 0.04 0  0.24 0.04 0  0.25 0.04 0  0.26 0.04 0  0.27 0.04 0  0.28 0.04 0  0.29 0.04 0  0.3 0.04 0  0.31 0.04 0  0.32 0.04 0  0.33 0.04 0  0.34 0.04 0  0.35 0.04 0  0.36 0.04 0  0.37 0.04 0  0.38 0.04 0  0.39 0.04 0  0.4 0.04 0  0.41 0.04 0  0.42 0.04 0  0.43 0.04 0  0.44 0.04 0  0.45 0.04 0  0.46 0.04 0  0.47 0.04 0  0.48 0.04 0  0.49 0.04 0  0.5 0.04 0  0.51 0.04 0  0.52 0.04 0  0.53 0.04 0  0.54 0.04 0  0.55 0.04 0  0.5600000000000001 0.04 0  0.57 0.04 0  0.58 0.04 0  0.59 0.04 0  0.6 0.04 0  0.61 0.04 0  0.62 0.04 0  0.63 0.04 0  0.64 0.04 0  0.65 0.04 0  0.66 0.04 0  0.67 0.04 0  0.68 0.04 0  0.6899999999999999 0.04 0  0.7 0.04 0  0.71 0.04 0  0.72 0.04 0  0.73 0.04 0  0.74 0.04 0  0.75 0.04 0  0.76 0.04 0  0.77 0.04 0  0.78 0.04 0  0.79 0.04 0  0.8 0.04 0  0.8100000000000001 0.04 0  0.82 0.04 0  0.83 0.04 0  0.84 0.04 0  0.85 0.04 0  0.86 0.04 0  0.87 0.04 0  0.88 0.04 0  0.89 0.04 0  0.9 0.04 0  0.91 0.04 0  0.92 0.04 0  0.93 0.04 0  0.9399999999999999 0.04 0  0.95 0.04 0  0.96 0.04 0  0.97 0.04 0  0.98 0.04 0  0.99 0.04 0  1 0.04 0  0 0.05 0  0.01 0.05 0  0.02 0.05 0  0.03 0.05 0  0.04 0.05 0  0.05 0.05 0  0.06 0.05 0  0.07000000000000001 0.05 0  0.08 0.05 0  0.09 0.05 0  0.1 0.05 0  0.11 0.05 0  0.12 0.05 0  0.13 0.05 0  0.14 0.05 0  0.15 0.05 0  0.16 0.05 0  0.17 0.05 0  0.18 0.05 0  0.19 0.05 0  0.2 0.05 0  0.21 0.05 0  0.22 0.05 0  0.23 0.05 0  0.24 0.05 0  0.25 0.05 0  0.26 0.05 0  0.27 0.05 0  0.28 0.05 0  0.29 0.05 0  0.3 0.05 0  0.31 0.05 0  0.32 0.05 0  0.33 0.05 0  0.34 0.05 0  0.35 0.05 0  0.36 0.05 0  0.37 0.05 0  0.38 0.05 0  0.39 0.05 0  0.4 0.05 0  0.41 0.05 0  0.42 0.05 0  0.43 0.05 0  0.44 0.05 0  0.45 0.05 0  0.46 0.05 0  0.47 0.05 0  0.48 0.05 0  0.49 0.05 0  0.5 0.05 0  0.51 0.05 0  0.52 0.05 0  0.53 0.05 0  0.54 0.05 0  0.55 0.05 0  0.5600000000000001 0.05 0  0.57 0.05 0  0.58 0.05 0  0.59 0.05 0  0.6 0.05 0  0.61 0.05 0  0.62 0.05 0  0.63 0.05 0  0.64 0.05 0  0.65 0.05 0  0.66 0.05 0  0.67 0.05 0  0.68 0.05 0  0.6899999999999999 0.05 0  0.7 0.05 0  0.71 0.05 0  0.72 0.05 0  0.73 0.05 0  0.74 0.05 0  0.75 0.05 0  0.76 0.05 0  0.77 0.05 0  0.78 0.05 0  0.79 0.05 0  0.8 0.05 0  0.8100000000000001 0.05 0  0.82 0.05 0  0.83 0.05 0  0.84 0.05 0  0.85 0.05 0  0.86 0.05 0  0.87 0.05 0  0.88 0.05 0  0.89 0.05 0  0.9 0.05 0  0.91 0.05 0  0.92 0.05 0  0.93 0.05 0  0.9399999999999999 0.05 0  0.95 0.05 0  0.96 0.05 0  0.97 0.05 0  0.98 0.05 0  0.99 0.05 0  1 0.05 0  0 0.06 0  0.01 0.06 0  0.02 0.06 0  0.03 0.06 0  0.04 0.06 0  0.05 0.06 0  0.06 0.06 0  0.07000000000000001 0.06 0  0.08 0.06 0  0.09 0.06 0  0.1 0.06 0  0.11 0.06 0  0.12 0.06 0  0.13 0.06 0  0.14 0.06 0  0.15 0.06 0  0.16 0.06 0  0.17 0.06 0  0.18 0.06 0  0.19 0.06 0  0.2 0.06 0  0.21 0.06 0  0.22 0.06 0  0.23 0.06 0  0.24 0.06 0  0.25 0.06 0  0.26 0.06 0  0.27 0.06 0  0.28 0.06 0  0.29 0.06 0  0.3 0.06 0  0.31 0.06 0  0.32 0.06 0  0.33 0.06 0  0.34 0.06 0  0.35 0.06 0  0.36 0.06 0  0.37 0.06 0  0.38 0.06 0  0.39 0.06 0  0.4 0.06 0  0.41 0.06 0  0.42 0.06 0  0.43 0.06 0  0.44 0.06 0  0.45 0.06 0  0.46 0.06 0  0.47 0.06 0  0.48 0.06 0  0.49 0.06 0  0.5 0.06 0  0.51 0.06 0  0.52 0.06 0  0.53 0.06 0  0.54 0.06 0  0.55 0.06 0  0.5600000000000001 0.06 0  0.57 0.06 0  0.58 0.06 0  0.59 0.06 0  0.6 0.06 0  0.61 0.06 0  0.62 0.06 0  0.63 0.06 0  0.64 0.06 0  0.65 0.06 0  0.66 0.06 0  0.67 0.06 0  0.68 0.06 0  0.6899999999999999 0.06 0  0.7 0.06 0  0.71 0.06 0  0.72 0.06 0  0.73 0.06 0  0.74 0.06 0  0.75 0.06 0  0.76 0.06 0  0.77 0.06 0  0.78 0.06 0  0.79 0.06 0  0.8 0.06 0  0.8100000000000001 0.06 0  0.82 0.06 0  0.83 0.06 0  0.84 0.06 0  0.85 0.06 0  0.86 0.06 0  0.87 0.06 0  0.88 0.06 0  0.89 0.06 0  0.9 0.06 0  0.91 0.06 0  0.92 0.06 0  0.93 0.06 0  0.9399999999999999 0.06 0  0.95 0.06 0  0.96 0.06 0  0.97 0.06 0  0.98 0.06 0  0.99 0.06 0  1 0.06 0  0 0.07000000000000001 0  0.01 0.07000000000000001 0  0.02 0.07000000000000001 0  0.03 0.07000000000000001 0  0.04 0.07000000000000001 0  0.05 0.07000000000000001 0  0.06 0.07000000000000001 0  0.07000000000000001 0.07000000000000001 0  0.08 0.07000000000000001 0  0.09 0.07000000000000001 0  0.1 0.07000000000000001 0  0.11 0.07000000000000001 0  0.12 0.07000000000000001 0  0.13 0.07000000000000001 0  0.14 0.07000000000000001 0  0.15 0.07000000000000001 0  0.16 0.07000000000000001 0  0.17 0.0700
[...]
<PointData  Scalars="u"> 
<DataArray  type="Float64"  Name="u"  format="ascii">0.0000000000000000e+00  0.0000000000000000e+00  0.0000000000000000e+00  0.0000000000000000e+00  0.0000000000000000e+00  0.0000000000000000e+00  0.0000000000000000e+00  0.0000000000000000e+00  0.0000000000000000e+00  0.0000000000000000e+00  0.0000000000000000e+00  0.0000000000000000e+00  0.0000000000000000e+00  0.0000000000000000e+00  0.0000000000000000e+00  0.0000000000000000e+00  0.0000000000000000e+00  0.0000000000000000e+00  0.0000000000000000e+00  0.0000000000000000e+00  0.0000000000000000e+00  0.0000000000000000e+00  0.0000000000000000e+00  0.0000000000000000e+00  0.0000000000000000e+00  0.0000000000000000e+00  0.0000000000000000e+00  0.0000000000000000e+00  0.0000000000000000e+00  0.0000000000000000e+00  0.0000000000000000e+00  0.0000000000000000e+00  0.0000000000000000e+00  0.0000000000000000e+00  0.0000000000000000e+00  0.0000000000000000e+00  0.0000000000000000e+00  0.0000000000000000e+00  0.0000000000000000e+00  0.0000000000000000e+00  0.0000000000000000e+00  0.0000000000000000e+00  0.0000000000000000e+00  0.0000000000000000e+00  0.0000000000000000e+00  0.0000000000000000e+00  0.0000000000000000e+00  0.0000000000000000e+00  0.0000000000000000e+00  0.0000000000000000e+00  0.0000000000000000e+00  0.0000000000000000e+00  0.0000000000000000e+00  0.0000000000000000e+00  0.0000000000000000e+00  0.0000000000000000e+00  0.0000000000000000e+00  0.0000000000000000e+00  0.0000000000000000e+00  0.0000000000000000e+00  0.0000000000000000e+00  0.0000000000000000e+00  0.0000000000000000e+00  0.0000000000000000e+00  0.0000000000000000e+00  0.0000000000000000e+00  0.0000000000000000e+00  0.0000000000000000e+00  0.0000000000000000e+00  0.0000000000000000e+00  0.0000000000000000e+00  0.0000000000000000e+00  0.0000000000000000e+00  0.0000000000000000e+00  0.0000000000000000e+00  0.0000000000000000e+00  0.0000000000000000e+00  0.0000000000000000e+00  0.0000000000000000e+00  0.0000000000000000e+00  0.0000000000000000e+00  0.0000000000000000e+00  0.0000000000000000e+00  0.0000000000000000e+00  0.0000000000000000e+00  0.0000000000000000e+00  0.0000000000000000e+00  0.0000000000000000e+00  0.0000000000000000e+00  0.0000000000000000e+00  0.0000000000000000e+00  0.0000000000000000e+00  0.0000000000000000e+00  0.0000000000000000e+00  0.0000000000000000e+00  0.0000000000000000e+00  0.0000000000000000e+00  0.0000000000000000e+00  0.0000000000000000e+00  0.0000000000000000e+00  0.0000000000000000e+00  0.0000000000000000e+00  2.0304609720959223e-08  3.9216408000731138e-08  5.7056529114736355e-08  7.4097778659502415e-08  9.0573666304030903e-08  1.0668370024239868e-07  1.2259784129486427e-07  1.3846020038617240e-07  1.5439208302176910e-07  1.7049447544771456e-07  1.8685005586786143e-07  2.0352480389095440e-07  2.2056927273794990e-07  2.3801958156625153e-07  2.5589817937420716e-07  2.7421442713686103e-07  2.9296504090066370e-07  3.1213443534869506e-07  3.3169500466598132e-07  3.5160737522139167e-07  3.7182066247978463e-07  3.9227276251377696e-07  4.1289070635460961e-07  4.3359110307179339e-07  4.5428069478002676e-07  4.7485704363471167e-07  4.9520936721140760e-07  5.1521953441416733e-07  5.3476322920029711e-07  5.5371128396055457e-07  5.7193117841344356e-07  5.8928869346608780e-07  6.0564970281665279e-07  6.2088207832593410e-07  6.3485767861296455e-07  6.4745438421054397e-07  6.5855813725377849e-07  6.6806493937799151e-07  6.7588275857087436e-07  6.8193329442485855e-07  6.8615355178357330e-07  6.8849717531088341e-07  6.8893550207991959e-07  6.8745829582439377e-07  6.8407413484380038e-07  6.7881043542379707e-07  6.7171310363587457e-07  6.6284582004381703e-07  6.5228897363643526e-07  6.4013827266741277e-07  6.2650307046307902e-07  6.1150445315213034e-07  5.9527314325182938e-07  5.7794727779564640e-07  5.5967012201923797e-07  5.4058777948671338e-07  5.2084695702847262e-07  5.0059283819613512e-07  4.7996711244860271e-07  4.5910619937765458e-07  4.3813969842342578e-07  4.1718908519842600e-07  3.9636666619773388e-07  3.7577479474442090e-07  3.5550534286066401e-07  3.3563941664461278e-07  3.1624729686229047e-07  2.9738858193666939e-07  2.7911250735473147e-07  2.6145841366848700e-07  2.4445633463022523e-07  2.2812767742554042e-07  2.1248596827242555e-07  1.9753763865052722e-07  1.8328282992094107e-07  1.6971619691324361e-07  1.5682769403014361e-07  1.4460333041147793e-07  1.3302588359408076e-07  1.2207556381438360e-07  1.1173062356364414e-07  1.0196790918166336e-07  9.2763353143861894e-08  8.4092407255381086e-08  7.5930418224203798e-08  6.8252948062650718e-08  6.1036042489056665e-08  5.4256450999018138e-08  4.7891802580085835e-08  4.1920741186882317e-08  3.6323025105683247e-08  3.1079594246455195e-08  2.6172609230900377e-08  2.1585465917723849e-08  1.7302788734920148e-08  1.3310405871541203e-08  9.5953089608159301e-09  6.1455990445588784e-09  2.9504179447039550e-09  0.0000000000000000e+00  0.0000000000000000e+00  4.4638701171382791e-08  8.6218581197438630e-08  1.2544422177356301e-07  1.6291652943217756e-07  1.9914974132413004e-07  2.3458324858312636e-07  2.6959143534762209e-07  3.0449182782893122e-07  3.3955179888132069e-07  3.7499403993177842e-07  4.1100098469542637e-07  4.4771834606667242e-07  4.8525790837939064e-07  5.2369970137665230e-07  5.6309366923948477e-07  6.0346093743829327e-07  6.4479477156196140e-07  6.8706131524544963e-07  7.3020018847465170e-07  7.7412502253177761e-07  8.1872400330431260e-07  8.6386049027846275e-07  9.0937377395286969e-07  9.5508002933948916e-07  1.0007735173924594e-06  1.0462280793851363e-06  1.0911989612500841e-06  1.1354249955756911e-06  1.1786311582582025e-06  1.2205315047660222e-06  1.2608324777081566e-06  1.2992365631388835e-06  1.3354462581146813e-06  1.3691682968920607e-06  1.4001180683606400e-06  1.4280241434698066e-06  1.4526328192109970e-06  1.4737125758633762e-06  1.4910583373809164e-06  1.5044954216083638e-06  1.5138830679605446e-06  1.5191174356169263e-06  1.5201339752974125e-06  1.5169090921814673e-06  1.5094610361403068e-06  1.4978499775411486e-06  1.4821772515871642e-06  1.4625837804115884e-06  1.4392477087453028e-06  1.4123813146528233e-06  1.3822272803269146e-06  1.3490544280913707e-06  1.3131530426090977e-06  1.2748299110984958e-06  1.2344032186902669e-06  1.1921974357935192e-06  1.1485383286893917e-06  1.1037482140328580e-06  1.0581415632697522e-06  1.0120210451041328e-06  9.6567407413375465e-07  9.1936991269897821e-07  8.7335735191917734e-07  8.2786297777778621e-07  7.8309000977197295e-07  7.3921768369191044e-07  6.9640113696582456e-07  6.5477174492828422e-07  6.1443784938271063e-07  5.7548581681444117e-07  5.3798136231742647e-07  5.0197107637907776e-07  4.6748409471772810e-07  4.3453385595165403e-07  4.0311989756564243e-07  3.7322964702322321e-07  3.4484017158435786e-07  3.1791985711701891e-07  2.9242999268274583e-07  2.6832624373658737e-07  2.4556000227352588e-07  2.2407960709086740e-07  2.0383143147821791e-07  1.8476083908943894e-07  1.6681301151914614e-07  1.4993365324584521e-07  1.3406958117499391e-07  1.1916920708672965e-07  1.0518292193680141e-07  9.2063391246912047e-08  7.9765770820419702e-08  6.8247851793812668e-08  5.7470143639294670e-08  4.7395903216807204e-08  3.7991117373052990e-08  2.9224445927567643e-08  2.1067131192189706e-08  1.3492879548749408e-08  6.4777215188043133e-09  0.0000000000000000e+00  0.0000000000000000e+00  7.3781365986191584e-08  1.4251135784044131e-07  2.0735596923837811e-07  2.6931093396029270e-07  3.2922848153915456e-07  3.8783695340256551e-07  4.4575713103249484e-07  5.0351574990702954e-07  5.6155660999464537e-07  6.2024963630431296e-07  6.7989819615674796e-07  7.4074494107559719e-07  8.0297640913040745e-07  8.6672659718416606e-07  9.3207969094290919e-07  9.9907212319474758e-07  1.0676941164433131e-06  1.1378908546145059e-06  1.2095634190089783e-06  1.2825696155761789e-06  1.3567248133113070e-06  1.4318029065576648e-06  1.5075375066910938e-06  1.5836234605586537e-06  1.6597187836708063e-06  1.7354470850924845e-06  1.8104005479062148e-06  1.8841435137898356e-06  1.9562167025416418e-06  2.0261420773188114e-06  2.0934283441162528e-06  2.1575770499666797e-06  2.2180892190428048e-06  2.2744724400301493e-06  2.3262482927314088e-06  2.3729599779255351e-06  2.4141799932084487e-06  2.4495176801067069e-06  2.4786264553780361e-06  2.5012105331852794e-06  2.5170309456541548e-06  2.5259106778236581e-06  2.5277387494401440e-06  2.5224731002858235e-06  2.5101421671741674e-06  2.4908450783371926e-06  2.4647504331981559e-06  2.4320936806355732e-06  2.3931731547120219e-06  2.3483448712457203e-06  2.2980162293429155e-06  2.2426387970490508e-06  2.1827003878898662e-06  2.1187166539626609e-06  2.0512224306224411e-06  1.9807630674715383e-06  1.9078859706536131e-06  1.8331325632472685e-06  1.7570308451654063e-06  1.6800887030398283e-06  1.6027880859524024e-06  1.5255801264750857e-06  1.4488812501467497e-06  1.3730702819129991e-06  1.2984865265881146e-06  1.2254287731439819e-06  1.1541551503152411e-06  1.0848837440075270e-06  1.0177938753556830e-06  9.5302793176893409e-07  8.9069364146352069e-07  8.3086668420163166e-07  7.7359353651055382e-07  7.1889445778852131e-07  6.6676653366257400e-07  6.1718670404579255e-07  5.7011471492025795e-07  5.2549594441669372e-07  4.8326406484433586e-07  4.4334351262174699e-07  4.0565174734637720e-07  3.7010128938169065e-07  3.3660153227567607e-07  3.0506033205562518e-07  2.7538538002130209e-07  2.4748536916699221e-07  2.2127096691023294e-07  1.9665560851193903e-07  1.7355612656435868e-07  1.5189323232307442e-07  1.3159186458376602e-07  1.1258142136040684e-07  9.4795888903934769e-08  7.8173881691601039e-08  6.2658605987805735e-08  4.8197758491296402e-08  3.4743370517978277e-08  2.2251607271099916e-08  1.0682531578403308e-08  0.0000000000000000e+00  0.0000000000000000e+00  1.0865326689983747e-07  2.0987518852295119e-07  3.0538755381269564e-07  3.9666178038373203e-07  4.8495748528730389e-07  5.7135151556449529e-07  6.5676210756671955e-07  7.4196887243924906e-07  8.2762921484369163e-07  9.1429170870086562e-07  1.0024068841975477e-06  1.0923358225668773e-06  1.1843569074581249e-06  1.2786710425648866e-06  1.3754056132839692e-06  1.4746174443671138e-06  1.5762949847371144e-06  1.6803599338720525e-06  1.7866685104703886e-06  1.8950125525870591e-06  2.0051206281975628e-06  2.1166593253503880e-06  2.2292348808854214e-06  2.3423952953435644e-06  2.4556330684428622e-06  2.5683886736987536e-06  2.6800548718767933e-06  2.7899819405804883e-06  2.8974838711653233e-06  3.0018455543157388e-06  3.1023309422550066e-06  3.1981921391843903e-06  3.2886793329691856e-06  3.3730514414043302e-06  3.4505873069860810e-06  3.5205972366200886e-06  3.5824346489291224e-06  3.6355075637029821e-06  3.6792896474687433e-06  3.7133305179211358e-06  3.7372650095355249e-06  3.7508211141658366e-06  3.7538263343388907e-06  3.7462122231755486e-06  3.7280169325654992e-06  3.6993856488296778e-06  3.6605688603659867e-06  3.6119184718401507e-06  3.5538818510710096e-06  3.4869939643493968e-06  3.4118678200075615e-06  3.3291834953504152e-06  3.2396760657814349e-06  3.1441227849943173e-06  3.0433298801735178e-06  2.9381193258767062e-06  2.8293159451975572e-06  2.7177351583115943e-06  2.6041716586886224e-06  2.4893892487419744e-06  2.3741120124268993e-06  2.2590169453447372e-06  2.1447281061905321e-06  2.0318122995382522e-06  1.9207762511938395e-06  1.8120651953374061e-06  1.7060627585298228e-06  1.6030919999192661e-06  1.5034174496764619e-06  1.4072479783970196e-06  1.3147403281706355e-06  1.2260031402189419e-06  1.1411013232905647e-06  1.0600606201639285e-06  9.8287224546191476e-07  9.0949748542955594e-07  8.3987216839869803e-07  7.7391093254975654e-07  7.1151123463507987e-07  6.5255705907141884e-07  5.9692230091568587e-07  5.4447380852106386e-07  4.9507408205831169e-07  4.4858363260211798e-07  4.0486301321812709e-07  3.6377453858681228e-07  3.2518371334176120e-07  2.8896039167498854e-07  2.5497969206759071e-07  2.2312269143218808e-07  1.9327692268385176e-07  1.6533669895179868e-07  1.3920328644932688e-07  1.1478494655900300e-07  9.1996866070677213e-08  7.0760992823667191e-08  5.1005792334052106e-08  3.2665939393198570e-08  1.5681957485683233e-08  0.0000000000000000e+00  0.0000000000000000e+00  1.5034234991541853e-07  2.9041442539595177e-07  4.2260788677078283e-07  5.4896762895692292e-07  6.7124465954410160e-07  7.9093652886581947e-07  9.0932095854391969e-07  1.0274836421802459e-06  1.1463410638979950e-06  1.2666590645224936e-06  1.3890677880740682e-06  1.5140735604647173e-06  1.6420681855802515e-06  1.7733360892725830e-06  1.9080596973882873e-06  2.0463233982012374e-06  2.1881164110126350e-06  2.3333348598418674e-06  2.4817833327353739e-06  2.6331761919946388e-06  2.7871388873296848e-06  2.9432095113701897e-06  3.1008408239330500e-06  3.2594029568168136e-06  3.4181869935983520e-06  3.5764095979700473e-06  3.7332188387379970e-06  3.8877013290496955e-06  4.0388907613192207e-06  4.1857778775525551e-06  4.3273218675806926e-06  4.4624631357212738e-06  4.5901373206847814e-06  4.7092903956466673e-06  4.8188946172901791e-06  4.9179650366529260e-06  5.0055762334633436e-06  5.0808788922067438e-06  5.1431158053235323e-06  5.1916368694665502e-06  5.2259126370134282e-06  5.2455459988368205e-06  5.2502816066791120e-06  5.2400126943881100e-06  5.2147850256906205e-06  5.1747977799258592e-06  5.1204012829596658e-06  5.0520915941385984e-06  4.9705020666888459e-06  4.8763921030821150e-06  4.7706334231960571e-06  4.6541942465476288e-06  4.5281218561394017e-06  4.3935240572282591e-06  4.2515500675675920e-06  4.1033713757553649e-06  3.9501630820249760e-06  3.7930861932427282e-06  3.6332712842323691e-06  3.4718038648642972e-06  3.3097117111436005e-06  3.1479543334660909e-06  2.9874146707535938e-06  2.8288930193247998e-06  2.6731031334130528e-06  2.5206703726886441e-06  2.3721317225787058e-06  2.2279374763343365e-06  2.0884543436158976e-06  1.9539697381330269e-06  1.8246969953501752e-06  1.7007812788636936e-06  1.5823059489867776e-06  1.4692991875021162e-06  1.3617406966769687e-06  1.2595683168493865e-06  1.1626844337661196e-06  1.0709620732067787e-06  9.8425060534697637e-07  9.0238100412867410e-07  8.2517062718268946e-07  7.5242749935268684e-07  6.8395409753600676e-07  6.1955064645193800e-07  5.5901794423859705e-07  5.0215974369982181e-07  4.4878471984856962e-07  3.9870805741740650e-07  3.5175269352503002e-07  3.0775025098386963e-07  2.6654169707006108e-07  2.2797776118931921e-07  1.9191914296663379e-07  1.5823654004049637e-07  1.2681052240068059e-07  9.7531277592322756e-08  7.0298248609179860e-08  4.5019683866718175e-08  2.1612116791434915e-08  0.0000000000000000e+00  0.0000000000000000e+00  2.0013164615146479e-07  3.8661120565779173e-07  5.6263788113315687e-07  7.3094813863884240e-07  8.9388591902714760e-07  1.0534568841009899e-06  1.2113735069854064e-06  1.3690923182974075e-06  1.5278444445734753e-06  1.6886604188219072e-06  1.8523901119506838e-06  2.0197185247857766e-06  2.1911780904367656e-06  2.3671580632121652e-06  2.5479115107457183e-06  2.7335603783040027e-06  2.9240990564170287e-06  3.1193968531449549e-06  3.3191997486916230e-06  3.5231317909812399e-06  3.7306964745455759e-06  3.9412784299671289e-06  4.1541457355553285e-06  4.3684531453025275e-06  4.5832465059452498e-06  4.7974686097209836e-06  5.0099666969027243e-06  5.2195017823841545e-06  5.4247599327617766e-06  5.6243655641963498e-06  5.8168967669997526e-06  6.0009025911132637e-06  6.1749221487771886e-06  6.3375053087637282e-06  6.4872346732480860e-06  6.6227484470399141e-06  6.7427637333235824e-06  6.8460997244508255e-06  6.9317002050189912e-06  6.9986547516339231e-06  7.0462180031207062e-06  7.0738263894353502e-06  7.0811117489522799e-06  7.0679113325602443e-06  7.0342737878854116e-06  6.9804608350650316e-06  6.9069444822355574e-06  6.8143997782105158e-06  6.7036932544844598e-06  6.5758673607887234e-06  6.4321213398723366e-06  6.2737891103548539e-06  6.1023148247870067e-06  5.9192268383729420e-06  5.7261108589768182e-06  5.5245830500044162e-06  5.3162638256260579e-06  5.1027530157055522e-06  4.8856069905309529e-06  4.6663182290632959e-06  4.4462976957203481e-06  4.2268602666737476e-06  4.0092133239266572e-06  3.7944485199719423e-06  3.5835366124552145e-06  3.3773251805575994e-06  3.1765389649993806e-06  2.9817825225717260e-06  2.7935448536808624e-06  2.6122056463145153e-06  2.4380427801553615e-06  2.2712407478228036e-06  2.1118996737231078e-06  1.9600446419867268e-06  1.8156350808549961e-06  1.6785739892846275e-06  1.5487168304418873e-06  1.4258799545124951e-06  1.3098484485999620e-06  1.2003833435373289e-06  1.0972281356434907e-06  1.0001146055520824e-06  9.0876793619987122e-07  8.2291114803627713e-07  7.4226888179085556e-07  6.6657056808273073e-07  5.9555302919452052e-07  5.2896256190019429e-07  4.6655655176191064e-07  4.0810466920174901e-07  3.5338969628175177e-07  3.0220803081897758e-07  2.5436991150577959e-07  2.0969940433837324e-07  1.6803418707506395e-07  1.2922516480425326e-07  9.3135946117001955e-08  5.9642205927920400e-08  2.8630958315619590e-08  0.0000000000000000e+00  0.0000000000000000e+00  2.5953105529667674e-07  5.0138708628898216e-07  7.2974072537225256e-07  9.4816239686496924e-07  1.1597115366410142e-06  1.3670075920537379e-06  1.5722889934962079e-06  1.7774618216197078e-06  1.9841396608389892e-06  2.1936759228074142e-06  2.4071897504355743e-06  2.6255864692062744e-06  2.8495734340506104e-06  3.0796720234001195e-06  3.3162264541012079e-06  3.5594100288522673e-06  3.8092293791104627e-06  4.0655272285860489e-06  4.3279841731778532e-06  4.5961199502478720e-06  4.8692946512585427e-06  5.1467103147890655e-06  5.4274133195960635e-06  5.7102979774995461e-06  5.9941117013179710e-06  6.2774620918115815e-06  6.5588262477632205e-06  6.8365625533478696e-06  7.1089251356155558e-06  7.3740811115515938e-06  7.6301306587401510e-06  7.8751298468706959e-06  8.1071160608075596e-06  8.3241357322655254e-06  8.5242739798702700e-06  8.7056856410578611e-06  8.8666270692501981e-06  9.0054879720324519e-06  9.1208224869838707e-06  9.2113786376414317e-06  9.2761252885471378e-06  9.3142757301549246e-06  9.3253070747230607e-06  9.3089747343688737e-06  9.2653213810434786e-06  9.1946799515753235e-06  9.0976704528719020e-06  8.9751905342831680e-06  8.8284000155886741e-06  8.6586997784534036e-06  8.4677056345221494e-06  8.2572179631413210e-06  8.0291880560010258e-06  7.7856822070007066e-06  7.5288446384225857e-06  7.2608603573136896e-06  6.9839189903605758e-06  6.7001805560723900e-06  6.4117440069098732e-06  6.1206192201394802e-06  5.8287029447652056e-06  5.5377590332633100e-06  5.2494031108613136e-06  4.9650916704323508e-06  4.6861154347300075e-06  4.4135967047371883e-06  4.1484903163804510e-06  3.8915877588566044e-06  3.6435239656935603e-06  3.4047862723799321e-06  3.1757250388696923e-06  2.9565654577659504e-06  2.7474201054759954e-06  2.5483018400791892e-06  2.3591367022767862e-06  2.1797765312383889e-06  2.0100110625915643e-06  1.8495793289655939e-06  1.6981802327203325e-06  1.5554822046301707e-06  1.4211319006925239e-06  1.2947619216337349e-06  1.1759975661571758e-06  1.0644626498243736e-06  9.5978443715334249e-07  8.6159774563684777e-07  7.6954828755513664e-07  6.8329531932081177e-07  6.0251366926348165e-07  5.2689521381051279e-07  4.5614986946181255e-07  3.9000616424052738e-07  3.2821144781023684e-07  2.7053179449961309e-07  2.1675164832285540e-07  1.6667325392736626e-07  1.2011591238733817e-07  7.6915096000667609e-08  3.6921452493674077e-08  0.0000000000000000e+00  0.0000000000000000e+00  3.3031354423928981e-07  6.3817326399005921e-07  9.2892478149680347e-07  1.2071438801223683e-06  1.4767531914354826e-06  1.7411135159114860e-06  2.0030996093873792e-06  2.2651626626738204e-06  2.5293813962861088e-06  2.7975034230636631e-06  3.0709783064461252e-06  3.3509835554395906e-06  3.6384446437123772e-06  3.9340500153034426e-06  4.2382619391074485e-06  4.5513239950111883e-06  4.8732659129863415e-06  5.2039064394898498e-06  5.5428548702158120e-06  5.8895118616773331e-06  6.2430701133870380e-06  6