<?xml version="1.0"?>
<VTKFile type="UnstructuredGrid"  version="0.1"  >
<UnstructuredGrid>
<Piece  NumberOfPoints="10201" NumberOfCells="20000">
<Points>
<DataArray  type="Float64"  NumberOfComponents="3"  format="ascii">0 0 0  0.01 0 0  0.02 0 0  0.03 0 0  0.04 0 0  0.05 0 0  0.06 0 0  0.07000000000000001 0 0  0.08 0 0  0.09 0 0  0.1 0 0  0.11 0 0  0.12 0 0  0.13 0 0  0.14 0 0  0.15 0 0  0.16 0 0  0.17 0 0  0.18 0 0  0.19 0 0  0.2 0 0  0.21 0 0  0.22 0 0  0.23 0 0  0.24 0 0  0.25 0 0  0.26 0 0  0.27 0 0  0.28 0 0  0.29 0 0  0.3 0 0  0.31 0 0  0.32 0 0  0.33 0 0  0.34 0 0  0.35 0 0  0.36 0 0  0.37 0 0  0.38 0 0  0.39 0 0  0.4 0 0  0.41 0 0  0.42 0 0  0.43 0 0  0.44 0 0  0.45 0 0  0.46 0 0  0.47 0 0  0.48 0 0  0.49 0 0  0.5 0 0  0.51 0 0  0.52 0 0  0.53 0 0  0.54 0 0  0.55 0 0  0.5600000000000001 0 0  0.57 0 0  0.58 0 0  0.59 0 0  0.6 0 0  0.61 0 0  0.62 0 0  0.63 0 0  0.64 0 0  0.65 0 0  0.66 0 0  0.67 0 0  0.68 0 0  0.6899999999999999 0 0  0.7 0 0  0.71 0 0  0.72 0 0  0.73 0 0  0.74 0 0  0.75 0 0  0.76 0 0  0.77 0 0  0.78 0 0  0.79 0 0  0.8 0 0  0.8100000000000001 0 0  0.82 0 0  0.83 0 0  0.84 0 0  0.85 0 0  0.86 0 0  0.87 0 0  0.88 0 0  0.89 0 0  0.9 0 0  0.91 0 0  0.92 0 0  0.93 0 0  0.9399999999999999 0 0  0.95 0 0  0.96 0 0  0.97 0 0  0.98 0 0  0.99 0 0  1 0 0  0 0.01 0  0.01 0.01 0  0.02 0.01 0  0.03 0.01 0  0.04 0.01 0  0.05 0.01 0  0.06 0.01 0  0.07000000000000001 0.01 0  0.08 0.01 0  0.09 0.01 0  0.1 0.01 0  0.11 0.01 0  0.12 0.01 0  0.13 0.01 0  0.14 0.01 0  0.15 0.01 0  0.16 0.01 0  0.17 0.01 0  0.18 0.01 0  0.19 0.01 0  0.2 0.01 0  0.21 0.01 0  0.22 0.01 0  0.23 0.01 0  0.24 0.01 0  0.25 0.01 0  0.26 0.01 0  0.27 0.01 0  0.28 0.01 0  0.29 0.01 0  0.3 0.01 0  0.31 0.01 0  0.32 0.01 0  0.33 0.01 0  0.34 0.01 0  0.35 0.01 0  0.36 0.01 0  0.37 0.01 0  0.38 0.01 0  0.39 0.01 0  0.4 0.01 0  0.41 0.01 0  0.42 0.01 0  0.43 0.01 0  0.44 0.01 0  0.45 0.01 0  0.46 0.01 0  0.47 0.01 0  0.48 0.01 0  0.49 0.01 0  0.5 0.01 0  0.51 0.01 0  0.52 0.01 0  0.53 0.01 0  0.54 0.01 0  0.55 0.01 0  0.5600000000000001 0.01 0  0.57 0.01 0  0.58 0.01 0  0.59 0.01 0  0.6 0.01 0  0.61 0.01 0  0.62 0.01 0  0.63 0.01 0  0.64 0.01 0  0.65 0.01 0  0.66 0.01 0  0.67 0.01 0  0.68 0.01 0  0.6899999999999999 0.01 0  0.7 0.01 0  0.71 0.01 0  0.72 0.01 0  0.73 0.01 0  0.74 0.01 0  0.75 0.01 0  0.76 0.01 0  0.77 0.01 0  0.78 0.01 0  0.79 0.01 0  0.8 0.01 0  0.8100000000000001 0.01 0  0.82 0.01 0  0.83 0.01 0  0.84 0.01 0  0.85 0.01 0  0.86 0.01 0  0.87 0.01 0  0.88 0.01 0  0.89 0.01 0  0.9 0.01 0  0.91 0.01 0  0.92 0.01 0  0.93 0.01 0  0.9399999999999999 0.01 0  0.95 0.01 0  0.96 0.01 0  0.97 0.01 0  0.98 0.01 0  0.99 0.01 0  1 0.01 0  0 0.02 0  0.01 0.02 0  0.02 0.02 0  0.03 0.02 0  0.04 0.02 0  0.05 0.02 0  0.06 0.02 0  0.07000000000000001 0.02 0  0.08 0.02 0  0.09 0.02 0  0.1 0.02 0  0.11 0.02 0  0.12 0.02 0  0.13 0.02 0  0.14 0.02 0  0.15 0.02 0  0.16 0.02 0  0.17 0.02 0  0.18 0.02 0  0.19 0.02 0  0.2 0.02 0  0.21 0.02 0  0.22 0.02 0  0.23 0.02 0  0.24 0.02 0  0.25 0.02 0  0.26 0.02 0  0.27 0.02 0  0.28 0.02 0  0.29 0.02 0  0.3 0.02 0  0.31 0.02 0  0.32 0.02 0  0.33 0.02 0  0.34 0.02 0  0.35 0.02 0  0.36 0.02 0  0.37 0.02 0  0.38 0.02 0  0.39 0.02 0  0.4 0.02 0  0.41 0.02 0  0.42 0.02 0  0.43 0.02 0  0.44 0.02 0  0.45 0.02 0  0.46 0.02 0  0.47 0.02 0  0.48 0.02 0  0.49 0.02 0  0.5 0.02 0  0.51 0.02 0  0.52 0.02 0  0.53 0.02 0  0.54 0.02 0  0.55 0.02 0  0.5600000000000001 0.02 0  0.57 0.02 0  0.58 0.02 0  0.59 0.02 0  0.6 0.02 0  0.61 0.02 0  0.62 0.02 0  0.63 0.02 0  0.64 0.02 0  0.65 0.02 0  0.66 0.02 0  0.67 0.02 0  0.68 0.02 0  0.6899999999999999 0.02 0  0.7 0.02 0  0.71 0.02 0  0.72 0.02 0  0.73 0.02 0  0.74 0.02 0  0.75 0.02 0  0.76 0.02 0  0.77 0.02 0  0.78 0.02 0  0.79 0.02 0  0.8 0.02 0  0.8100000000000001 0.02 0  0.82 0.02 0  0.83 0.02 0  0.84 0.02 0  0.85 0.02 0  0.86 0.02 0  0.87 0.02 0  0.88 0.02 0  0.89 0.02 0  0.9 0.02 0  0.91 0.02 0  0.92 0.02 0  0.93 0.02 0  0.9399999999999999 0.02 0  0.95 0.02 0  0.96 0.02 0  0.97 0.02 0  0.98 0.02 0  0.99 0.02 0  1 0.02 0  0 0.03 0  0.01 0.03 0  0.02 0.03 0  0.03 0.03 0  0.04 0.03 0  0.05 0.03 0  0.06 0.03 0  0.07000000000000001 0.03 0  0.08 0.03 0  0.09 0.03 0  0.1 0.03 0  0.11 0.03 0  0.12 0.03 0  0.13 0.03 0  0.14 0.03 0  0.15 0.03 0  0.16 0.03 0  0.17 0.03 0  0.18 0.03 0  0.19 0.03 0  0.2 0.03 0  0.21 0.03 0  0.22 0.03 0  0.23 0.03 0  0.24 0.03 0  0.25 0.03 0  0.26 0.03 0  0.27 0.03 0  0.28 0.03 0  0.29 0.03 0  0.3 0.03 0  0.31 0.03 0  0.32 0.03 0  0.33 0.03 0  0.34 0.03 0  0.35 0.03 0  0.36 0.03 0  0.37 0.03 0  0.38 0.03 0  0.39 0.03 0  0.4 0.03 0  0.41 0.03 0  0.42 0.03 0  0.43 0.03 0  0.44 0.03 0  0.45 0.03 0  0.46 0.03 0  0.47 0.03 0  0.48 0.03 0  0.49 0.03 0  0.5 0.03 0  0.51 0.03 0  0.52 0.03 0  0.53 0.03 0  0.54 0.03 0  0.55 0.03 0  0.5600000000000001 0.03 0  0.57 0.03 0  0.58 0.03 0  0.59 0.03 0  0.6 0.03 0  0.61 0.03 0  0.62 0.03 0  0.63 0.03 0  0.64 0.03 0  0.65 0.03 0  0.66 0.03 0  0.67 0.03 0  0.68 0.03 0  0.6899999999999999 0.03 0  0.7 0.03 0  0.71 0.03 0  0.72 0.03 0  0.73 0.03 0  0.74 0.03 0  0.75 0.03 0  0.76 0.03 0  0.77 0.03 0  0.78 0.03 0  0.79 0.03 0  0.8 0.03 0  0.8100000000000001 0.03 0  0.82 0.03 0  0.83 0.03 0  0.84 0.03 0  0.85 0.03 0  0.86 0.03 0  0.87 0.03 0  0.88 0.03 0  0.89 0.03 0  0.9 0.03 0  0.91 0.03 0  0.92 0.03 0  0.93 0.03 0  0.9399999999999999 0.03 0  0.95 0.03 0  0.96 0.03 0  0.97 0.03 0  0.98 0.03 0  0.99 0.03 0  1 0.03 0  0 0.04 0  0.01 0.04 0  0.02 0.04 0  0.03 0.04 0  0.04 0.04 0  0.05 0.04 0  0.06 0.04 0  0.07000000000000001 0.04 0  0.08 0.04 0  0.09 0.04 0  0.1 0.04 0  0.11 0.04 0  0.12 0.04 0  0.13 0.04 0  0.14 0.04 0  0.15 0.04 0  0.16 0.04 0  0.17 0.04 0  0.18 0.04 0  0.19 0.04 0  0.2 0.04 0  0.21 0.04 0  0.22 0.04 0  0.23 0.04 0  0.24 0.04 0  0.25 0.04 0  0.26 0.04 0  0.27 0.04 0  0.28 0.04 0  0.29 0.04 0  0.3 0.04 0  0.31 0.04 0  0.32 0.04 0  0.33 0.04 0  0.34 0.04 0  0.35 0.04 0  0.36 0.04 0  0.37 0.04 0  0.38 0.04 0  0.39 0.04 0  0.4 0.04 0  0.41 0.04 0  0.42 0.04 0  0.43 0.04 0  0.44 0.04 0  0.45 0.04 0  0.46 0.04 0  0.47 0.04 0  0.48 0.04 0  0.49 0.04 0  0.5 0.04 0  0.51 0.04 0  0.52 0.04 0  0.53 0.04 0  0.54 0.04 0  0.55 0.04 0  0.5600000000000001 0.04 0  0.57 0.04 0  0.58 0.04 0  0.59 0.04 0  0.6 0.04 0  0.61 0.04 0  0.62 0.04 0  0.63 0.04 0  0.64 0.04 0  0.65 0.04 0  0.66 0.04 0  0.67 0.04 0  0.68 0.04 0  0.6899999999999999 0.04 0  0.7 0.04 0  0.71 0.04 0  0.72 0.04 0  0.73 0.04 0  0.74 0.04 0  0.75 0.04 0  0.76 0.04 0  0.77 0.04 0  0.78 0.04 0  0.79 0.04 0  0.8 0.04 0  0.8100000000000001 0.04 0  0.82 0.04 0  0.83 0.04 0  0.84 0.04 0  0.85 0.04 0  0.86 0.04 0  0.87 0.04 0  0.88 0.04 0  0.89 0.04 0  0.9 0.04 0  0.91 0.04 0  0.92 0.04 0  0.93 0.04 0  0.9399999999999999 0.04 0  0.95 0.04 0  0.96 0.04 0  0.97 0.04 0  0.98 0.04 0  0.99 0.04 0  1 0.04 0  0 0.05 0  0.01 0.05 0  0.02 0.05 0  0.03 0.05 0  0.04 0.05 0  0.05 0.05 0  0.06 0.05 0  0.07000000000000001 0.05 0  0.08 0.05 0  0.09 0.05 0  0.1 0.05 0  0.11 0.05 0  0.12 0.05 0  0.13 0.05 0  0.14 0.05 0  0.15 0.05 0  0.16 0.05 0  0.17 0.05 0  0.18 0.05 0  0.19 0.05 0  0.2 0.05 0  0.21 0.05 0  0.22 0.05 0  0.23 0.05 0  0.24 0.05 0  0.25 0.05 0  0.26 0.05 0  0.27 0.05 0  0.28 0.05 0  0.29 0.05 0  0.3 0.05 0  0.31 0.05 0  0.32 0.05 0  0.33 0.05 0  0.34 0.05 0  0.35 0.05 0  0.36 0.05 0  0.37 0.05 0  0.38 0.05 0  0.39 0.05 0  0.4 0.05 0  0.41 0.05 0  0.42 0.05 0  0.43 0.05 0  0.44 0.05 0  0.45 0.05 0  0.46 0.05 0  0.47 0.05 0  0.48 0.05 0  0.49 0.05 0  0.5 0.05 0  0.51 0.05 0  0.52 0.05 0  0.53 0.05 0  0.54 0.05 0  0.55 0.05 0  0.5600000000000001 0.05 0  0.57 0.05 0  0.58 0.05 0  0.59 0.05 0  0.6 0.05 0  0.61 0.05 0  0.62 0.05 0  0.63 0.05 0  0.64 0.05 0  0.65 0.05 0  0.66 0.05 0  0.67 0.05 0  0.68 0.05 0  0.6899999999999999 0.05 0  0.7 0.05 0  0.71 0.05 0  0.72 0.05 0  0.73 0.05 0  0.74 0.05 0  0.75 0.05 0  0.76 0.05 0  0.77 0.05 0  0.78 0.05 0  0.79 0.05 0  0.8 0.05 0  0.8100000000000001 0.05 0  0.82 0.05 0  0.83 0.05 0  0.84 0.05 0  0.85 0.05 0  0.86 0.05 0  0.87 0.05 0  0.88 0.05 0  0.89 0.05 0  0.9 0.05 0  0.91 0.05 0  0.92 0.05 0  0.93 0.05 0  0.9399999999999999 0.05 0  0.95 0.05 0  0.96 0.05 0  0.97 0.05 0  0.98 0.05 0  0.99 0.05 0  1 0.05 0  0 0.06 0  0.01 0.06 0  0.02 0.06 0  0.03 0.06 0  0.04 0.06 0  0.05 0.06 0  0.06 0.06 0  0.07000000000000001 0.06 0  0.08 0.06 0  0.09 0.06 0  0.1 0.06 0  0.11 0.06 0  0.12 0.06 0  0.13 0.06 0  0.14 0.06 0  0.15 0.06 0  0.16 0.06 0  0.17 0.06 0  0.18 0.06 0  0.19 0.06 0  0.2 0.06 0  0.21 0.06 0  0.22 0.06 0  0.23 0.06 0  0.24 0.06 0  0.25 0.06 0  0.26 0.06 0  0.27 0.06 0  0.28 0.06 0  0.29 0.06 0  0.3 0.06 0  0.31 0.06 0  0.32 0.06 0  0.33 0.06 0  0.34 0.06 0  0.35 0.06 0  0.36 0.06 0  0.37 0.06 0  0.38 0.06 0  0.39 0.06 0  0.4 0.06 0  0.41 0.06 0  0.42 0.06 0  0.43 0.06 0  0.44 0.06 0  0.45 0.06 0  0.46 0.06 0  0.47 0.06 0  0.48 0.06 0  0.49 0.06 0  0.5 0.06 0  0.51 0.06 0  0.52 0.06 0  0.53 0.06 0  0.54 0.06 0  0.55 0.06 0  0.5600000000000001 0.06 0  0.57 0.06 0  0.58 0.06 0  0.59 0.06 0  0.6 0.06 0  0.61 0.06 0  0.62 0.06 0  0.63 0.06 0  0.64 0.06 0  0.65 0.06 0  0.66 0.06 0  0.67 0.06 0  0.68 0.06 0  0.6899999999999999 0.06 0  0.7 0.06 0  0.71 0.06 0  0.72 0.06 0  0.73 0.06 0  0.74 0.06 0  0.75 0.06 0  0.76 0.06 0  0.77 0.06 0  0.78 0.06 0  0.79 0.06 0  0.8 0.06 0  0.8100000000000001 0.06 0  0.82 0.06 0  0.83 0.06 0  0.84 0.06 0  0.85 0.06 0  0.86 0.06 0  0.87 0.06 0  0.88 0.06 0  0.89 0.06 0  0.9 0.06 0  0.91 0.06 0  0.92 0.06 0  0.93 0.06 0  0.9399999999999999 0.06 0  0.95 0.06 0  0.96 0.06 0  0.97 0.06 0  0.98 0.06 0  0.99 0.06 0  1 0.06 0  0 0.07000000000000001 0  0.01 0.07000000000000001 0  0.02 0.07000000000000001 0  0.03 0.07000000000000001 0  0.04 0.07000000000000001 0  0.05 0.07000000000000001 0  0.06 0.07000000000000001 0  0.07000000000000001 0.07000000000000001 0  0.08 0.07000000000000001 0  0.09 0.07000000000000001 0  0.1 0.07000000000000001 0  0.11 0.07000000000000001 0  0.12 0.07000000000000001 0  0.13 0.07000000000000001 0  0.14 0.07000000000000001 0  0.15 0.07000000000000001 0  0.16 0.07000000000000001 0  0.17 0.0700
[...]
<PointData  Scalars="u"> 
<DataArray  type="Float64"  Name="u"  format="ascii">0.0000000000000000e+00  0.0000000000000000e+00  0.0000000000000000e+00  0.0000000000000000e+00  0.0000000000000000e+00  0.0000000000000000e+00  0.0000000000000000e+00  0.0000000000000000e+00  0.0000000000000000e+00  0.0000000000000000e+00  0.0000000000000000e+00  0.0000000000000000e+00  0.0000000000000000e+00  0.0000000000000000e+00  0.0000000000000000e+00  0.0000000000000000e+00  0.0000000000000000e+00  0.0000000000000000e+00  0.0000000000000000e+00  0.0000000000000000e+00  0.0000000000000000e+00  0.0000000000000000e+00  0.0000000000000000e+00  0.0000000000000000e+00  0.0000000000000000e+00  0.0000000000000000e+00  0.0000000000000000e+00  0.0000000000000000e+00  0.0000000000000000e+00  0.0000000000000000e+00  0.0000000000000000e+00  0.0000000000000000e+00  0.0000000000000000e+00  0.0000000000000000e+00  0.0000000000000000e+00  0.0000000000000000e+00  0.0000000000000000e+00  0.0000000000000000e+00  0.0000000000000000e+00  0.0000000000000000e+00  0.0000000000000000e+00  0.0000000000000000e+00  0.0000000000000000e+00  0.0000000000000000e+00  0.0000000000000000e+00  0.0000000000000000e+00  0.0000000000000000e+00  0.0000000000000000e+00  0.0000000000000000e+00  0.0000000000000000e+00  0.0000000000000000e+00  0.0000000000000000e+00  0.0000000000000000e+00  0.0000000000000000e+00  0.0000000000000000e+00  0.0000000000000000e+00  0.0000000000000000e+00  0.0000000000000000e+00  0.0000000000000000e+00  0.0000000000000000e+00  0.0000000000000000e+00  0.0000000000000000e+00  0.0000000000000000e+00  0.0000000000000000e+00  0.0000000000000000e+00  0.0000000000000000e+00  0.0000000000000000e+00  0.0000000000000000e+00  0.0000000000000000e+00  0.0000000000000000e+00  0.0000000000000000e+00  0.0000000000000000e+00  0.0000000000000000e+00  0.0000000000000000e+00  0.0000000000000000e+00  0.0000000000000000e+00  0.0000000000000000e+00  0.0000000000000000e+00  0.0000000000000000e+00  0.0000000000000000e+00  0.0000000000000000e+00  0.0000000000000000e+00  0.0000000000000000e+00  0.0000000000000000e+00  0.0000000000000000e+00  0.0000000000000000e+00  0.0000000000000000e+00  0.0000000000000000e+00  0.0000000000000000e+00  0.0000000000000000e+00  0.0000000000000000e+00  0.0000000000000000e+00  0.0000000000000000e+00  0.0000000000000000e+00  0.0000000000000000e+00  0.0000000000000000e+00  0.0000000000000000e+00  0.0000000000000000e+00  0.0000000000000000e+00  0.0000000000000000e+00  0.0000000000000000e+00  0.0000000000000000e+00  1.8532041457127395e-05  3.3683387426777619e-05  4.6050708252500445e-05  5.6121152532375219e-05  6.4294112638153339e-05  7.0896550423604516e-05  7.6195758962526437e-05  8.0409965325238509e-05  8.3717125579618100e-05  8.6262209106638101e-05  8.8163223011238548e-05  8.9516187845125442e-05  9.0399242075832361e-05  9.0876023955109518e-05  9.0998454991597172e-05  9.0809028530540537e-05  9.0342689467337969e-05  8.9628376413342136e-05  8.8690285289058781e-05  8.7548902990740811e-05  8.6221851157224753e-05  8.4724572892674012e-05  8.3070889353162284e-05  8.1273448189254297e-05  7.9344081790280946e-05  7.7294089961179723e-05  7.5134458963276797e-05  7.2876026668124765e-05  7.0529601825606008e-05  6.8106044063857463e-05  6.5616310159452568e-05  6.3071471290509609e-05  6.0482705368608196e-05  5.7861268098648757e-05  5.5218446104479616e-05  5.2565495251099647e-05  4.9913567163247819e-05  4.7273626859448823e-05  4.4656364366686827e-05  4.2072103132829459e-05  3.9530707993304773e-05  3.7041495359865336e-05  3.4613148170304770e-05  3.2253637960125080e-05  2.9970156185683628e-05  2.7769056642665152e-05  2.5655810487297482e-05  2.3634974987909978e-05  2.1710176722015928e-05  1.9884109502679461e-05  1.8158546883052866e-05  1.6534368666158993e-05  1.5011600454661828e-05  1.3589464927780433e-05  1.2266443242764604e-05  1.1040344736620197e-05  9.9083829566230244e-06  8.8672559782859871e-06  7.9132289755837976e-06  7.0422170854359926e-06  6.2498667485216988e-06  5.5316339007274381e-06  4.8828576214624230e-06  4.2988281033980312e-06  3.7748480795655138e-06  3.3062871155939119e-06  2.8886284359886510e-06  2.5175081943963148e-06  2.1887473115740369e-06  1.8983761863454977e-06  1.6426527314547194e-06  1.4180742972311863e-06  1.2213841224179410e-06  1.0495729958605663e-06  8.9987682852592261e-07  7.6977082670617833e-07  6.5696092879392108e-07  5.5937312425831087e-07  4.7514121878414983e-07  4.0259354795437104e-07  3.4023907686500716e-07  2.8675325760100588e-07  2.4096395292811152e-07  2.0183767465849595e-07  1.6846633018708488e-07  1.4005462146639672e-07  1.1590819758846827e-07  9.5422625248955169e-08  7.8073210506113960e-08  6.3405680057956558e-08  5.1027710261952144e-08  4.0601276756905289e-08  3.1835786226978485e-08  2.4481943983968653e-08  1.8326306071087518e-08  1.3186461988359739e-08  8.9067934427203932e-09  5.3547553184006182e-09  2.4176269038821347e-09  0.0000000000000000e+00  0.0000000000000000e+00  3.7446242488155532e-05  6.8066115113577899e-05  9.3061208295368200e-05  1.1341631717699285e-04  1.2993870702190970e-04  1.4328916075463996e-04  1.5400780043221666e-04  1.6253553757471248e-04  1.6923186425478055e-04  1.7438958645220223e-04  1.7824700755416666e-04  1.8099798979131091e-04  1.8280025295210867e-04  1.8378221138819298e-04  1.8404860077654114e-04  1.8368510415519993e-04  1.8276215134362263e-04  1.8133803606543776e-04  1.7946147009313449e-04  1.7717367281796888e-04  1.7451007719695080e-04  1.7150171851029947e-04  1.6817636032181389e-04  1.6455940208288163e-04  1.6067460462877356e-04  1.5654466310452127e-04  1.5219165139167978e-04  1.4763735768816012e-04  1.4290352735364580e-04  1.3801202633125870e-04  1.3298493627168280e-04  1.2784459081569122e-04  1.2261356124554097e-04  1.1731459881655358e-04  1.1197054045760100e-04  1.0660418412028979e-04  1.0123813980413579e-04  9.5894662136620449e-05  9.0595470294963057e-05  8.5361560977642104e-05  8.0213020030184257e-05  7.5168838169246434e-05  7.0246736005821710e-05  6.5463003224083699e-05  6.0832356316482324e-05  5.6367818706157269e-05  5.2080626410941784e-05  4.7980161633706546e-05  4.4073915823329170e-05  4.0367482866956585e-05  3.6864582179511018e-05  3.3567110584863436e-05  3.0475221069075344e-05  2.7587425761683629e-05  2.4900719893959412e-05  2.2410723015138964e-05  2.0111833433152947e-05  1.7997391691616442e-05  1.6059848897774249e-05  1.4290935866917582e-05  1.2681829330884075e-05  1.1223311849599537e-05  9.9059225394853228e-06  8.7200962633030246e-06  7.6562894848910120e-06  6.7050915530211645e-06  5.8573207178759544e-06  5.1041046818731524e-06  4.4369459286756227e-06  3.8477724498603798e-06  3.3289747921514688e-06  2.8734305778581750e-06  2.4745178093814815e-06  2.1261183604805895e-06  1.8226130897248767e-06  1.5588699938957345e-06  1.3302267604446108e-06  1.1324689879366158e-06  9.6180523077621016e-07  8.1483989769911803e-07  6.8854489976291271e-07  5.8023080894574312e-07  4.8751815782142418e-07  4.0830938779197981e-07  3.4076184060681519e-07  2.8326208699772626e-07  2.3440179801012969e-07  1.9295528914893927e-07  1.5785880440454713e-07  1.2819155582753924e-07  1.0315849357471699e-07  8.2074750099574379e-08  6.4351679189225698e-08  4.9484394640270128e-08  3.7040703352939765e-08  2.6651322428839654e-08  1.8001268527198789e-08  1.0822309521124339e-08  4.8863734360530456e-09  0.0000000000000000e+00  0.0000000000000000e+00  5.6978303727677539e-05  1.0357324221608937e-04  1.4161284246267934e-04  1.7259630817590885e-04  1.9775237841861476e-04  2.1808662506196650e-04  2.3442081862370116e-04  2.4742562809748988e-04  2.5764773739642578e-04  2.6553229649736189e-04  2.7144148302052790e-04  2.7566982766285143e-04  2.7845685225162740e-04  2.7999747998807406e-04  2.8045060169737640e-04  2.7994611778292127e-04  2.7859072148236875e-04  2.7647264351281280e-04  2.7366554001700234e-04  2.7023167378901640e-04  2.6622451211911455e-04  2.6169084243897386e-04  2.5667248857271738e-04  2.5120769521186451e-04  2.4533223572971967e-04  2.3908028820673362e-04  2.3248511619385664e-04  2.2557958399341849e-04  2.1839653083179596e-04  2.1096902401985417e-04  2.0333050786318436e-04  1.9551486253809760e-04  1.8755638525585762e-04  1.7948970467798487e-04  1.7134963861390438e-04  1.6317100443323865e-04  1.5498839127136213e-04  1.4683590291820754e-04  1.3874688018293872e-04  1.3075361145390997e-04  1.2288704006444877e-04  1.1517647687902509e-04  1.0764932618955301e-04  1.0033083252720482e-04  9.3243855332794339e-05  8.6408677583162284e-05  7.9842853450164000e-05  7.3561098893950371e-05  6.7575227796264466e-05  6.1894134865461830e-05  5.6523825143244971e-05  5.1467488568192691e-05  4.6725616758165688e-05  4.2296158014667651e-05  3.8174705572870960e-05  3.4354713357508511e-05  3.0827732981800081e-05  2.7583665455677091e-05  2.4611021049141382e-05  2.1897180972320545e-05  1.9428654960183491e-05  1.7191329452542326e-05  1.5170701798254442e-05  1.3352096742524453e-05  1.1720862333581210e-05  1.0262543267724034e-05  8.9630305422211912e-06  7.8086870723498407e-06  6.7864496276835696e-06  5.8839080368235630e-06  5.0893630898181366e-06  4.3918649310355324e-06  3.7812339856442311e-06  3.2480666082391740e-06  2.7837276941334403e-06  2.3803324662561675e-06  2.0307195583980397e-06  1.7284173737782427e-06  1.4676055209406541e-06  1.2430729299190978e-06  1.0501740418727312e-06  8.8478425453691855e-07  7.4325560147724243e-07  6.2237345101277623e-07  5.1931483479735496e-07  4.3160885890013447e-07  3.5709951300824885e-07  2.9391107624507586e-07  2.4041622041688678e-07  1.9520683204754357e-07  1.5706751172689375e-07  1.2495166125077155e-07  9.7960033843549881e-08  7.5321598512021056e-08  5.6376554450173778e-08  4.0561323700828505e-08  2.7395348443511556e-08  1.6469521901175440e-08  7.4360872622866836e-09  0.0000000000000000e+00  0.0000000000000000e+00  7.7359599053941627e-05  1.4062660880078654e-04  1.9228449298474572e-04  2.3437020352938998e-04  2.6855273367737609e-04  2.9619754650881406e-04  3.1842017856653155e-04  3.3613075330455602e-04  3.5007088241519930e-04  3.6084420872821936e-04  3.6894164992182601e-04  3.7476223501886488e-04  3.7863028250607948e-04  3.8080954694663340e-04  3.8151485741430287e-04  3.8092168347842337e-04  3.7917399059135179e-04  3.7639068460990836e-04  3.7267089309472618e-04  3.6809828747501582e-04  3.6274461384184570e-04  3.5667256992355566e-04  3.4993814074715205e-04  3.4259248478650837e-04  3.3468344535320734e-04  3.2625674801745578e-04  3.1735693346516441e-04  3.0802806599147158e-04  2.9831425045473274e-04  2.8825998467667111e-04  2.7791036972699910e-04  2.6731119706337165e-04  2.5650892892772030e-04  2.4555058656791634e-04  2.3448355961677879e-04  2.2335534918948124e-04  2.1221325683673734e-04  2.0110403130473682e-04  1.9007348500158614e-04  1.7916609205990210e-04  1.6842457983128138e-04  1.5788952547616066e-04  1.4759896896049518e-04  1.3758805319173369e-04  1.2788870119079983e-04  1.1852933909247712e-04  1.0953467240133485e-04  1.0092552133068981e-04  9.2718719262412788e-05  8.4927076445250665e-05  7.7559409070001377e-05  7.0620631899756219e-05  6.4111910772936422e-05  5.8030869613063144e-05  5.2371845140672584e-05  4.7126181345024496e-05  4.2282554975219168e-05  3.7827322872194443e-05  3.3744881885485347e-05  3.0018032383426991e-05  2.6628336937782382e-05  2.3556466595140796e-05  2.0782528179816929e-05  1.8286367243075581e-05  1.6047842517045019e-05  1.4047068987410837e-05  1.2264627911984520e-05  1.0681743236415450e-05  9.2804248579609470e-06  8.0435800386803802e-06  6.9550949568746280e-06  5.9998889062345037e-06  5.1639440107785554e-06  4.4343135319372903e-06  3.7991119188214564e-06  3.2474897137769241e-06  2.7695962943235988e-06  2.3565332311703770e-06  2.0003007908343934e-06  1.6937398292324362e-06  1.4304710257791303e-06  1.2048331096096946e-06  1.0118214413272105e-06  8.4702804323007742e-07  7.0658392389763179e-07  5.8710432271855654e-07  4.8563730802844355e-07  3.9961599910261203e-07  3.2681454632852430e-07  2.6530789365258771e-07  2.1343526052157935e-07  1.6976721438204817e-07  1.3307615660991224e-07  1.0231001179277832e-07  7.6568889985321316e-08  5.5084481507551218e-08  3.7201941894440093e-08  2.2364028811002316e-08  1.0097261567462278e-08  0.0000000000000000e+00  0.0000000000000000e+00  9.8823036488154890e-05  1.7965064765132802e-04  2.4565875598667750e-04  2.9945189164094625e-04  3.4316329951195745e-04  3.7853760279658416e-04  4.0699954185979061e-04  4.2971102981841932e-04  4.4761843061518852e-04  4.6149167434918930e-04  4.7195657327390669e-04  4.7952148591284312e-04  4.8459929207399113e-04  4.8752548429256649e-04  4.8857304782571644e-04  4.8796468853157005e-04  4.8588287290068737e-04  4.8247806461797395e-04  4.7787547507981593e-04  4.7218058932809196e-04  4.6548368220767960e-04  4.5786350076255477e-04  4.4939025672353813e-04  4.4012804635953543e-04  4.3013679307642275e-04  4.1947379020575403e-04  4.0819490680070111e-04  3.9635550742204512e-04  3.8401112741043812e-04  3.7121793763118468e-04  3.5803302683060345e-04  3.4451452529158055e-04  3.3072159018973613e-04  3.1671427072896903e-04  3.0255326959577371e-04  2.8829961635188403e-04  2.7401426793280484e-04  2.5975765129388834e-04  2.4558916331236596e-04  2.3156664318859911e-04  2.1774583267794283e-04  2.0417983942367374e-04  1.9091861836400959e-04  1.7800848558364809e-04  1.6549167802526926e-04  1.5340597114638256e-04  1.4178436490506680e-04  1.3065484641447731e-04  1.2004023527565880e-04  1.0995811505892565e-04  1.0042085175135031e-04  9.1435697329139468e-05  8.3004974060954271e-05  7.5126332810849516e-05  6.7793076586370675e-05  6.0994538950406316e-05  5.4716505744107491e-05  4.8941667886117984e-05  4.3650092826546441e-05  3.8819702521843185e-05  3.4426746514142236e-05  3.0446259781015306e-05  2.6852496389967348e-05  2.3619331559231502e-05  2.0720626403331079e-05  1.8130551343043012e-05  1.5823865807896485e-05  1.3776153390436596e-05  1.1964012974873113e-05  1.0365207523584432e-05  8.9587731436283809e-06  7.7250917663085088e-06  6.6459312623871706e-06  5.7044570997960336e-06  4.8852197527731902e-06  4.1741220188295311e-06  3.5583702225015484e-06  3.0264130122798488e-06  2.5678711177079723e-06  2.1734610530577749e-06  1.8349153544112769e-06  1.5449015368145245e-06  1.2969415719245428e-06  1.0853333250298072e-06  9.0507506087131958e-07  7.5179383475288462e-07  6.2167833096181276e-07  5.1141649451469120e-07  4.1813812319384103e-07  3.3936244218690646e-07  2.7295057013779878e-07  2.1706269944172589e-07  1.7011975142382372e-07  1.3076922494582546e-07  9.7854931500638558e-08  7.0390297779192016e-08  4.7534915165182044e-08  2.8574022143512109e-08  1.2900618163025867e-08  0.0000000000000000e+00  0.0000000000000000e+00  1.2160412612831341e-04  2.2107456229908414e-04  3.0232493345697190e-04  3.6856377382576521e-04  4.2241786077351786e-04  4.6603446562660421e-04  5.0116632952448988e-04  5.2924215642535658e-04  5.5142499460430127e-04  5.6866051379260657e-04  5.8171687119739550e-04  5.9121759033969195e-04  5.9766864663166660e-04  6.0148075793792569e-04  6.0298771251092692e-04  6.0246142658048490e-04  6.0012430587830365e-04  5.9615938628372145e-04  5.9071864577998543e-04  5.8392981057364137e-04  5.7590192044946575e-04  5.6672987040569736e-04  5.5649810580039741e-04  5.4528361533357427e-04  5.3315833908847024e-04  5.2019108663103203e-04  5.0644904204117508e-04  4.9199891807209621e-04  4.7690780986056261e-04  4.6124378928621138e-04  4.4507627381835284e-04  4.2847619816955846e-04  4.1151601301718001e-04  3.9426953221272662e-04  3.7681164805652859e-04  3.5921793317222325e-04  3.4156414708652849e-04  3.2392566562868474e-04  3.0637685154304145e-04  2.8899038509776529e-04  2.7183657382246509e-04  2.5498266068028902e-04  2.3849214985528867e-04  2.2242416881483999e-04  2.0683288431757140e-04  1.9176698853862071e-04  1.7726926946949175e-04  1.6337627724868851e-04  1.5011809515635808e-04  1.3751822075841824e-04  1.2559355923687240e-04  1.1435452743609504e-04  1.0380526374216395e-04  9.3943935745280895e-05  8.4763134853819180e-05  7.6250344751114439e-05  6.8388468901919649e-05  6.1156401278570561e-05  5.4529624103698062e-05  4.8480816675674945e-05  4.2980460199608325e-05  3.7997424906816433e-05  3.3499527504629826e-05  2.9454049038849370e-05  2.5828205452330242e-05  2.2589565368308427e-05  1.9706411810781589e-05  1.7148046607420874e-05  1.4885038033745038e-05  1.2889413802424399e-05  1.1134802751290307e-05  9.5965295298322575e-06  8.2516672351243275e-06  7.0790533258599990e-06  6.0592742786819647e-06  5.1746243814732083e-06  4.4090438237074071e-06  3.7480408843446692e-06  3.1786025709625697e-06  2.6890975639754499e-06  2.2691747963533240e-06  1.9096604764452733e-06  1.6024558583189499e-06  1.3404375944158120e-06  1.1173620787251743e-06  9.2777481061432804e-07  7.6692548218715799e-07  6.3068921528761851e-07  5.1549414580407993e-07  4.1825536920947085e-07  3.3631511788510820e-07  2.6738893287673739e-07  2.0951751535245877e-07  1.6102389132671787e-07  1.2047549262509206e-07  8.6650743434629076e-08  5.8509741421670656e-08  3.5168632104287177e-08  1.5877292260944091e-08  0.0000000000000000e+00  0.0000000000000000e+00  1.4594188835970250e-04  2.6533403083307659e-04  3.6288141029581605e-04  4.4243972548906318e-04  5.0716394888384610e-04  5.5963177934272663e-04  6.0194616834401778e-04  6.3582031687260242e-04  6.6264802513764647e-04  6.8356183210179422e-04  6.9948099868572108e-04  7.1115106031141280e-04  7.1917639448488256e-04  7.2404701123112097e-04  7.2616057277470267e-04  7.2584047887205199e-04  7.2335071116885318e-04  7.1890800993659482e-04  7.1269185609238524e-04  7.0485264754051975e-04  6.9551838902075734e-04  6.8480015660450145e-04  6.7279654987046256e-04  6.5959730502710291e-04  6.4528620949046568e-04  6.2994343154839933e-04  6.1364735680509658e-04  5.9647600531907707e-04  5.7850808906996835e-04  5.5982375807034964e-04  5.4050507462295868e-04  5.2063624852647684e-04  5.0030366112627093e-04  4.7959570270355418e-04  4.5860244554160823e-04  4.3741517386669532e-04  4.1612579151343714e-04  3.9482612839820676e-04  3.7360716749387964e-04  3.5255821478530114e-04  3.3176603545471566e-04  3.1131398011943881e-04  2.9128112515659619e-04  2.7174145086235948e-04  2.5276308029767327e-04  2.3440760009941917e-04  2.1672948225983502e-04  1.9977562292026335e-04  1.8358501065883506e-04  1.6818853269234376e-04  1.5360892301673453e-04  1.3986085196466679e-04  1.2695115216635380e-04  1.1487917166837566e-04  1.0363724118979494e-04  9.3211239345329159e-05  8.3581237273399914e-05  7.4722202557962638e-05  6.6604741661101567e-05  5.9195860270724135e-05  5.2459721948531048e-05  4.6358387131424017e-05  4.0852516757802254e-05  3.5902027403219433e-05  3.1466687655361127e-05  2.7506648378739310e-05  2.3982902371743332e-05  2.0857671581434222e-05  1.8094722419998192e-05  1.5659611755099066e-05  1.3519867786924222e-05  1.1645111266111102e-05  1.0007123360000457e-05  8.5798669686245109e-06  7.3394684681770614e-06  6.2641667680758787e-06  5.3342362613188120e-06  4.5318897797095545e-06  3.8411670856695648e-06  3.2478137856151289e-06  2.7391548746983138e-06  2.3039664505213784e-06  1.9323484886291272e-06  1.6156009729146679e-06  1.3461051313270242e-06  1.1172110481201132e-06  9.2313251081401590e-07  7.5884960225982670e-07  6.2001926249336100e-07  5.0289381655300759e-07  4.0424728722389017e-07  3.2130917935914101e-07  2.5170532853369451e-07  1.9340534503221270e-07  1.4467614870496699e-07  1.0404107573914817e-07  7.0244040203602702e-08  4.2218247289908498e-08  1.9058978099409221e-08  0.0000000000000000e+00  0.0000000000000000e+00  1.7207952710248796e-04  3.1287245286264274e-04  4.2793739947461721e-04  5.2182728561460596e-04  5.9826544192811038e-04  6.6029215337054970e-04  7.1038626894893184e-04  7.5056594579134240e-04  7.8247197405239828e-04  8.0743659358029551e-04  8.2654025305287440e-04  8.4065836863010278e-04  8.5049980383695143e-04  8.5663850782190861e-04  8.5953950848138133e-04  8.5958025406541170e-04  8.5706812634980291e-04  8.5225480549924661e-04  8.4534804719425957e-04  8.3652133285063346e-04  8.2592177072698665e-04  8