<?xml version="1.0"?>
<VTKFile type="UnstructuredGrid"  version="0.1"  >
<UnstructuredGrid>
<Piece  NumberOfPoints="10201" NumberOfCells="20000">
<Points>
<DataArray  type="Float64"  NumberOfComponents="3"  format="ascii">0 0 0  0.01 0 0  0.02 0 0  0.03 0 0  0.04 0 0  0.05 0 0  0.06 0 0  0.07000000000000001 0 0  0.08 0 0  0.09 0 0  0.1 0 0  0.11 0 0  0.12 0 0  0.13 0 0  0.14 0 0  0.15 0 0  0.16 0 0  0.17 0 0  0.18 0 0  0.19 0 0  0.2 0 0  0.21 0 0  0.22 0 0  0.23 0 0  0.24 0 0  0.25 0 0  0.26 0 0  0.27 0 0  0.28 0 0  0.29 0 0  0.3 0 0  0.31 0 0  0.32 0 0  0.33 0 0  0.34 0 0  0.35 0 0  0.36 0 0  0.37 0 0  0.38 0 0  0.39 0 0  0.4 0 0  0.41 0 0  0.42 0 0  0.43 0 0  0.44 0 0  0.45 0 0  0.46 0 0  0.47 0 0  0.48 0 0  0.49 0 0  0.5 0 0  0.51 0 0  0.52 0 0  0.53 0 0  0.54 0 0  0.55 0 0  0.5600000000000001 0 0  0.57 0 0  0.58 0 0  0.59 0 0  0.6 0 0  0.61 0 0  0.62 0 0  0.63 0 0  0.64 0 0  0.65 0 0  0.66 0 0  0.67 0 0  0.68 0 0  0.6899999999999999 0 0  0.7 0 0  0.71 0 0  0.72 0 0  0.73 0 0  0.74 0 0  0.75 0 0  0.76 0 0  0.77 0 0  0.78 0 0  0.79 0 0  0.8 0 0  0.8100000000000001 0 0  0.82 0 0  0.83 0 0  0.84 0 0  0.85 0 0  0.86 0 0  0.87 0 0  0.88 0 0  0.89 0 0  0.9 0 0  0.91 0 0  0.92 0 0  0.93 0 0  0.9399999999999999 0 0  0.95 0 0  0.96 0 0  0.97 0 0  0.98 0 0  0.99 0 0  1 0 0  0 0.01 0  0.01 0.01 0  0.02 0.01 0  0.03 0.01 0  0.04 0.01 0  0.05 0.01 0  0.06 0.01 0  0.07000000000000001 0.01 0  0.08 0.01 0  0.09 0.01 0  0.1 0.01 0  0.11 0.01 0  0.12 0.01 0  0.13 0.01 0  0.14 0.01 0  0.15 0.01 0  0.16 0.01 0  0.17 0.01 0  0.18 0.01 0  0.19 0.01 0  0.2 0.01 0  0.21 0.01 0  0.22 0.01 0  0.23 0.01 0  0.24 0.01 0  0.25 0.01 0  0.26 0.01 0  0.27 0.01 0  0.28 0.01 0  0.29 0.01 0  0.3 0.01 0  0.31 0.01 0  0.32 0.01 0  0.33 0.01 0  0.34 0.01 0  0.35 0.01 0  0.36 0.01 0  0.37 0.01 0  0.38 0.01 0  0.39 0.01 0  0.4 0.01 0  0.41 0.01 0  0.42 0.01 0  0.43 0.01 0  0.44 0.01 0  0.45 0.01 0  0.46 0.01 0  0.47 0.01 0  0.48 0.01 0  0.49 0.01 0  0.5 0.01 0  0.51 0.01 0  0.52 0.01 0  0.53 0.01 0  0.54 0.01 0  0.55 0.01 0  0.5600000000000001 0.01 0  0.57 0.01 0  0.58 0.01 0  0.59 0.01 0  0.6 0.01 0  0.61 0.01 0  0.62 0.01 0  0.63 0.01 0  0.64 0.01 0  0.65 0.01 0  0.66 0.01 0  0.67 0.01 0  0.68 0.01 0  0.6899999999999999 0.01 0  0.7 0.01 0  0.71 0.01 0  0.72 0.01 0  0.73 0.01 0  0.74 0.01 0  0.75 0.01 0  0.76 0.01 0  0.77 0.01 0  0.78 0.01 0  0.79 0.01 0  0.8 0.01 0  0.8100000000000001 0.01 0  0.82 0.01 0  0.83 0.01 0  0.84 0.01 0  0.85 0.01 0  0.86 0.01 0  0.87 0.01 0  0.88 0.01 0  0.89 0.01 0  0.9 0.01 0  0.91 0.01 0  0.92 0.01 0  0.93 0.01 0  0.9399999999999999 0.01 0  0.95 0.01 0  0.96 0.01 0  0.97 0.01 0  0.98 0.01 0  0.99 0.01 0  1 0.01 0  0 0.02 0  0.01 0.02 0  0.02 0.02 0  0.03 0.02 0  0.04 0.02 0  0.05 0.02 0  0.06 0.02 0  0.07000000000000001 0.02 0  0.08 0.02 0  0.09 0.02 0  0.1 0.02 0  0.11 0.02 0  0.12 0.02 0  0.13 0.02 0  0.14 0.02 0  0.15 0.02 0  0.16 0.02 0  0.17 0.02 0  0.18 0.02 0  0.19 0.02 0  0.2 0.02 0  0.21 0.02 0  0.22 0.02 0  0.23 0.02 0  0.24 0.02 0  0.25 0.02 0  0.26 0.02 0  0.27 0.02 0  0.28 0.02 0  0.29 0.02 0  0.3 0.02 0  0.31 0.02 0  0.32 0.02 0  0.33 0.02 0  0.34 0.02 0  0.35 0.02 0  0.36 0.02 0  0.37 0.02 0  0.38 0.02 0  0.39 0.02 0  0.4 0.02 0  0.41 0.02 0  0.42 0.02 0  0.43 0.02 0  0.44 0.02 0  0.45 0.02 0  0.46 0.02 0  0.47 0.02 0  0.48 0.02 0  0.49 0.02 0  0.5 0.02 0  0.51 0.02 0  0.52 0.02 0  0.53 0.02 0  0.54 0.02 0  0.55 0.02 0  0.5600000000000001 0.02 0  0.57 0.02 0  0.58 0.02 0  0.59 0.02 0  0.6 0.02 0  0.61 0.02 0  0.62 0.02 0  0.63 0.02 0  0.64 0.02 0  0.65 0.02 0  0.66 0.02 0  0.67 0.02 0  0.68 0.02 0  0.6899999999999999 0.02 0  0.7 0.02 0  0.71 0.02 0  0.72 0.02 0  0.73 0.02 0  0.74 0.02 0  0.75 0.02 0  0.76 0.02 0  0.77 0.02 0  0.78 0.02 0  0.79 0.02 0  0.8 0.02 0  0.8100000000000001 0.02 0  0.82 0.02 0  0.83 0.02 0  0.84 0.02 0  0.85 0.02 0  0.86 0.02 0  0.87 0.02 0  0.88 0.02 0  0.89 0.02 0  0.9 0.02 0  0.91 0.02 0  0.92 0.02 0  0.93 0.02 0  0.9399999999999999 0.02 0  0.95 0.02 0  0.96 0.02 0  0.97 0.02 0  0.98 0.02 0  0.99 0.02 0  1 0.02 0  0 0.03 0  0.01 0.03 0  0.02 0.03 0  0.03 0.03 0  0.04 0.03 0  0.05 0.03 0  0.06 0.03 0  0.07000000000000001 0.03 0  0.08 0.03 0  0.09 0.03 0  0.1 0.03 0  0.11 0.03 0  0.12 0.03 0  0.13 0.03 0  0.14 0.03 0  0.15 0.03 0  0.16 0.03 0  0.17 0.03 0  0.18 0.03 0  0.19 0.03 0  0.2 0.03 0  0.21 0.03 0  0.22 0.03 0  0.23 0.03 0  0.24 0.03 0  0.25 0.03 0  0.26 0.03 0  0.27 0.03 0  0.28 0.03 0  0.29 0.03 0  0.3 0.03 0  0.31 0.03 0  0.32 0.03 0  0.33 0.03 0  0.34 0.03 0  0.35 0.03 0  0.36 0.03 0  0.37 0.03 0  0.38 0.03 0  0.39 0.03 0  0.4 0.03 0  0.41 0.03 0  0.42 0.03 0  0.43 0.03 0  0.44 0.03 0  0.45 0.03 0  0.46 0.03 0  0.47 0.03 0  0.48 0.03 0  0.49 0.03 0  0.5 0.03 0  0.51 0.03 0  0.52 0.03 0  0.53 0.03 0  0.54 0.03 0  0.55 0.03 0  0.5600000000000001 0.03 0  0.57 0.03 0  0.58 0.03 0  0.59 0.03 0  0.6 0.03 0  0.61 0.03 0  0.62 0.03 0  0.63 0.03 0  0.64 0.03 0  0.65 0.03 0  0.66 0.03 0  0.67 0.03 0  0.68 0.03 0  0.6899999999999999 0.03 0  0.7 0.03 0  0.71 0.03 0  0.72 0.03 0  0.73 0.03 0  0.74 0.03 0  0.75 0.03 0  0.76 0.03 0  0.77 0.03 0  0.78 0.03 0  0.79 0.03 0  0.8 0.03 0  0.8100000000000001 0.03 0  0.82 0.03 0  0.83 0.03 0  0.84 0.03 0  0.85 0.03 0  0.86 0.03 0  0.87 0.03 0  0.88 0.03 0  0.89 0.03 0  0.9 0.03 0  0.91 0.03 0  0.92 0.03 0  0.93 0.03 0  0.9399999999999999 0.03 0  0.95 0.03 0  0.96 0.03 0  0.97 0.03 0  0.98 0.03 0  0.99 0.03 0  1 0.03 0  0 0.04 0  0.01 0.04 0  0.02 0.04 0  0.03 0.04 0  0.04 0.04 0  0.05 0.04 0  0.06 0.04 0  0.07000000000000001 0.04 0  0.08 0.04 0  0.09 0.04 0  0.1 0.04 0  0.11 0.04 0  0.12 0.04 0  0.13 0.04 0  0.14 0.04 0  0.15 0.04 0  0.16 0.04 0  0.17 0.04 0  0.18 0.04 0  0.19 0.04 0  0.2 0.04 0  0.21 0.04 0  0.22 0.04 0  0.23 0.04 0  0.24 0.04 0  0.25 0.04 0  0.26 0.04 0  0.27 0.04 0  0.28 0.04 0  0.29 0.04 0  0.3 0.04 0  0.31 0.04 0  0.32 0.04 0  0.33 0.04 0  0.34 0.04 0  0.35 0.04 0  0.36 0.04 0  0.37 0.04 0  0.38 0.04 0  0.39 0.04 0  0.4 0.04 0  0.41 0.04 0  0.42 0.04 0  0.43 0.04 0  0.44 0.04 0  0.45 0.04 0  0.46 0.04 0  0.47 0.04 0  0.48 0.04 0  0.49 0.04 0  0.5 0.04 0  0.51 0.04 0  0.52 0.04 0  0.53 0.04 0  0.54 0.04 0  0.55 0.04 0  0.5600000000000001 0.04 0  0.57 0.04 0  0.58 0.04 0  0.59 0.04 0  0.6 0.04 0  0.61 0.04 0  0.62 0.04 0  0.63 0.04 0  0.64 0.04 0  0.65 0.04 0  0.66 0.04 0  0.67 0.04 0  0.68 0.04 0  0.6899999999999999 0.04 0  0.7 0.04 0  0.71 0.04 0  0.72 0.04 0  0.73 0.04 0  0.74 0.04 0  0.75 0.04 0  0.76 0.04 0  0.77 0.04 0  0.78 0.04 0  0.79 0.04 0  0.8 0.04 0  0.8100000000000001 0.04 0  0.82 0.04 0  0.83 0.04 0  0.84 0.04 0  0.85 0.04 0  0.86 0.04 0  0.87 0.04 0  0.88 0.04 0  0.89 0.04 0  0.9 0.04 0  0.91 0.04 0  0.92 0.04 0  0.93 0.04 0  0.9399999999999999 0.04 0  0.95 0.04 0  0.96 0.04 0  0.97 0.04 0  0.98 0.04 0  0.99 0.04 0  1 0.04 0  0 0.05 0  0.01 0.05 0  0.02 0.05 0  0.03 0.05 0  0.04 0.05 0  0.05 0.05 0  0.06 0.05 0  0.07000000000000001 0.05 0  0.08 0.05 0  0.09 0.05 0  0.1 0.05 0  0.11 0.05 0  0.12 0.05 0  0.13 0.05 0  0.14 0.05 0  0.15 0.05 0  0.16 0.05 0  0.17 0.05 0  0.18 0.05 0  0.19 0.05 0  0.2 0.05 0  0.21 0.05 0  0.22 0.05 0  0.23 0.05 0  0.24 0.05 0  0.25 0.05 0  0.26 0.05 0  0.27 0.05 0  0.28 0.05 0  0.29 0.05 0  0.3 0.05 0  0.31 0.05 0  0.32 0.05 0  0.33 0.05 0  0.34 0.05 0  0.35 0.05 0  0.36 0.05 0  0.37 0.05 0  0.38 0.05 0  0.39 0.05 0  0.4 0.05 0  0.41 0.05 0  0.42 0.05 0  0.43 0.05 0  0.44 0.05 0  0.45 0.05 0  0.46 0.05 0  0.47 0.05 0  0.48 0.05 0  0.49 0.05 0  0.5 0.05 0  0.51 0.05 0  0.52 0.05 0  0.53 0.05 0  0.54 0.05 0  0.55 0.05 0  0.5600000000000001 0.05 0  0.57 0.05 0  0.58 0.05 0  0.59 0.05 0  0.6 0.05 0  0.61 0.05 0  0.62 0.05 0  0.63 0.05 0  0.64 0.05 0  0.65 0.05 0  0.66 0.05 0  0.67 0.05 0  0.68 0.05 0  0.6899999999999999 0.05 0  0.7 0.05 0  0.71 0.05 0  0.72 0.05 0  0.73 0.05 0  0.74 0.05 0  0.75 0.05 0  0.76 0.05 0  0.77 0.05 0  0.78 0.05 0  0.79 0.05 0  0.8 0.05 0  0.8100000000000001 0.05 0  0.82 0.05 0  0.83 0.05 0  0.84 0.05 0  0.85 0.05 0  0.86 0.05 0  0.87 0.05 0  0.88 0.05 0  0.89 0.05 0  0.9 0.05 0  0.91 0.05 0  0.92 0.05 0  0.93 0.05 0  0.9399999999999999 0.05 0  0.95 0.05 0  0.96 0.05 0  0.97 0.05 0  0.98 0.05 0  0.99 0.05 0  1 0.05 0  0 0.06 0  0.01 0.06 0  0.02 0.06 0  0.03 0.06 0  0.04 0.06 0  0.05 0.06 0  0.06 0.06 0  0.07000000000000001 0.06 0  0.08 0.06 0  0.09 0.06 0  0.1 0.06 0  0.11 0.06 0  0.12 0.06 0  0.13 0.06 0  0.14 0.06 0  0.15 0.06 0  0.16 0.06 0  0.17 0.06 0  0.18 0.06 0  0.19 0.06 0  0.2 0.06 0  0.21 0.06 0  0.22 0.06 0  0.23 0.06 0  0.24 0.06 0  0.25 0.06 0  0.26 0.06 0  0.27 0.06 0  0.28 0.06 0  0.29 0.06 0  0.3 0.06 0  0.31 0.06 0  0.32 0.06 0  0.33 0.06 0  0.34 0.06 0  0.35 0.06 0  0.36 0.06 0  0.37 0.06 0  0.38 0.06 0  0.39 0.06 0  0.4 0.06 0  0.41 0.06 0  0.42 0.06 0  0.43 0.06 0  0.44 0.06 0  0.45 0.06 0  0.46 0.06 0  0.47 0.06 0  0.48 0.06 0  0.49 0.06 0  0.5 0.06 0  0.51 0.06 0  0.52 0.06 0  0.53 0.06 0  0.54 0.06 0  0.55 0.06 0  0.5600000000000001 0.06 0  0.57 0.06 0  0.58 0.06 0  0.59 0.06 0  0.6 0.06 0  0.61 0.06 0  0.62 0.06 0  0.63 0.06 0  0.64 0.06 0  0.65 0.06 0  0.66 0.06 0  0.67 0.06 0  0.68 0.06 0  0.6899999999999999 0.06 0  0.7 0.06 0  0.71 0.06 0  0.72 0.06 0  0.73 0.06 0  0.74 0.06 0  0.75 0.06 0  0.76 0.06 0  0.77 0.06 0  0.78 0.06 0  0.79 0.06 0  0.8 0.06 0  0.8100000000000001 0.06 0  0.82 0.06 0  0.83 0.06 0  0.84 0.06 0  0.85 0.06 0  0.86 0.06 0  0.87 0.06 0  0.88 0.06 0  0.89 0.06 0  0.9 0.06 0  0.91 0.06 0  0.92 0.06 0  0.93 0.06 0  0.9399999999999999 0.06 0  0.95 0.06 0  0.96 0.06 0  0.97 0.06 0  0.98 0.06 0  0.99 0.06 0  1 0.06 0  0 0.07000000000000001 0  0.01 0.07000000000000001 0  0.02 0.07000000000000001 0  0.03 0.07000000000000001 0  0.04 0.07000000000000001 0  0.05 0.07000000000000001 0  0.06 0.07000000000000001 0  0.07000000000000001 0.07000000000000001 0  0.08 0.07000000000000001 0  0.09 0.07000000000000001 0  0.1 0.07000000000000001 0  0.11 0.07000000000000001 0  0.12 0.07000000000000001 0  0.13 0.07000000000000001 0  0.14 0.07000000000000001 0  0.15 0.07000000000000001 0  0.16 0.07000000000000001 0  0.17 0.0700
[...]
<PointData  Scalars="u"> 
<DataArray  type="Float64"  Name="u"  format="ascii">0.0000000000000000e+00  0.0000000000000000e+00  0.0000000000000000e+00  0.0000000000000000e+00  0.0000000000000000e+00  0.0000000000000000e+00  0.0000000000000000e+00  0.0000000000000000e+00  0.0000000000000000e+00  0.0000000000000000e+00  0.0000000000000000e+00  0.0000000000000000e+00  0.0000000000000000e+00  0.0000000000000000e+00  0.0000000000000000e+00  0.0000000000000000e+00  0.0000000000000000e+00  0.0000000000000000e+00  0.0000000000000000e+00  0.0000000000000000e+00  0.0000000000000000e+00  0.0000000000000000e+00  0.0000000000000000e+00  0.0000000000000000e+00  0.0000000000000000e+00  0.0000000000000000e+00  0.0000000000000000e+00  0.0000000000000000e+00  0.0000000000000000e+00  0.0000000000000000e+00  0.0000000000000000e+00  0.0000000000000000e+00  0.0000000000000000e+00  0.0000000000000000e+00  0.0000000000000000e+00  0.0000000000000000e+00  0.0000000000000000e+00  0.0000000000000000e+00  0.0000000000000000e+00  0.0000000000000000e+00  0.0000000000000000e+00  0.0000000000000000e+00  0.0000000000000000e+00  0.0000000000000000e+00  0.0000000000000000e+00  0.0000000000000000e+00  0.0000000000000000e+00  0.0000000000000000e+00  0.0000000000000000e+00  0.0000000000000000e+00  0.0000000000000000e+00  0.0000000000000000e+00  0.0000000000000000e+00  0.0000000000000000e+00  0.0000000000000000e+00  0.0000000000000000e+00  0.0000000000000000e+00  0.0000000000000000e+00  0.0000000000000000e+00  0.0000000000000000e+00  0.0000000000000000e+00  0.0000000000000000e+00  0.0000000000000000e+00  0.0000000000000000e+00  0.0000000000000000e+00  0.0000000000000000e+00  0.0000000000000000e+00  0.0000000000000000e+00  0.0000000000000000e+00  0.0000000000000000e+00  0.0000000000000000e+00  0.0000000000000000e+00  0.0000000000000000e+00  0.0000000000000000e+00  0.0000000000000000e+00  0.0000000000000000e+00  0.0000000000000000e+00  0.0000000000000000e+00  0.0000000000000000e+00  0.0000000000000000e+00  0.0000000000000000e+00  0.0000000000000000e+00  0.0000000000000000e+00  0.0000000000000000e+00  0.0000000000000000e+00  0.0000000000000000e+00  0.0000000000000000e+00  0.0000000000000000e+00  0.0000000000000000e+00  0.0000000000000000e+00  0.0000000000000000e+00  0.0000000000000000e+00  0.0000000000000000e+00  0.0000000000000000e+00  0.0000000000000000e+00  0.0000000000000000e+00  0.0000000000000000e+00  0.0000000000000000e+00  0.0000000000000000e+00  0.0000000000000000e+00  0.0000000000000000e+00  0.0000000000000000e+00  3.0341530915940009e-16  6.7782534280653879e-16  1.1807225966528485e-15  1.8900290875648840e-15  2.9151063837751771e-15  4.4114288583209090e-15  6.6008464634306652e-15  9.7995127489759773e-15  1.4456181473444918e-14  2.1204347893650393e-14  3.0932640610096680e-14  4.4878956370111012e-14  6.4755054701169651e-14  9.2909645443843727e-14  1.3253932555376076e-13  1.8795791657479484e-13  2.6493562227891832e-13  3.7111969429240244e-13  5.1654760878455701e-13  7.1426168776367856e-13  9.8103014914356130e-13  1.3381732153563174e-12  1.8124836519151348e-12  2.4372185549111869e-12  3.2531231884993251e-12  4.3094283694797306e-12  5.6647409807420597e-12  7.3877239755679292e-12  9.5574397530079106e-12  1.2263211853528034e-11  1.5603848056010637e-11  1.9686067151743908e-11  2.4621986039168508e-11  3.0525557003322743e-11  3.7507899679598231e-11  4.5671548945986991e-11  5.5103736942798937e-11  6.5868939541954057e-11  7.8001036466735697e-11  9.1495548351207662e-11  1.0630250944502493e-10  1.2232059657421767e-10  1.3939314943028576e-10  1.5730667340976287e-10  1.7579230839312320e-10  1.9453057630876460e-10  2.1315949627957442e-10  2.3128589566292547e-10  2.4849947202105384e-10  2.6438890279797313e-10  2.7855908485430354e-10  2.9064844070884349e-10  3.0034517149076335e-10  3.0740137793092158e-10  3.1164410887130392e-10  3.1298261925987113e-10  3.1141140428858881e-10  3.0700889429595008e-10  2.9993201432231279e-10  2.9040710182227107e-10  2.7871790979678849e-10  2.6519158192463251e-10  2.5018356183789564e-10  2.3406239075894557e-10  2.1719526515059186e-10  1.9993508431486776e-10  1.8260953657113375e-10  1.6551257266874178e-10  1.4889841622500656e-10  1.3297807990681370e-10  1.1791820510467041e-10  1.0384192938784361e-10  9.0831412710790664e-11  7.8931618668976707e-11  6.8154946428538381e-11  5.8486335593127487e-11  4.9888512587160757e-11  4.2307105483560005e-11  3.5675417652834666e-11  2.9918713408468080e-11  2.4957926636602544e-11  2.0712753340249318e-11  1.7104129544308805e-11  1.4056126657375778e-11  1.1497317582022296e-11  9.3616796026157801e-12  7.5891056905457720e-12  6.1255958126690648e-12  4.9231955443730786e-12  3.9397420754696612e-12  3.1384686666285458e-12  2.4875086753453796e-12  1.9593301604227806e-12  1.5301224311193161e-12  1.1791473957738702e-12  8.8806206159649616e-13  6.4021538733343007e-13  4.1992495853933783e-13  2.1174843849664095e-13  0.0000000000000000e+00  0.0000000000000000e+00  6.0141151927301652e-16  1.3446625324800237e-15  2.3444668994745742e-15  3.7570489930824913e-15  5.8020533122945596e-15  8.7923346295568469e-15  1.3175175424389342e-14  1.9589223705734349e-14  2.8942751107951056e-14  4.2520454220578786e-14  6.2127985512790587e-14  9.0285707646999818e-14  1.3048578294740501e-13  1.8752954808129174e-13  2.6796501195543588e-13  3.8064697430396015e-13  5.3744427986082360e-13  7.5411952426793875e-13  1.0514053622657318e-12  1.4562975100415602e-12  2.0035765086782073e-12  2.7375571716643359e-12  3.7140452614794518e-12  5.0024544272172654e-12  6.6880023364182642e-12  8.8738635391609467e-12  1.1683109260700297e-11  1.5260213751381640e-11  1.9771857363784746e-11  2.5406714224134396e-11  3.2373884847588916e-11  4.0899630088040699e-11  5.1222091522541293e-11  6.3583753010455204e-11  7.8221514645053999e-11  9.5354415496120114e-11  1.1516925161696622e-10  1.3780458000188573e-10  1.6333385926331245e-10  1.9174872844281121e-10  2.2294363595407730e-10  2.5670316828308511e-10  2.9269346173137366e-10  3.3045898589202231e-10  3.6942575192956972e-10  4.0891162480466118e-10  4.4814392676407099e-10  4.8628394769167694e-10  5.2245737894689753e-10  5.5578912293476827e-10  5.8544046434333978e-10  6.1064627742537246e-10  6.3074982865803220e-10  6.4523283606881172e-10  6.5373876114557723e-10  6.5608780742096451e-10  6.5228273116854658e-10  6.4250526916321118e-10  6.2710368503758503e-10  6.0657256132472441e-10  5.8152646201525476e-10  5.5266942108731766e-10  5.2076235762029096e-10  4.8659048065691452e-10  4.5093254857597719e-10  4.1453352416148857e-10  3.7808176188165323e-10  3.4219142441075388e-10  3.0739039418449180e-10  2.7411355838462652e-10  2.4270102778816240e-10  2.1340061601179940e-10  1.8637376000393195e-10  1.6170400050839790e-10  1.3940715139389338e-10  1.1944235388845669e-10  1.0172331887705440e-10  8.6129190843987179e-11  7.2514605934482552e-11  6.0718651905890959e-11  5.0572560561541062e-11  4.1906067911061649e-11  3.4552460938146172e-11  2.8352391983341525e-11  2.3156583618343040e-11  1.8827570909833066e-11  1.5240637182560926e-11  1.2284097024357102e-11  9.8590694333089327e-12  7.8788674545566133e-12  6.2681107115252751e-12  4.9616457659770217e-12  3.9033377191717703e-12  3.0447761430657280e-12  2.3439205939057875e-12  1.7636973361214574e-12  1.2705522451214260e-12  8.3296983058705274e-13  4.1999293968144369e-13  0.0000000000000000e+00  0.0000000000000000e+00  9.3734334395576012e-16  2.0976672652978172e-15  3.6622032673697654e-15  5.8785443684329912e-15  9.0957814519127804e-15  1.3812601799371343e-14  2.0744065825363325e-14  3.0914170363512303e-14  4.5783517518437720e-14  6.7424167328018076e-14  9.8757113814899950e-14  1.4387180637341115e-13  2.0845170024769027e-13  3.0033482534952198e-13  4.3024354011081402e-13  6.1272253022683522e-13  8.6732802857601677e-13  1.2201131953569994e-12  1.7054533105225238e-12  2.3682482722976582e-12  3.2665269588213510e-12  4.4744562099384956e-12  6.0857244574723770e-12  8.2172246326206678e-12  1.1012901906972796e-11  1.4647559339738240e-11  1.9330330719756459e-11  2.5307439356693866e-11  3.2863771760617578e-11  4.2322716677087307e-11  5.4043666427398036e-11  6.8416564810855404e-11  8.5852930679814811e-11  1.0677290414849210e-10  1.3158806466909179e-10  1.6068006117445731e-10  1.9437546817393690e-10  2.3291771941597247e-10  2.7643743990958776e-10  3.2492295194588657e-10  3.7819311537324156e-10  4.3587491627805592e-10  4.9738828406741092e-10  5.6194044956762718e-10  6.2853173218075524e-10  6.9597396708507583e-10  7.6292189154992660e-10  8.2791677293216198e-10  8.8944047729682923e-10  9.4597716109954765e-10  9.9607893580998771e-10  1.0384313102304605e-09  1.0719140325936635e-09  1.0956531691477636e-09  1.1090608563048248e-09  1.1118600921189430e-09  1.1040930938476899e-09  1.0861130198533552e-09  1.0585601048753615e-09  1.0223243641162336e-09  9.7849788275590787e-10  9.2832025636212158e-10  8.7312095646369898e-10  8.1426227564930766e-10  7.5308610294779980e-10  6.9086716237775660e-10  6.2877459812270720e-10  5.6784299346203247e-10  5.0895314418496616e-10  4.5282223246494043e-10  4.0000250656469185e-10  3.5088718745122788e-10  3.0572209879937614e-10  2.6462143992186536e-10  2.2758616887248829e-10  1.9452360601867142e-10  1.6526707546911079e-10  1.3959464307824540e-10  1.1724625953499465e-10  9.7938854920568771e-11  8.1379142681911519e-11  6.7274067529799714e-11  5.5338969637827906e-11  4.5303636960182014e-11  3.6916481620116520e-11  2.9947110044818154e-11  2.4187565587797354e-11  1.9452512662698841e-11  1.5578608389496965e-11  1.2423276181284124e-11  9.8630594668324363e-12  7.7916958828476762e-12  6.1180151012955743e-12  4.7637288760312863e-12  3.6611518168993664e-12  2.7508684446773568e-12  1.9793505707807900e-12  1.2965365171261859e-12  6.5342250678209008e-13  0.0000000000000000e+00  0.0000000000000000e+00  1.3510509150314905e-15  3.0267791601025085e-15  5.2930071200852910e-15  8.5141093710893995e-15  1.3205640588715902e-14  2.0106769443244408e-14  3.0281257810932633e-14  4.5258028918787239e-14  6.7225883109398875e-14  9.9301340903323489e-14  1.4589402393628804e-13  2.1320047977794402e-13  3.0986488008976488e-13  4.4785339044817206e-13  6.4359782605052408e-13  9.1947277344649635e-13  1.3056775880229207e-12  1.8425990057934822e-12  2.5837294235987205e-12  3.5992075160569297e-12  4.9800285534994955e-12  6.8429379746794404e-12  9.3359698011308190e-12  1.2644518138474380e-11  1.6997733205661440e-11  2.2674913000711679e-11  3.0011420841111207e-11  3.9403504716388863e-11  5.1311238798041391e-11  6.6258668260994967e-11  8.4830138876783139e-11  1.0766176002138541e-10  1.3542701314487579e-10  1.6881570506595262e-10  2.0850579791885679e-10  2.5512813440840476e-10  3.0922470981037700e-10  3.7120189023637292e-10  4.4128078473900920e-10  5.1944776779709498e-10  6.0540882094977312e-10  6.9855181132966185e-10  7.9792094888898856e-10  9.0220738256340981e-10  1.0097591652091315e-09  1.1186126455713300e-09  1.2265457992190000e-09  1.3311522140140617e-09  1.4299325723257311e-09  1.5203987242921371e-09  1.6001840299982343e-09  1.6671527442831319e-09  1.7195009544702451e-09  1.7558420141063488e-09  1.7752705169573189e-09  1.7774005159215801e-09  1.7623757350714717e-09  1.7308517307466773e-09  1.6839520975785462e-09  1.6232026733069695e-09  1.5504491022797103e-09  1.4677639643336387e-09  1.3773499270416525e-09  1.2814450674152319e-09  1.1822357237171617e-09  1.0817811083460132e-09  9.8195258723032868e-10  8.8438915738695450e-10  7.9046936222307716e-10  7.0129877444616409e-10  6.1771131443092114e-10  5.4028208704389536e-10  4.6934910967808840e-10  4.0504124081181813e-10  3.4730975701132705e-10  2.9596131351577705e-10  2.5069040461900044e-10  2.1110986461577590e-10  1.7677837592070280e-10  1.4722434605632376e-10  1.2196585804544969e-10  1.0052667757514872e-10  8.2448511554620875e-11  6.7299859045458543e-11  5.4681883942426860e-11  4.4231778611229324e-11  3.5624089262700934e-11  2.8570447260682061e-11  2.2818104930575814e-11  1.8147617429541409e-11  1.4369949938167026e-11  1.1323226405530595e-11  8.8692756615291507e-12  6.8900754865460171e-12  5.2841477476991238e-12  3.9629215413935871e-12  2.8470625868570372e-12  1.8627770380624087e-12  9.3815565530286833e-13  0.0000000000000000e+00  0.0000000000000000e+00  1.8847104884600738e-15  4.2275060606787878e-15  7.4066562582516864e-15  1.1942558087572499e-14  1.8574458366844248e-14  2.8366605171108457e-14  4.2856920674819322e-14  6.4264946398877837e-14  9.5781279448635282e-14  1.4196765190032655e-13  2.0930540001009302e-13  3.0694045333261704e-13  4.4768514204167868e-13  6.4935084978415598e-13  9.3650027170633043e-13  1.3427227432820372e-12  1.9135491273888491e-12  2.7101316394277953e-12  3.8138153841010617e-12  5.3317179051650028e-12  7.4034053843664218e-12  1.0208703200249383e-11  1.3976598030986408e-11  1.8995072727812185e-11  2.5621559620502421e-11  3.4293501720928639e-11  4.5538278378730052e-11  5.9981493054820696e-11  7.8352355284884352e-11  1.0148464551342803e-10  1.3031156883333930e-10  1.6585272830935273e-10  2.0919153130751177e-10  2.6144163211535519e-10  3.2370155009670559e-10  3.9699740383691550e-10  4.8221475747126093e-10  5.8002183649412118e-10  6.9078774437205921e-10  8.1450066348211085e-10  9.5069218574854393e-10  1.0983747042904529e-09  1.2559990288766375e-09  1.4214389223195496e-09  1.5920080146130856e-09  1.7645125487880542e-09  1.9353407630843350e-09  2.1005866371509675e-09  2.2562025297991560e-09  2.3981722674845460e-09  2.5226938657485106e-09  2.6263595926022801e-09  2.7063207301584274e-09  2.7604252442036645e-09  2.7873185681796487e-09  2.7865006431131871e-09  2.7583359086789102e-09  2.7040167233520607e-09  2.6254842987183255e-09  2.5253142987326699e-09  2.4065764981236284e-09  2.2726791493114873e-09  2.1272089345452414e-09  1.9737766585963905e-09  1.8158773419876516e-09  1.6567713423876972e-09  1.4993908247276104e-09  1.3462735714960123e-09  1.1995239887827510e-09  1.0607993804557949e-09  9.3131822822886168e-10  8.1188636305741474e-10  7.0293652370339458e-10  6.0457681179303180e-10  5.1664388458421221e-10  4.3875728169000064e-10  3.7037196648076533e-10  3.1082689367556723e-10  2.5938812469271398e-10  2.1528565305965087e-10  1.7774364319307979e-10  1.4600421291045313e-10  1.1934520190373635e-10  9.7092573358249083e-11  7.8628208238077124e-11  6.3393888824325194e-11  5.0892247864412428e-11  4.0685399067404167e-11  3.2391878384400488e-11  2.5682425545974110e-11  2.0275030867952914e-11  1.5929569977416894e-11  1.2442253387583752e-11  9.6400320270279351e-12  7.3750270102278441e-12  5.5189966588904539e-12  3.9578243709442409e-12  2.5860231009464236e-12  1.3013339795631303e-12  0.0000000000000000e+00  0.0000000000000000e+00  2.5873390915951558e-15  5.8111991238904044e-15  1.0202066511202092e-14  1.6492569608703713e-14  2.5727901964057358e-14  3.9419414176499489e-14  5.9760800355608383e-14  8.9932008466026881e-14  1.3452442302624515e-13  2.0013163629837500e-13  2.9616359546405427e-13  4.3595835734972587e-13  6.3828518210079771e-13  9.2935501159097610e-13  1.3454787584299837e-12  1.9365387920903728e-12  2.7704620630024523e-12  3.9389006835508149e-12  5.5643321762158978e-12  7.8087799801756329e-12  1.0884316441811213e-11  1.5065435233790310e-11  2.0703257042606380e-11  2.8241351007557208e-11  3.8232706686136526e-11  5.1357073988700850e-11  6.8437506171480997e-11  9.0454509414244458e-11  1.1855575190292837e-10  1.5405886245725214e-10  1.9844451743114831e-10  2.5333685350582150e-10  3.2046834061688424e-10  4.0162668997019640e-10  4.9858222801583954e-10  6.1299547712694043e-10  7.4630643597920578e-10  8.9960916955155849e-10  1.0735176468494646e-09  1.2680310752757108e-09  1.4824089841194379e-09  1.7150676833635920e-09  1.9635101549509519e-09  2.2243006695707492e-09  2.4930933240074998e-09  2.7647202807204275e-09  3.0333409644119547e-09  3.2926482138367911e-09  3.5361219348785625e-09  3.7573157749800363e-09  3.9501583657265950e-09  4.1092482978375815e-09  4.2301215653650200e-09  4.3094718717976350e-09  4.3453077952454369e-09  4.3370359794355663e-09  4.2854656732652434e-09  4.1927363938725962e-09  4.0621765331301447e-09  3.8981057447003036e-09  3.7055974790800499e-09  3.4902198279517642e-09  3.2577728706939778e-09  3.0140391628463728e-09  2.7645612038495594e-09  2.5144560999227997e-09  2.2682736568478995e-09  2.0299002250434169e-09  1.8025071272270040e-09  1.5885396744401353e-09  1.3897407532505361e-09  1.2072017734233332e-09  1.0414333417845993e-09  8.9244825285239143e-10  7.5985010340038032e-10  6.4292187927341188e-10  5.4071007062013523e-10  4.5210111139274390e-10  3.7588810622925782e-10  3.1082683121564623e-10  2.5568083393229940e-10  2.0925609827131790e-10  1.7042618664089135e-10  1.3814904613627931e-10  1.1147679392958362e-10  8.9559811621657029e-11  7.1646409268516909e-11  5.7079194950886396e-11  4.5289128416658707e-11  3.5788065844803981e-11  2.8160430633320812e-11  2.2054481483706900e-11  1.7173499769600048e-11  1.3267086999486818e-11  1.0122653507021361e-11  7.5570967027391103e-12  5.4086220865240848e-12  3.5286741998749505e-12  1.7740572033349424e-12  0.0000000000000000e+00  0.0000000000000000e+00  3.5189664862306225e-15  7.9146173702534008e-15  1.3924615135773516e-14  2.2571816133839400e-14  3.5322005811327613e-14  5.4304485716831726e-14  8.2624166194659986e-14  1.2480261592792673e-13  1.8739840271742278e-13  2.7987367932287779e-13  4.1579495606874760e-13  6.1448188758664263e-13  9.0324895985381350e-13  1.3204210014096619e-12  1.9193435029883198e-12  2.7736507204855120e-12  3.9840947823084054e-12  5.6872717761585348e-12  8.0665977566653421e-12  1.1365877587027950e-11  1.5905758275815963e-11  2.2103249071451704e-11  3.0494304402967878e-11  4.1759184348479470e-11  5.6749915341739531e-11  7.6518663210610390e-11  1.0234520572666725e-10  1.3576097525096156e-10  1.7856638041493475e-10  2.3283738417204574e-10  3.0091671918750267e-10  3.8538479274304641e-10  4.8900542242591779e-10  6.1464220256679349e-10  7.6514265887518540e-10  9.4318948183707662e-10  1.1511210305519101e-09  1.3907268466933125e-09  1.6630278597659368e-09  1.9680549127399433e-09  2.3046426931088804e-09  2.6702585578044265e-09  3.0608865421989733e-09  3.4709855971463676e-09  3.8935375539993618e-09  4.3201945029502082e-09  4.7415275357750407e-09  5.1473698232874662e-09  5.5272377080362434e-09  5.8708049842308546e-09  6.1683989013848939e-09  6.4114825929067371e-09  6.5930882066114527e-09  6.7081681871505857e-09  6.7538386499705303e-09  6.7294978778361373e-09  6.6368136185247912e-09  6.4795838442555421e-09  6.2634857300283070e-09  5.9957357712620669e-09  5.6846894474557723e-09  5.3394112856701310e-09  4.9692456168013553e-09  4.5834151274724949e-09  4.1906691256429850e-09  3.7989970344103401e-09  3.4154158047015317e-09  3.0458334133600557e-09  2.6949849555126261e-09  2.3664334234815507e-09  2.0626242639501055e-09  1.7849812164575974e-09  1.5340306147237608e-09  1.3095420393561425e-09  1.1106746616928201e-09  9.3612052473259508e-10  7.8423810601704091e-10  6.5317158374903414e-10  5.4095312273942245e-10  4.4558710954884645e-10  3.6511654643970764e-10  2.9767275328958544e-10  2.4151014789163829e-10  1.9502822016941830e-10  1.5678293685052180e-10  1.2548976449474049e-10  1.0002033170444102e-10  7.9394510464665325e-11  6.2769418095438800e-11  4.9426552700343604e-11  3.8757995507063567e-11  3.0252355375928955e-11  2.3480900950508998e-11  1.8084128146173482e-11  1.3758847954634691e-11  1.0245757672089458e-11  7.3173910891942747e-12  4.7663585236809901e-12  2.3939401877887110e-12  0.0000000000000000e+00  0.0000000000000000e+00  4.7549045570699268e-15  1.0709776477539791e-14  1.8884150095035709e-14  3.0697600685431807e-14  4.8193814535137744e-14  7.4355665033808359e-14  1.1355336250235774e-13  1.7218121069726545e-13  2.5955811765997475e-13  3.8919253169307707e-13  5.8054500845154497e-13  8.6146215839599023e-13  1.2715049372707621e-12  1.8664521221052487e-12  2.7243252295226149e-12  3.9533512159230675e-12  5.7023487070030499e-12  8.1740835724745872e-12  1.1642177545716962e-11  1.6472151536391356e-11  2.3147120275072386e-11  3