<?xml version="1.0"?>
<VTKFile type="UnstructuredGrid"  version="0.1"  >
<UnstructuredGrid>
<Piece  NumberOfPoints="10201" NumberOfCells="20000">
<Points>
<DataArray  type="Float64"  NumberOfComponents="3"  format="ascii">0 0 0  0.01 0 0  0.02 0 0  0.03 0 0  0.04 0 0  0.05 0 0  0.06 0 0  0.07000000000000001 0 0  0.08 0 0  0.09 0 0  0.1 0 0  0.11 0 0  0.12 0 0  0.13 0 0  0.14 0 0  0.15 0 0  0.16 0 0  0.17 0 0  0.18 0 0  0.19 0 0  0.2 0 0  0.21 0 0  0.22 0 0  0.23 0 0  0.24 0 0  0.25 0 0  0.26 0 0  0.27 0 0  0.28 0 0  0.29 0 0  0.3 0 0  0.31 0 0  0.32 0 0  0.33 0 0  0.34 0 0  0.35 0 0  0.36 0 0  0.37 0 0  0.38 0 0  0.39 0 0  0.4 0 0  0.41 0 0  0.42 0 0  0.43 0 0  0.44 0 0  0.45 0 0  0.46 0 0  0.47 0 0  0.48 0 0  0.49 0 0  0.5 0 0  0.51 0 0  0.52 0 0  0.53 0 0  0.54 0 0  0.55 0 0  0.5600000000000001 0 0  0.57 0 0  0.58 0 0  0.59 0 0  0.6 0 0  0.61 0 0  0.62 0 0  0.63 0 0  0.64 0 0  0.65 0 0  0.66 0 0  0.67 0 0  0.68 0 0  0.6899999999999999 0 0  0.7 0 0  0.71 0 0  0.72 0 0  0.73 0 0  0.74 0 0  0.75 0 0  0.76 0 0  0.77 0 0  0.78 0 0  0.79 0 0  0.8 0 0  0.8100000000000001 0 0  0.82 0 0  0.83 0 0  0.84 0 0  0.85 0 0  0.86 0 0  0.87 0 0  0.88 0 0  0.89 0 0  0.9 0 0  0.91 0 0  0.92 0 0  0.93 0 0  0.9399999999999999 0 0  0.95 0 0  0.96 0 0  0.97 0 0  0.98 0 0  0.99 0 0  1 0 0  0 0.01 0  0.01 0.01 0  0.02 0.01 0  0.03 0.01 0  0.04 0.01 0  0.05 0.01 0  0.06 0.01 0  0.07000000000000001 0.01 0  0.08 0.01 0  0.09 0.01 0  0.1 0.01 0  0.11 0.01 0  0.12 0.01 0  0.13 0.01 0  0.14 0.01 0  0.15 0.01 0  0.16 0.01 0  0.17 0.01 0  0.18 0.01 0  0.19 0.01 0  0.2 0.01 0  0.21 0.01 0  0.22 0.01 0  0.23 0.01 0  0.24 0.01 0  0.25 0.01 0  0.26 0.01 0  0.27 0.01 0  0.28 0.01 0  0.29 0.01 0  0.3 0.01 0  0.31 0.01 0  0.32 0.01 0  0.33 0.01 0  0.34 0.01 0  0.35 0.01 0  0.36 0.01 0  0.37 0.01 0  0.38 0.01 0  0.39 0.01 0  0.4 0.01 0  0.41 0.01 0  0.42 0.01 0  0.43 0.01 0  0.44 0.01 0  0.45 0.01 0  0.46 0.01 0  0.47 0.01 0  0.48 0.01 0  0.49 0.01 0  0.5 0.01 0  0.51 0.01 0  0.52 0.01 0  0.53 0.01 0  0.54 0.01 0  0.55 0.01 0  0.5600000000000001 0.01 0  0.57 0.01 0  0.58 0.01 0  0.59 0.01 0  0.6 0.01 0  0.61 0.01 0  0.62 0.01 0  0.63 0.01 0  0.64 0.01 0  0.65 0.01 0  0.66 0.01 0  0.67 0.01 0  0.68 0.01 0  0.6899999999999999 0.01 0  0.7 0.01 0  0.71 0.01 0  0.72 0.01 0  0.73 0.01 0  0.74 0.01 0  0.75 0.01 0  0.76 0.01 0  0.77 0.01 0  0.78 0.01 0  0.79 0.01 0  0.8 0.01 0  0.8100000000000001 0.01 0  0.82 0.01 0  0.83 0.01 0  0.84 0.01 0  0.85 0.01 0  0.86 0.01 0  0.87 0.01 0  0.88 0.01 0  0.89 0.01 0  0.9 0.01 0  0.91 0.01 0  0.92 0.01 0  0.93 0.01 0  0.9399999999999999 0.01 0  0.95 0.01 0  0.96 0.01 0  0.97 0.01 0  0.98 0.01 0  0.99 0.01 0  1 0.01 0  0 0.02 0  0.01 0.02 0  0.02 0.02 0  0.03 0.02 0  0.04 0.02 0  0.05 0.02 0  0.06 0.02 0  0.07000000000000001 0.02 0  0.08 0.02 0  0.09 0.02 0  0.1 0.02 0  0.11 0.02 0  0.12 0.02 0  0.13 0.02 0  0.14 0.02 0  0.15 0.02 0  0.16 0.02 0  0.17 0.02 0  0.18 0.02 0  0.19 0.02 0  0.2 0.02 0  0.21 0.02 0  0.22 0.02 0  0.23 0.02 0  0.24 0.02 0  0.25 0.02 0  0.26 0.02 0  0.27 0.02 0  0.28 0.02 0  0.29 0.02 0  0.3 0.02 0  0.31 0.02 0  0.32 0.02 0  0.33 0.02 0  0.34 0.02 0  0.35 0.02 0  0.36 0.02 0  0.37 0.02 0  0.38 0.02 0  0.39 0.02 0  0.4 0.02 0  0.41 0.02 0  0.42 0.02 0  0.43 0.02 0  0.44 0.02 0  0.45 0.02 0  0.46 0.02 0  0.47 0.02 0  0.48 0.02 0  0.49 0.02 0  0.5 0.02 0  0.51 0.02 0  0.52 0.02 0  0.53 0.02 0  0.54 0.02 0  0.55 0.02 0  0.5600000000000001 0.02 0  0.57 0.02 0  0.58 0.02 0  0.59 0.02 0  0.6 0.02 0  0.61 0.02 0  0.62 0.02 0  0.63 0.02 0  0.64 0.02 0  0.65 0.02 0  0.66 0.02 0  0.67 0.02 0  0.68 0.02 0  0.6899999999999999 0.02 0  0.7 0.02 0  0.71 0.02 0  0.72 0.02 0  0.73 0.02 0  0.74 0.02 0  0.75 0.02 0  0.76 0.02 0  0.77 0.02 0  0.78 0.02 0  0.79 0.02 0  0.8 0.02 0  0.8100000000000001 0.02 0  0.82 0.02 0  0.83 0.02 0  0.84 0.02 0  0.85 0.02 0  0.86 0.02 0  0.87 0.02 0  0.88 0.02 0  0.89 0.02 0  0.9 0.02 0  0.91 0.02 0  0.92 0.02 0  0.93 0.02 0  0.9399999999999999 0.02 0  0.95 0.02 0  0.96 0.02 0  0.97 0.02 0  0.98 0.02 0  0.99 0.02 0  1 0.02 0  0 0.03 0  0.01 0.03 0  0.02 0.03 0  0.03 0.03 0  0.04 0.03 0  0.05 0.03 0  0.06 0.03 0  0.07000000000000001 0.03 0  0.08 0.03 0  0.09 0.03 0  0.1 0.03 0  0.11 0.03 0  0.12 0.03 0  0.13 0.03 0  0.14 0.03 0  0.15 0.03 0  0.16 0.03 0  0.17 0.03 0  0.18 0.03 0  0.19 0.03 0  0.2 0.03 0  0.21 0.03 0  0.22 0.03 0  0.23 0.03 0  0.24 0.03 0  0.25 0.03 0  0.26 0.03 0  0.27 0.03 0  0.28 0.03 0  0.29 0.03 0  0.3 0.03 0  0.31 0.03 0  0.32 0.03 0  0.33 0.03 0  0.34 0.03 0  0.35 0.03 0  0.36 0.03 0  0.37 0.03 0  0.38 0.03 0  0.39 0.03 0  0.4 0.03 0  0.41 0.03 0  0.42 0.03 0  0.43 0.03 0  0.44 0.03 0  0.45 0.03 0  0.46 0.03 0  0.47 0.03 0  0.48 0.03 0  0.49 0.03 0  0.5 0.03 0  0.51 0.03 0  0.52 0.03 0  0.53 0.03 0  0.54 0.03 0  0.55 0.03 0  0.5600000000000001 0.03 0  0.57 0.03 0  0.58 0.03 0  0.59 0.03 0  0.6 0.03 0  0.61 0.03 0  0.62 0.03 0  0.63 0.03 0  0.64 0.03 0  0.65 0.03 0  0.66 0.03 0  0.67 0.03 0  0.68 0.03 0  0.6899999999999999 0.03 0  0.7 0.03 0  0.71 0.03 0  0.72 0.03 0  0.73 0.03 0  0.74 0.03 0  0.75 0.03 0  0.76 0.03 0  0.77 0.03 0  0.78 0.03 0  0.79 0.03 0  0.8 0.03 0  0.8100000000000001 0.03 0  0.82 0.03 0  0.83 0.03 0  0.84 0.03 0  0.85 0.03 0  0.86 0.03 0  0.87 0.03 0  0.88 0.03 0  0.89 0.03 0  0.9 0.03 0  0.91 0.03 0  0.92 0.03 0  0.93 0.03 0  0.9399999999999999 0.03 0  0.95 0.03 0  0.96 0.03 0  0.97 0.03 0  0.98 0.03 0  0.99 0.03 0  1 0.03 0  0 0.04 0  0.01 0.04 0  0.02 0.04 0  0.03 0.04 0  0.04 0.04 0  0.05 0.04 0  0.06 0.04 0  0.07000000000000001 0.04 0  0.08 0.04 0  0.09 0.04 0  0.1 0.04 0  0.11 0.04 0  0.12 0.04 0  0.13 0.04 0  0.14 0.04 0  0.15 0.04 0  0.16 0.04 0  0.17 0.04 0  0.18 0.04 0  0.19 0.04 0  0.2 0.04 0  0.21 0.04 0  0.22 0.04 0  0.23 0.04 0  0.24 0.04 0  0.25 0.04 0  0.26 0.04 0  0.27 0.04 0  0.28 0.04 0  0.29 0.04 0  0.3 0.04 0  0.31 0.04 0  0.32 0.04 0  0.33 0.04 0  0.34 0.04 0  0.35 0.04 0  0.36 0.04 0  0.37 0.04 0  0.38 0.04 0  0.39 0.04 0  0.4 0.04 0  0.41 0.04 0  0.42 0.04 0  0.43 0.04 0  0.44 0.04 0  0.45 0.04 0  0.46 0.04 0  0.47 0.04 0  0.48 0.04 0  0.49 0.04 0  0.5 0.04 0  0.51 0.04 0  0.52 0.04 0  0.53 0.04 0  0.54 0.04 0  0.55 0.04 0  0.5600000000000001 0.04 0  0.57 0.04 0  0.58 0.04 0  0.59 0.04 0  0.6 0.04 0  0.61 0.04 0  0.62 0.04 0  0.63 0.04 0  0.64 0.04 0  0.65 0.04 0  0.66 0.04 0  0.67 0.04 0  0.68 0.04 0  0.6899999999999999 0.04 0  0.7 0.04 0  0.71 0.04 0  0.72 0.04 0  0.73 0.04 0  0.74 0.04 0  0.75 0.04 0  0.76 0.04 0  0.77 0.04 0  0.78 0.04 0  0.79 0.04 0  0.8 0.04 0  0.8100000000000001 0.04 0  0.82 0.04 0  0.83 0.04 0  0.84 0.04 0  0.85 0.04 0  0.86 0.04 0  0.87 0.04 0  0.88 0.04 0  0.89 0.04 0  0.9 0.04 0  0.91 0.04 0  0.92 0.04 0  0.93 0.04 0  0.9399999999999999 0.04 0  0.95 0.04 0  0.96 0.04 0  0.97 0.04 0  0.98 0.04 0  0.99 0.04 0  1 0.04 0  0 0.05 0  0.01 0.05 0  0.02 0.05 0  0.03 0.05 0  0.04 0.05 0  0.05 0.05 0  0.06 0.05 0  0.07000000000000001 0.05 0  0.08 0.05 0  0.09 0.05 0  0.1 0.05 0  0.11 0.05 0  0.12 0.05 0  0.13 0.05 0  0.14 0.05 0  0.15 0.05 0  0.16 0.05 0  0.17 0.05 0  0.18 0.05 0  0.19 0.05 0  0.2 0.05 0  0.21 0.05 0  0.22 0.05 0  0.23 0.05 0  0.24 0.05 0  0.25 0.05 0  0.26 0.05 0  0.27 0.05 0  0.28 0.05 0  0.29 0.05 0  0.3 0.05 0  0.31 0.05 0  0.32 0.05 0  0.33 0.05 0  0.34 0.05 0  0.35 0.05 0  0.36 0.05 0  0.37 0.05 0  0.38 0.05 0  0.39 0.05 0  0.4 0.05 0  0.41 0.05 0  0.42 0.05 0  0.43 0.05 0  0.44 0.05 0  0.45 0.05 0  0.46 0.05 0  0.47 0.05 0  0.48 0.05 0  0.49 0.05 0  0.5 0.05 0  0.51 0.05 0  0.52 0.05 0  0.53 0.05 0  0.54 0.05 0  0.55 0.05 0  0.5600000000000001 0.05 0  0.57 0.05 0  0.58 0.05 0  0.59 0.05 0  0.6 0.05 0  0.61 0.05 0  0.62 0.05 0  0.63 0.05 0  0.64 0.05 0  0.65 0.05 0  0.66 0.05 0  0.67 0.05 0  0.68 0.05 0  0.6899999999999999 0.05 0  0.7 0.05 0  0.71 0.05 0  0.72 0.05 0  0.73 0.05 0  0.74 0.05 0  0.75 0.05 0  0.76 0.05 0  0.77 0.05 0  0.78 0.05 0  0.79 0.05 0  0.8 0.05 0  0.8100000000000001 0.05 0  0.82 0.05 0  0.83 0.05 0  0.84 0.05 0  0.85 0.05 0  0.86 0.05 0  0.87 0.05 0  0.88 0.05 0  0.89 0.05 0  0.9 0.05 0  0.91 0.05 0  0.92 0.05 0  0.93 0.05 0  0.9399999999999999 0.05 0  0.95 0.05 0  0.96 0.05 0  0.97 0.05 0  0.98 0.05 0  0.99 0.05 0  1 0.05 0  0 0.06 0  0.01 0.06 0  0.02 0.06 0  0.03 0.06 0  0.04 0.06 0  0.05 0.06 0  0.06 0.06 0  0.07000000000000001 0.06 0  0.08 0.06 0  0.09 0.06 0  0.1 0.06 0  0.11 0.06 0  0.12 0.06 0  0.13 0.06 0  0.14 0.06 0  0.15 0.06 0  0.16 0.06 0  0.17 0.06 0  0.18 0.06 0  0.19 0.06 0  0.2 0.06 0  0.21 0.06 0  0.22 0.06 0  0.23 0.06 0  0.24 0.06 0  0.25 0.06 0  0.26 0.06 0  0.27 0.06 0  0.28 0.06 0  0.29 0.06 0  0.3 0.06 0  0.31 0.06 0  0.32 0.06 0  0.33 0.06 0  0.34 0.06 0  0.35 0.06 0  0.36 0.06 0  0.37 0.06 0  0.38 0.06 0  0.39 0.06 0  0.4 0.06 0  0.41 0.06 0  0.42 0.06 0  0.43 0.06 0  0.44 0.06 0  0.45 0.06 0  0.46 0.06 0  0.47 0.06 0  0.48 0.06 0  0.49 0.06 0  0.5 0.06 0  0.51 0.06 0  0.52 0.06 0  0.53 0.06 0  0.54 0.06 0  0.55 0.06 0  0.5600000000000001 0.06 0  0.57 0.06 0  0.58 0.06 0  0.59 0.06 0  0.6 0.06 0  0.61 0.06 0  0.62 0.06 0  0.63 0.06 0  0.64 0.06 0  0.65 0.06 0  0.66 0.06 0  0.67 0.06 0  0.68 0.06 0  0.6899999999999999 0.06 0  0.7 0.06 0  0.71 0.06 0  0.72 0.06 0  0.73 0.06 0  0.74 0.06 0  0.75 0.06 0  0.76 0.06 0  0.77 0.06 0  0.78 0.06 0  0.79 0.06 0  0.8 0.06 0  0.8100000000000001 0.06 0  0.82 0.06 0  0.83 0.06 0  0.84 0.06 0  0.85 0.06 0  0.86 0.06 0  0.87 0.06 0  0.88 0.06 0  0.89 0.06 0  0.9 0.06 0  0.91 0.06 0  0.92 0.06 0  0.93 0.06 0  0.9399999999999999 0.06 0  0.95 0.06 0  0.96 0.06 0  0.97 0.06 0  0.98 0.06 0  0.99 0.06 0  1 0.06 0  0 0.07000000000000001 0  0.01 0.07000000000000001 0  0.02 0.07000000000000001 0  0.03 0.07000000000000001 0  0.04 0.07000000000000001 0  0.05 0.07000000000000001 0  0.06 0.07000000000000001 0  0.07000000000000001 0.07000000000000001 0  0.08 0.07000000000000001 0  0.09 0.07000000000000001 0  0.1 0.07000000000000001 0  0.11 0.07000000000000001 0  0.12 0.07000000000000001 0  0.13 0.07000000000000001 0  0.14 0.07000000000000001 0  0.15 0.07000000000000001 0  0.16 0.07000000000000001 0  0.17 0.0700
[...]
<PointData  Scalars="u"> 
<DataArray  type="Float64"  Name="u"  format="ascii">0.0000000000000000e+00  0.0000000000000000e+00  0.0000000000000000e+00  0.0000000000000000e+00  0.0000000000000000e+00  0.0000000000000000e+00  0.0000000000000000e+00  0.0000000000000000e+00  0.0000000000000000e+00  0.0000000000000000e+00  0.0000000000000000e+00  0.0000000000000000e+00  0.0000000000000000e+00  0.0000000000000000e+00  0.0000000000000000e+00  0.0000000000000000e+00  0.0000000000000000e+00  0.0000000000000000e+00  0.0000000000000000e+00  0.0000000000000000e+00  0.0000000000000000e+00  0.0000000000000000e+00  0.0000000000000000e+00  0.0000000000000000e+00  0.0000000000000000e+00  0.0000000000000000e+00  0.0000000000000000e+00  0.0000000000000000e+00  0.0000000000000000e+00  0.0000000000000000e+00  0.0000000000000000e+00  0.0000000000000000e+00  0.0000000000000000e+00  0.0000000000000000e+00  0.0000000000000000e+00  0.0000000000000000e+00  0.0000000000000000e+00  0.0000000000000000e+00  0.0000000000000000e+00  0.0000000000000000e+00  0.0000000000000000e+00  0.0000000000000000e+00  0.0000000000000000e+00  0.0000000000000000e+00  0.0000000000000000e+00  0.0000000000000000e+00  0.0000000000000000e+00  0.0000000000000000e+00  0.0000000000000000e+00  0.0000000000000000e+00  0.0000000000000000e+00  0.0000000000000000e+00  0.0000000000000000e+00  0.0000000000000000e+00  0.0000000000000000e+00  0.0000000000000000e+00  0.0000000000000000e+00  0.0000000000000000e+00  0.0000000000000000e+00  0.0000000000000000e+00  0.0000000000000000e+00  0.0000000000000000e+00  0.0000000000000000e+00  0.0000000000000000e+00  0.0000000000000000e+00  0.0000000000000000e+00  0.0000000000000000e+00  0.0000000000000000e+00  0.0000000000000000e+00  0.0000000000000000e+00  0.0000000000000000e+00  0.0000000000000000e+00  0.0000000000000000e+00  0.0000000000000000e+00  0.0000000000000000e+00  0.0000000000000000e+00  0.0000000000000000e+00  0.0000000000000000e+00  0.0000000000000000e+00  0.0000000000000000e+00  0.0000000000000000e+00  0.0000000000000000e+00  0.0000000000000000e+00  0.0000000000000000e+00  0.0000000000000000e+00  0.0000000000000000e+00  0.0000000000000000e+00  0.0000000000000000e+00  0.0000000000000000e+00  0.0000000000000000e+00  0.0000000000000000e+00  0.0000000000000000e+00  0.0000000000000000e+00  0.0000000000000000e+00  0.0000000000000000e+00  0.0000000000000000e+00  0.0000000000000000e+00  0.0000000000000000e+00  0.0000000000000000e+00  0.0000000000000000e+00  0.0000000000000000e+00  0.0000000000000000e+00  8.8039512287304042e-17  2.0207957500079956e-16  3.5975713895987326e-16  5.8614912203609765e-16  9.1752633760189027e-16  1.4065522851897874e-15  2.1296402318447599e-15  3.1973051910369399e-15  4.7686300344996945e-15  7.0713246088662758e-15  1.0429305940545767e-14  1.5300276430929348e-14  2.2326430119730500e-14  3.2402170078234712e-14  4.6763553566982453e-14  6.7105055134019281e-14  9.5730081434787621e-14  1.3574237753427250e-13  1.9128587924025480e-13  2.6784048408913991e-13  3.7258037568687437e-13  5.1479963458450114e-13  7.0640656380112012e-13  9.6248310628690600e-13  1.3018986375289202e-12  1.7479580914978540e-12  2.3290528264238376e-12  3.0792691479289594e-12  4.0388946498689531e-12  5.2547476356642389e-12  6.7802414743490212e-12  8.6750859389255925e-12  1.1004523862849777e-11  1.3838006499192661e-11  1.7247227296136447e-11  2.1303463368909204e-11  2.6074217665643462e-11  3.1619212081656459e-11  3.7985850039059725e-11  4.5204341642618150e-11  5.3282758694785908e-11  6.2202352176536902e-11  7.1913511956395819e-11  8.2332768377140318e-11  9.3341220437524781e-11  1.0478472090473550e-10  1.1647605433231994e-10  1.2819921394283404e-10  1.3971572697217006e-10  1.5077280904109353e-10  1.6111296311668888e-10  1.7048449542288886e-10  1.7865231581630293e-10  1.8540833674068648e-10  1.9058079061345943e-10  1.9404185151028356e-10  1.9571306756729456e-10  1.9556827370193529e-10  1.9363384350832912e-10  1.8998633546930285e-10  1.8474777283432002e-10  1.7807895177768907e-10  1.7017128603393720e-10  1.6123776068404531e-10  1.5150358143400516e-10  1.4119707223418368e-10  1.3054130143263561e-10  1.1974681576777925e-10  1.0900574465994891e-10  9.8487416556232273e-11  8.8335515179313788e-11  7.8666704764766793e-11  6.9570575289951479e-11  6.1110703997951166e-11  5.3326598315022139e-11  4.6236275576820139e-11  3.9839243376334347e-11  3.4119666556174494e-11  2.9049538375346755e-11  2.4591709898701279e-11  2.0702669462141368e-11  1.7335000195772578e-11  1.4439475911509065e-11  1.1966782858994881e-11  9.8688763108263367e-12  8.0999966115597807e-12  6.6173795852323784e-12  5.3817016738119693e-12  4.3573016269731171e-12  3.5122187409968101e-12  2.8180832253680803e-12  2.2498877804008494e-12  1.7856612174661137e-12  1.4060550337531440e-12  1.0938421115933082e-12  8.3331276062531670e-13  6.0953657604236994e-13  4.0743829811479269e-13  2.1061023422888623e-13  0.0000000000000000e+00  0.0000000000000000e+00  1.7924181385382770e-16  4.1171719869383850e-16  7.3356597569031171e-16  1.1963766557146523e-15  1.8748833203647342e-15  2.8777808276085948e-15  4.3630581318078064e-15  6.5596174749645718e-15  9.7975491296496347e-15  1.4550201379751812e-14  2.1492151104661391e-14  3.1578365144260477e-14  4.6151259404331394e-14  6.7084004897026510e-14  9.6970260031424299e-14  1.3937244306747526e-13  1.9914255094390969e-13  2.8283115136479563e-13  3.9920119354742884e-13  5.5986325296274897e-13  7.8004717869068822e-13  1.0795211687777682e-12  1.4836623004290162e-12  2.0246717143879233e-12  2.7429123101579788e-12  3.6883264955335873e-12  4.9218662090067591e-12  6.5168376808284889e-12  8.5600306430124602e-12  1.1152468392718987e-11  1.4409584844065701e-11  1.8460612164248696e-11  2.3446953362562542e-11  2.9519324299234534e-11  3.6833484739853008e-11  4.5544442814428328e-11  5.5799113746276767e-11  6.7727540771615812e-11  8.1432938206188287e-11  9.6980983197769530e-11  1.1438894865122405e-10  1.3361541610614572e-10  1.5455141289918709e-10  1.7701386214161070e-10  2.0074219980176637e-10  2.2539889008568760e-10  2.5057435731282026e-10  2.7579655962993552e-10  3.0054507858325567e-10  3.2426922005704279e-10  3.4640925440548145e-10  3.6641960699655722e-10  3.8379258206165642e-10  3.9808109169035328e-10  4.0891888452361750e-10  4.1603692657439757e-10  4.1927486544248093e-10  4.1858688093528429e-10  4.1404165153544016e-10  4.0581660391348206e-10  3.9418701884286885e-10  3.7951090416704573e-10  3.6221078642100284e-10  3.4275370216363128e-10  3.2163068586782641e-10  2.9933696310755422e-10  2.7635388500709035e-10  2.5313340783775378e-10  2.3008565811257811e-10  2.0756985547832845e-10  1.8588861640984147e-10  1.6528544892246979e-10  1.4594508357335038e-10  1.2799617386237961e-10  1.1151583904138082e-10  9.6535509104357877e-11  8.3047557144148958e-11  7.1012258516012256e-11  6.0364689234570907e-11  5.1021258338014495e-11  4.2885652569784434e-11  3.5854050417467899e-11  2.9819531960217752e-11  2.4675668538779138e-11  2.0319320936762707e-11  1.6652706712189357e-11  1.3584817558545107e-11  1.1032277630148699e-11  8.9197353769580398e-12  7.1798763082642373e-12  5.7531337340746219e-12  4.5871600536670419e-12  3.6361032617420450e-12  2.8597122098933493e-12  2.2222694585497918e-12  1.6913214508706885e-12  1.2361410167183966e-12  8.2581555793863345e-13  4.2680512400368058e-13  0.0000000000000000e+00  0.0000000000000000e+00  2.8582716095591430e-16  6.5706845827969821e-16  1.1720897095628931e-15  1.9144369872670263e-15  3.0054429213147614e-15  4.6220390367056836e-15  7.0220873099541973e-15  1.0580208271706975e-14  1.5838113960531043e-14  2.3574778984818765e-14  3.4903453989366904e-14  5.1404588794468256e-14  7.5306216455939852e-14  1.0972625172033049e-13  1.5899442266401241e-13  2.2907504875836140e-13  3.2811535762935958e-13  4.6714710567216399e-13  6.6097136196248794e-13  9.2925664662393918e-13  1.2978781736583917e-12  1.8005195093895721e-12  2.4805461345840552e-12  3.3931417519991384e-12  4.6076713994821469e-12  6.2101995845924170e-12  8.3060465420509080e-12  1.1022212233830038e-11  1.4509438289315150e-11  1.8943617031699612e-11  2.4526200482456787e-11  3.1483219302773593e-11  4.0062502273552149e-11  5.0528702304999676e-11  6.3155795889803187e-11  7.8216838021012494e-11  9.5970928339966668e-11  1.1664757480591260e-10  1.4042891853368215e-10  1.6743058854118507e-10  1.9768225991516526e-10  2.3110925796387419e-10  2.6751674491673341e-10  3.0657810612001524e-10  3.4782908756383709e-10  3.9066900667616919e-10  4.3436996210325813e-10  4.7809442510169236e-10  5.2092094600992029e-10  5.6187701333223087e-10  5.9997743185728575e-10  6.3426601513661472e-10  6.6385798528266534e-10  6.8798029184370099e-10  7.0600712971849282e-10  7.1748825313445714e-10  7.2216821881123747e-10  7.1999539128093698e-10  7.1112033361390530e-10  6.9588400597061966e-10  6.7479692332095140e-10  6.4851101529611995e-10  6.1778633792712512e-10  5.8345498512553527e-10  5.4638453765634078e-10  5.0744319122929937e-10  4.6746836198976619e-10  4.2724012596478268e-10  3.8746036091928617e-10  3.4873797354088044e-10  3.1158015293810337e-10  2.7638922318600183e-10  2.4346439099525608e-10  2.1300750568789547e-10  1.8513186364193567e-10  1.5987308671392195e-10  1.3720116749752369e-10  1.1703288506000220e-10  9.9243934517434128e-11  8.3680265751909859e-11  7.0168276924829273e-11  5.8523646817596012e-11  4.8558709538861087e-11  4.0088372063833926e-11  3.2934648357132313e-11  2.6929934430432613e-11  2.1919178911850381e-11  1.7761116621326574e-11  1.4328731561483278e-11  1.1509103786440394e-11  9.2027744744526012e-12  7.3227372000179770e-12  5.7931320632035470e-12  4.5476832903661111e-12  3.5278795713144340e-12  2.6808482946272386e-12  1.9568178635973743e-12  1.3059940261040857e-12  6.7459423908453472e-13  0.0000000000000000e+00  0.0000000000000000e+00  4.2022578116999673e-16  9.6695824134314708e-16  1.7274285691150915e-15  2.8268775526001293e-15  4.4477626495256459e-15  6.8570289910391652e-15  1.0445039879800029e-14  1.5780853949535572e-14  2.3690190671524840e-14  3.5364565934249875e-14  5.2512797019374193e-14  7.7569456365357320e-14  1.1397895710308760e-13  1.6657879320493692e-13  2.4211096365440417e-13  3.4989658699624671e-13  5.0271478220012237e-13  7.1793243227300567e-13  1.0189355281448619e-12  1.4369141158559969e-12  2.0130497432999910e-12  2.8011446347833318e-12  3.8707132078917489e-12  5.3105264405206014e-12  7.2325556029551487e-12  9.7762021881432843e-12  1.3112624871049580e-11  1.7448883238919200e-11  2.3031515701838828e-11  3.0149062552663196e-11  3.9132945487288750e-11  5.0356036713624716e-11  6.4228211995490479e-11  8.1188202384650619e-11  1.0169115838201047e-10  1.2619153372624889e-10  1.5512119260814155e-10  1.8886304145286786e-10  2.2772096769789933e-10  2.7188740001178110e-10  3.2141033767362359e-10  3.7616216854038033e-10  4.3581293495897754e-10  4.9981084626552998e-10  5.6737271821200784e-10  6.3748660968237529e-10  7.0892822352299923e-10  7.8029167732371062e-10  8.5003410619645265e-10  9.1653234061630624e-10  9.7814873722068570e-10  1.0333022633082632e-09  1.0805402675611209e-09  1.1186061001281629e-09  1.1464979195855330e-09  1.1635146347786611e-09  1.1692859160612594e-09  1.1637844684073840e-09  1.1473201536417691e-09  1.1205169342957730e-09  1.0842748486685317e-09  1.0397202016418733e-09  9.8814779199376690e-10  9.3095926125375463e-10  8.6960155175061357e-10  8.0550904998059346e-10  7.4005234054733541e-10  6.7449569537924013e-10  6.0996456492546978e-10  5.4742350654609792e-10  4.8766424816603042e-10  4.3130298956865140e-10  3.7878561464429946e-10  3.3039923031880430e-10  2.8628834987057409e-10  2.4647407599279565e-10  2.1087478135866888e-10  1.7932699830271256e-10  1.5160548262287672e-10  1.2744168159836747e-10  1.0654009093916208e-10  8.8592213637053852e-11  7.3288025755118735e-11  6.0325005589393967e-11  4.9414893156095309e-11  4.0288419491288786e-11  3.2698284644215401e-11  2.6420675293503507e-11  2.1255603534372273e-11  1.7026322993269508e-11  1.3578041507340385e-11  1.0776104425011866e-11  8.5037710247620640e-12  6.6596490394009637e-12  5.1547877846892415e-12  3.9093565357445392e-12  2.8487480888948334e-12  1.8988439005098747e-12  9.8005306132943361e-13  0.0000000000000000e+00  0.0000000000000000e+00  5.9665674926604461e-16  1.3744392438466886e-15  2.4595639541960097e-15  4.0338454641359140e-15  6.3631143351264270e-15  9.8377636071023885e-15  1.5030880075133371e-14  2.2781149730167748e-14  3.4310318881885479e-14  5.1388369081069985e-14  7.6563884302790159e-14  1.1348250632398152e-13  1.6732301059359636e-13  2.4538844167763694e-13  3.5789885101810682e-13  5.1904220838758196e-13  7.4835044980329772e-13  1.0724774184266833e-12  1.5274631773587670e-12  2.1615727296777205e-12  3.0387937810641717e-12  4.2430643292908875e-12  5.8832724667409340e-12  8.0990234040370694e-12  1.1067098071023961e-11  1.5008430297111363e-11  2.0195303939265820e-11  2.6958318897040534e-11  3.5692501604839955e-11  4.6861752848921010e-11  6.1000651718123444e-11  7.8712494061044104e-11  1.0066236784775426e-10  1.2756409089458846e-10  1.6015999293377378e-10  1.9919284285008037e-10  2.4536971974317474e-10  2.9931830083876190e-10  3.6153686240722570e-10  4.3234020487207886e-10  5.1180463416735234e-10  5.9971594794607696e-10  6.9552496367389256e-10  7.9831536425212669e-10  9.0678842506203445e-10  1.0192684646011292e-09  1.1337316274067360e-09  1.2478589290548751e-09  1.3591125037628184e-09  1.4648318887128523e-09  1.5623451854627939e-09  1.6490882943325172e-09  1.7227243322996186e-09  1.7812549700484418e-09  1.8231158280346417e-09  1.8472492284966235e-09  1.8531493913259107e-09  1.8408773913194256e-09  1.8110456185605622e-09  1.7647738437866720e-09  1.7036210478126806e-09  1.6294987392330087e-09  1.5445724385812276e-09  1.4511583095399549e-09  1.3516216040730504e-09  1.2482827566794721e-09  1.1433357545612021e-09  1.0387819869737374e-09  9.3638129856449921e-10  8.3762057875283016e-10  7.4369902080195523e-10  6.5552825056621234e-10  5.7374488772021020e-10  4.9873275900566313e-10  4.3065190414671012e-10  3.6947165299175023e-10  3.1500535034189473e-10  2.6694470460828757e-10  2.2489218430491824e-10  1.8839033746890379e-10  1.5694732915220905e-10  1.3005835801353483e-10  1.0722291191215085e-10  8.7958050079133123e-11  7.1808058356212922e-11  5.8350921120077666e-11  4.7202098421807020e-11  3.8016100110792286e-11  3.0486320531216505e-11  2.4343546830785135e-11  1.9353488272139472e-11  1.5313598324758388e-11  1.2049378585981301e-11  9.4102642498777570e-12  7.2650931498605699e-12  5.4970504739217464e-12  3.9978535007991792e-12  2.6607886815903705e-12  1.3720309715058170e-12  0.0000000000000000e+00  0.0000000000000000e+00  8.3252928939596819e-16  1.9200799009734029e-15  3.4424019982870963e-15  5.6593461270703330e-15  8.9523223998168303e-15  1.3883752102716714e-14  2.1282698814760299e-14  3.2367574756345700e-14  4.8920834893080212e-14  7.3535842775840055e-14  1.0996289044611376e-13  1.6358995231952577e-13  2.4210438346640309e-13  3.5639457116389465e-13  5.2176546407204031e-13  7.5955857976190837e-13  1.0992847141413166e-12  1.5813946889938864e-12  2.2608277747784462e-12  3.2114855701466659e-12  4.5317765647862250e-12  6.3513575651211366e-12  8.8391557040791839e-12  1.2212681233530495e-11  1.6748529076576395e-11  2.2793809771249372e-11  3.0778044414036775e-11  4.1224804920251823e-11  5.4762089087775267e-11  7.2130107943983082e-11  9.4184860467404640e-11  1.2189561989770422e-10  1.5633430930844435e-10  1.9865476204719182e-10  2.5006010594394348e-10  3.1175703108312066e-10  3.8489653129602600e-10  4.7050184829790668e-10  5.6938574927381496e-10  6.8206083684401556e-10  8.0864817569289118e-10  9.4879093003667346e-10  1.1015807228159626e-09  1.2655048363055294e-09  1.4384219974403399e-09  1.6175732254260239e-09  1.7996320636102887e-09  1.9807955935415606e-09  2.1569141804876868e-09  2.3236542725605783e-09  2.4766851784134424e-09  2.6118779972205872e-09  2.7255031319228465e-09  2.8144123352141688e-09  2.8761921184564765e-09  2.9092775269704304e-09  2.9130185182801972e-09  2.8876951103091619e-09  2.8344816543221089e-09  2.7553645779565239e-09  2.6530213293960671e-09  2.5306707249305381e-09  2.3919062796313060e-09  2.2405243467915200e-09  2.0803580993286869e-09  1.9151267525163740e-09  1.7483072151935012e-09  1.5830328538237922e-09  1.4220215351631630e-09  1.2675328106239988e-09  1.1213521885877257e-09  9.8479901031665910e-10  8.5875353419041599e-10  7.4369841830801593e-10  6.3976980740521583e-10  5.4681358492476631e-10  4.6444294276602560e-10  3.9209414982135051e-10  3.2907817760353459e-10  2.7462659611782959e-10  2.2793083431175185e-10  1.8817447490279952e-10  1.5455870812515484e-10  1.2632140162767492e-10  1.0275046301554316e-10  8.3192292282669242e-11  6.7056161682014912e-11  5.3815339049911967e-11  4.3005704556401059e-11  3.4222515057313138e-11  2.7115856144253841e-11  2.1385197456526534e-11  1.6773335938565859e-11  1.3059874942349891e-11  1.0054241338760843e-11  7.5880818652592390e-12  5.5066949096337079e-12  3.6589344657252089e-12  1.8847589708730658e-12  0.0000000000000000e+00  0.0000000000000000e+00  1.1499241193831090e-15  2.6554533493369375e-15  4.7702337082727823e-15  7.8623077474548241e-15  1.2474110066255971e-14  1.9408943463530390e-14  2.9856140284824830e-14  4.5571307298687250e-14  6.9134236831871481e-14  1.0431524519535158e-13  1.5659133243879302e-13  2.3386712195155681e-13  3.4747246976078461e-13  5.1352923354806546e-13  7.5480399154060115e-13  1.1031910695399331e-12  1.6029999226874929e-12  2.3152505528187974e-12  3.3232066680654844e-12  4.7393934136269193e-12  6.7143473799519273e-12  9.4473216836954595e-12  1.3199106596420386e-11  1.8307013328324629e-11  2.5201891675947753e-11  3.4426799418403617e-11  4.6656605072167872e-11  6.2717386329425656e-11  8.3603996772233829e-11  1.1049364218069603e-10  1.4475278366169964e-10  1.8793423809436853e-10  2.4176106719086865e-10  3.0809383917977087e-10  3.8887821931192629e-10  4.8607069151038210e-10  6.0154159415793215e-10  7.3695657238650140e-10  8.9363993418017597e-10  1.0724260836963404e-09  1.2735079346366751e-09  1.4962936423604214e-09  1.7392847525778828e-09  1.9999895676733525e-09  2.2748848658283494e-09  2.5594368907547705e-09  2.8481887644353029e-09  3.1349163837318172e-09  3.4128488843166766e-09  3.6749435124350388e-09  3.9141989625737724e-09  4.1239866483486184e-09  4.2983766004951015e-09  4.4324341492006092e-09  4.5224653895835017e-09  4.5661934837620432e-09  4.5628536695788826e-09  4.5132017539894981e-09  4.4194380778650236e-09  4.2850556529105412e-09  4.1146266994515884e-09  3.9135456556554722e-09  3.6877486254466628e-09  3.4434291768329062e-09  3.1867686120688101e-09  2.9236956925139452e-09  2.6596867981650435e-09  2.3996131421185469e-09  2.1476374095349955e-09  1.9071584251848486e-09  1.6807994322782932e-09  1.4704334226094845e-09  1.2772377143199323e-09  1.1017695566133792e-09  9.4405481407351005e-10  8.0368257531390807e-10  6.7989966113869439e-10  5.7170030763548306e-10  4.7790762691197755e-10  3.9724469306642473e-10  3.2839418911847310e-10  2.7004644040811900e-10  2.2093633736341031e-10  1.7987012260391278e-10  1.4574330553142949e-10  1.1755110154456126e-10  9.4392805606026102e-11  7.5471433133325830e-11  6.0089823670265605e-11  4.7644228051136778e-11  3.7616205439466689e-11  2.9563454264755960e-11  2.3109996290869573e-11  1.7935925778180086e-11  1.3766720638891939e-11  1.0361879551648910e-11  7.5023841377160607e-12  4.9761720517005950e-12  2.5604286187928030e-12  0.0000000000000000e+00  0.0000000000000000e+00  1.5772712010302558e-15  3.6471059807104972e-15  6.5651326125083755e-15  1.0849357725276176e-14  1.7266483342811447e-14  2.6956976262031283e-14  4.1616994507412104e-14  6.3761724379319251e-14  9.7104156354217385e-14  1.4709595523224666e-13  2.2169363260803875e-13  3.3243453232112833e-13  4.9593398428276044e-13  7.3594798997948142e-13  1.0861852095697998e-12  1.5940973687253737e-12  2.3259269301100906e-12  3.3733417891814478e-12  4.8620334287966427e-12  6.9626890887168493e-12  9.9047582884359097e-12  1