<?xml version="1.0"?>
<VTKFile type="UnstructuredGrid"  version="0.1"  >
<UnstructuredGrid>
<Piece  NumberOfPoints="10201" NumberOfCells="20000">
<Points>
<DataArray  type="Float64"  NumberOfComponents="3"  format="ascii">0 0 0  0.01 0 0  0.02 0 0  0.03 0 0  0.04 0 0  0.05 0 0  0.06 0 0  0.07000000000000001 0 0  0.08 0 0  0.09 0 0  0.1 0 0  0.11 0 0  0.12 0 0  0.13 0 0  0.14 0 0  0.15 0 0  0.16 0 0  0.17 0 0  0.18 0 0  0.19 0 0  0.2 0 0  0.21 0 0  0.22 0 0  0.23 0 0  0.24 0 0  0.25 0 0  0.26 0 0  0.27 0 0  0.28 0 0  0.29 0 0  0.3 0 0  0.31 0 0  0.32 0 0  0.33 0 0  0.34 0 0  0.35 0 0  0.36 0 0  0.37 0 0  0.38 0 0  0.39 0 0  0.4 0 0  0.41 0 0  0.42 0 0  0.43 0 0  0.44 0 0  0.45 0 0  0.46 0 0  0.47 0 0  0.48 0 0  0.49 0 0  0.5 0 0  0.51 0 0  0.52 0 0  0.53 0 0  0.54 0 0  0.55 0 0  0.5600000000000001 0 0  0.57 0 0  0.58 0 0  0.59 0 0  0.6 0 0  0.61 0 0  0.62 0 0  0.63 0 0  0.64 0 0  0.65 0 0  0.66 0 0  0.67 0 0  0.68 0 0  0.6899999999999999 0 0  0.7 0 0  0.71 0 0  0.72 0 0  0.73 0 0  0.74 0 0  0.75 0 0  0.76 0 0  0.77 0 0  0.78 0 0  0.79 0 0  0.8 0 0  0.8100000000000001 0 0  0.82 0 0  0.83 0 0  0.84 0 0  0.85 0 0  0.86 0 0  0.87 0 0  0.88 0 0  0.89 0 0  0.9 0 0  0.91 0 0  0.92 0 0  0.93 0 0  0.9399999999999999 0 0  0.95 0 0  0.96 0 0  0.97 0 0  0.98 0 0  0.99 0 0  1 0 0  0 0.01 0  0.01 0.01 0  0.02 0.01 0  0.03 0.01 0  0.04 0.01 0  0.05 0.01 0  0.06 0.01 0  0.07000000000000001 0.01 0  0.08 0.01 0  0.09 0.01 0  0.1 0.01 0  0.11 0.01 0  0.12 0.01 0  0.13 0.01 0  0.14 0.01 0  0.15 0.01 0  0.16 0.01 0  0.17 0.01 0  0.18 0.01 0  0.19 0.01 0  0.2 0.01 0  0.21 0.01 0  0.22 0.01 0  0.23 0.01 0  0.24 0.01 0  0.25 0.01 0  0.26 0.01 0  0.27 0.01 0  0.28 0.01 0  0.29 0.01 0  0.3 0.01 0  0.31 0.01 0  0.32 0.01 0  0.33 0.01 0  0.34 0.01 0  0.35 0.01 0  0.36 0.01 0  0.37 0.01 0  0.38 0.01 0  0.39 0.01 0  0.4 0.01 0  0.41 0.01 0  0.42 0.01 0  0.43 0.01 0  0.44 0.01 0  0.45 0.01 0  0.46 0.01 0  0.47 0.01 0  0.48 0.01 0  0.49 0.01 0  0.5 0.01 0  0.51 0.01 0  0.52 0.01 0  0.53 0.01 0  0.54 0.01 0  0.55 0.01 0  0.5600000000000001 0.01 0  0.57 0.01 0  0.58 0.01 0  0.59 0.01 0  0.6 0.01 0  0.61 0.01 0  0.62 0.01 0  0.63 0.01 0  0.64 0.01 0  0.65 0.01 0  0.66 0.01 0  0.67 0.01 0  0.68 0.01 0  0.6899999999999999 0.01 0  0.7 0.01 0  0.71 0.01 0  0.72 0.01 0  0.73 0.01 0  0.74 0.01 0  0.75 0.01 0  0.76 0.01 0  0.77 0.01 0  0.78 0.01 0  0.79 0.01 0  0.8 0.01 0  0.8100000000000001 0.01 0  0.82 0.01 0  0.83 0.01 0  0.84 0.01 0  0.85 0.01 0  0.86 0.01 0  0.87 0.01 0  0.88 0.01 0  0.89 0.01 0  0.9 0.01 0  0.91 0.01 0  0.92 0.01 0  0.93 0.01 0  0.9399999999999999 0.01 0  0.95 0.01 0  0.96 0.01 0  0.97 0.01 0  0.98 0.01 0  0.99 0.01 0  1 0.01 0  0 0.02 0  0.01 0.02 0  0.02 0.02 0  0.03 0.02 0  0.04 0.02 0  0.05 0.02 0  0.06 0.02 0  0.07000000000000001 0.02 0  0.08 0.02 0  0.09 0.02 0  0.1 0.02 0  0.11 0.02 0  0.12 0.02 0  0.13 0.02 0  0.14 0.02 0  0.15 0.02 0  0.16 0.02 0  0.17 0.02 0  0.18 0.02 0  0.19 0.02 0  0.2 0.02 0  0.21 0.02 0  0.22 0.02 0  0.23 0.02 0  0.24 0.02 0  0.25 0.02 0  0.26 0.02 0  0.27 0.02 0  0.28 0.02 0  0.29 0.02 0  0.3 0.02 0  0.31 0.02 0  0.32 0.02 0  0.33 0.02 0  0.34 0.02 0  0.35 0.02 0  0.36 0.02 0  0.37 0.02 0  0.38 0.02 0  0.39 0.02 0  0.4 0.02 0  0.41 0.02 0  0.42 0.02 0  0.43 0.02 0  0.44 0.02 0  0.45 0.02 0  0.46 0.02 0  0.47 0.02 0  0.48 0.02 0  0.49 0.02 0  0.5 0.02 0  0.51 0.02 0  0.52 0.02 0  0.53 0.02 0  0.54 0.02 0  0.55 0.02 0  0.5600000000000001 0.02 0  0.57 0.02 0  0.58 0.02 0  0.59 0.02 0  0.6 0.02 0  0.61 0.02 0  0.62 0.02 0  0.63 0.02 0  0.64 0.02 0  0.65 0.02 0  0.66 0.02 0  0.67 0.02 0  0.68 0.02 0  0.6899999999999999 0.02 0  0.7 0.02 0  0.71 0.02 0  0.72 0.02 0  0.73 0.02 0  0.74 0.02 0  0.75 0.02 0  0.76 0.02 0  0.77 0.02 0  0.78 0.02 0  0.79 0.02 0  0.8 0.02 0  0.8100000000000001 0.02 0  0.82 0.02 0  0.83 0.02 0  0.84 0.02 0  0.85 0.02 0  0.86 0.02 0  0.87 0.02 0  0.88 0.02 0  0.89 0.02 0  0.9 0.02 0  0.91 0.02 0  0.92 0.02 0  0.93 0.02 0  0.9399999999999999 0.02 0  0.95 0.02 0  0.96 0.02 0  0.97 0.02 0  0.98 0.02 0  0.99 0.02 0  1 0.02 0  0 0.03 0  0.01 0.03 0  0.02 0.03 0  0.03 0.03 0  0.04 0.03 0  0.05 0.03 0  0.06 0.03 0  0.07000000000000001 0.03 0  0.08 0.03 0  0.09 0.03 0  0.1 0.03 0  0.11 0.03 0  0.12 0.03 0  0.13 0.03 0  0.14 0.03 0  0.15 0.03 0  0.16 0.03 0  0.17 0.03 0  0.18 0.03 0  0.19 0.03 0  0.2 0.03 0  0.21 0.03 0  0.22 0.03 0  0.23 0.03 0  0.24 0.03 0  0.25 0.03 0  0.26 0.03 0  0.27 0.03 0  0.28 0.03 0  0.29 0.03 0  0.3 0.03 0  0.31 0.03 0  0.32 0.03 0  0.33 0.03 0  0.34 0.03 0  0.35 0.03 0  0.36 0.03 0  0.37 0.03 0  0.38 0.03 0  0.39 0.03 0  0.4 0.03 0  0.41 0.03 0  0.42 0.03 0  0.43 0.03 0  0.44 0.03 0  0.45 0.03 0  0.46 0.03 0  0.47 0.03 0  0.48 0.03 0  0.49 0.03 0  0.5 0.03 0  0.51 0.03 0  0.52 0.03 0  0.53 0.03 0  0.54 0.03 0  0.55 0.03 0  0.5600000000000001 0.03 0  0.57 0.03 0  0.58 0.03 0  0.59 0.03 0  0.6 0.03 0  0.61 0.03 0  0.62 0.03 0  0.63 0.03 0  0.64 0.03 0  0.65 0.03 0  0.66 0.03 0  0.67 0.03 0  0.68 0.03 0  0.6899999999999999 0.03 0  0.7 0.03 0  0.71 0.03 0  0.72 0.03 0  0.73 0.03 0  0.74 0.03 0  0.75 0.03 0  0.76 0.03 0  0.77 0.03 0  0.78 0.03 0  0.79 0.03 0  0.8 0.03 0  0.8100000000000001 0.03 0  0.82 0.03 0  0.83 0.03 0  0.84 0.03 0  0.85 0.03 0  0.86 0.03 0  0.87 0.03 0  0.88 0.03 0  0.89 0.03 0  0.9 0.03 0  0.91 0.03 0  0.92 0.03 0  0.93 0.03 0  0.9399999999999999 0.03 0  0.95 0.03 0  0.96 0.03 0  0.97 0.03 0  0.98 0.03 0  0.99 0.03 0  1 0.03 0  0 0.04 0  0.01 0.04 0  0.02 0.04 0  0.03 0.04 0  0.04 0.04 0  0.05 0.04 0  0.06 0.04 0  0.07000000000000001 0.04 0  0.08 0.04 0  0.09 0.04 0  0.1 0.04 0  0.11 0.04 0  0.12 0.04 0  0.13 0.04 0  0.14 0.04 0  0.15 0.04 0  0.16 0.04 0  0.17 0.04 0  0.18 0.04 0  0.19 0.04 0  0.2 0.04 0  0.21 0.04 0  0.22 0.04 0  0.23 0.04 0  0.24 0.04 0  0.25 0.04 0  0.26 0.04 0  0.27 0.04 0  0.28 0.04 0  0.29 0.04 0  0.3 0.04 0  0.31 0.04 0  0.32 0.04 0  0.33 0.04 0  0.34 0.04 0  0.35 0.04 0  0.36 0.04 0  0.37 0.04 0  0.38 0.04 0  0.39 0.04 0  0.4 0.04 0  0.41 0.04 0  0.42 0.04 0  0.43 0.04 0  0.44 0.04 0  0.45 0.04 0  0.46 0.04 0  0.47 0.04 0  0.48 0.04 0  0.49 0.04 0  0.5 0.04 0  0.51 0.04 0  0.52 0.04 0  0.53 0.04 0  0.54 0.04 0  0.55 0.04 0  0.5600000000000001 0.04 0  0.57 0.04 0  0.58 0.04 0  0.59 0.04 0  0.6 0.04 0  0.61 0.04 0  0.62 0.04 0  0.63 0.04 0  0.64 0.04 0  0.65 0.04 0  0.66 0.04 0  0.67 0.04 0  0.68 0.04 0  0.6899999999999999 0.04 0  0.7 0.04 0  0.71 0.04 0  0.72 0.04 0  0.73 0.04 0  0.74 0.04 0  0.75 0.04 0  0.76 0.04 0  0.77 0.04 0  0.78 0.04 0  0.79 0.04 0  0.8 0.04 0  0.8100000000000001 0.04 0  0.82 0.04 0  0.83 0.04 0  0.84 0.04 0  0.85 0.04 0  0.86 0.04 0  0.87 0.04 0  0.88 0.04 0  0.89 0.04 0  0.9 0.04 0  0.91 0.04 0  0.92 0.04 0  0.93 0.04 0  0.9399999999999999 0.04 0  0.95 0.04 0  0.96 0.04 0  0.97 0.04 0  0.98 0.04 0  0.99 0.04 0  1 0.04 0  0 0.05 0  0.01 0.05 0  0.02 0.05 0  0.03 0.05 0  0.04 0.05 0  0.05 0.05 0  0.06 0.05 0  0.07000000000000001 0.05 0  0.08 0.05 0  0.09 0.05 0  0.1 0.05 0  0.11 0.05 0  0.12 0.05 0  0.13 0.05 0  0.14 0.05 0  0.15 0.05 0  0.16 0.05 0  0.17 0.05 0  0.18 0.05 0  0.19 0.05 0  0.2 0.05 0  0.21 0.05 0  0.22 0.05 0  0.23 0.05 0  0.24 0.05 0  0.25 0.05 0  0.26 0.05 0  0.27 0.05 0  0.28 0.05 0  0.29 0.05 0  0.3 0.05 0  0.31 0.05 0  0.32 0.05 0  0.33 0.05 0  0.34 0.05 0  0.35 0.05 0  0.36 0.05 0  0.37 0.05 0  0.38 0.05 0  0.39 0.05 0  0.4 0.05 0  0.41 0.05 0  0.42 0.05 0  0.43 0.05 0  0.44 0.05 0  0.45 0.05 0  0.46 0.05 0  0.47 0.05 0  0.48 0.05 0  0.49 0.05 0  0.5 0.05 0  0.51 0.05 0  0.52 0.05 0  0.53 0.05 0  0.54 0.05 0  0.55 0.05 0  0.5600000000000001 0.05 0  0.57 0.05 0  0.58 0.05 0  0.59 0.05 0  0.6 0.05 0  0.61 0.05 0  0.62 0.05 0  0.63 0.05 0  0.64 0.05 0  0.65 0.05 0  0.66 0.05 0  0.67 0.05 0  0.68 0.05 0  0.6899999999999999 0.05 0  0.7 0.05 0  0.71 0.05 0  0.72 0.05 0  0.73 0.05 0  0.74 0.05 0  0.75 0.05 0  0.76 0.05 0  0.77 0.05 0  0.78 0.05 0  0.79 0.05 0  0.8 0.05 0  0.8100000000000001 0.05 0  0.82 0.05 0  0.83 0.05 0  0.84 0.05 0  0.85 0.05 0  0.86 0.05 0  0.87 0.05 0  0.88 0.05 0  0.89 0.05 0  0.9 0.05 0  0.91 0.05 0  0.92 0.05 0  0.93 0.05 0  0.9399999999999999 0.05 0  0.95 0.05 0  0.96 0.05 0  0.97 0.05 0  0.98 0.05 0  0.99 0.05 0  1 0.05 0  0 0.06 0  0.01 0.06 0  0.02 0.06 0  0.03 0.06 0  0.04 0.06 0  0.05 0.06 0  0.06 0.06 0  0.07000000000000001 0.06 0  0.08 0.06 0  0.09 0.06 0  0.1 0.06 0  0.11 0.06 0  0.12 0.06 0  0.13 0.06 0  0.14 0.06 0  0.15 0.06 0  0.16 0.06 0  0.17 0.06 0  0.18 0.06 0  0.19 0.06 0  0.2 0.06 0  0.21 0.06 0  0.22 0.06 0  0.23 0.06 0  0.24 0.06 0  0.25 0.06 0  0.26 0.06 0  0.27 0.06 0  0.28 0.06 0  0.29 0.06 0  0.3 0.06 0  0.31 0.06 0  0.32 0.06 0  0.33 0.06 0  0.34 0.06 0  0.35 0.06 0  0.36 0.06 0  0.37 0.06 0  0.38 0.06 0  0.39 0.06 0  0.4 0.06 0  0.41 0.06 0  0.42 0.06 0  0.43 0.06 0  0.44 0.06 0  0.45 0.06 0  0.46 0.06 0  0.47 0.06 0  0.48 0.06 0  0.49 0.06 0  0.5 0.06 0  0.51 0.06 0  0.52 0.06 0  0.53 0.06 0  0.54 0.06 0  0.55 0.06 0  0.5600000000000001 0.06 0  0.57 0.06 0  0.58 0.06 0  0.59 0.06 0  0.6 0.06 0  0.61 0.06 0  0.62 0.06 0  0.63 0.06 0  0.64 0.06 0  0.65 0.06 0  0.66 0.06 0  0.67 0.06 0  0.68 0.06 0  0.6899999999999999 0.06 0  0.7 0.06 0  0.71 0.06 0  0.72 0.06 0  0.73 0.06 0  0.74 0.06 0  0.75 0.06 0  0.76 0.06 0  0.77 0.06 0  0.78 0.06 0  0.79 0.06 0  0.8 0.06 0  0.8100000000000001 0.06 0  0.82 0.06 0  0.83 0.06 0  0.84 0.06 0  0.85 0.06 0  0.86 0.06 0  0.87 0.06 0  0.88 0.06 0  0.89 0.06 0  0.9 0.06 0  0.91 0.06 0  0.92 0.06 0  0.93 0.06 0  0.9399999999999999 0.06 0  0.95 0.06 0  0.96 0.06 0  0.97 0.06 0  0.98 0.06 0  0.99 0.06 0  1 0.06 0  0 0.07000000000000001 0  0.01 0.07000000000000001 0  0.02 0.07000000000000001 0  0.03 0.07000000000000001 0  0.04 0.07000000000000001 0  0.05 0.07000000000000001 0  0.06 0.07000000000000001 0  0.07000000000000001 0.07000000000000001 0  0.08 0.07000000000000001 0  0.09 0.07000000000000001 0  0.1 0.07000000000000001 0  0.11 0.07000000000000001 0  0.12 0.07000000000000001 0  0.13 0.07000000000000001 0  0.14 0.07000000000000001 0  0.15 0.07000000000000001 0  0.16 0.07000000000000001 0  0.17 0.0700
[...]
<PointData  Scalars="u"> 
<DataArray  type="Float64"  Name="u"  format="ascii">0.0000000000000000e+00  0.0000000000000000e+00  0.0000000000000000e+00  0.0000000000000000e+00  0.0000000000000000e+00  0.0000000000000000e+00  0.0000000000000000e+00  0.0000000000000000e+00  0.0000000000000000e+00  0.0000000000000000e+00  0.0000000000000000e+00  0.0000000000000000e+00  0.0000000000000000e+00  0.0000000000000000e+00  0.0000000000000000e+00  0.0000000000000000e+00  0.0000000000000000e+00  0.0000000000000000e+00  0.0000000000000000e+00  0.0000000000000000e+00  0.0000000000000000e+00  0.0000000000000000e+00  0.0000000000000000e+00  0.0000000000000000e+00  0.0000000000000000e+00  0.0000000000000000e+00  0.0000000000000000e+00  0.0000000000000000e+00  0.0000000000000000e+00  0.0000000000000000e+00  0.0000000000000000e+00  0.0000000000000000e+00  0.0000000000000000e+00  0.0000000000000000e+00  0.0000000000000000e+00  0.0000000000000000e+00  0.0000000000000000e+00  0.0000000000000000e+00  0.0000000000000000e+00  0.0000000000000000e+00  0.0000000000000000e+00  0.0000000000000000e+00  0.0000000000000000e+00  0.0000000000000000e+00  0.0000000000000000e+00  0.0000000000000000e+00  0.0000000000000000e+00  0.0000000000000000e+00  0.0000000000000000e+00  0.0000000000000000e+00  0.0000000000000000e+00  0.0000000000000000e+00  0.0000000000000000e+00  0.0000000000000000e+00  0.0000000000000000e+00  0.0000000000000000e+00  0.0000000000000000e+00  0.0000000000000000e+00  0.0000000000000000e+00  0.0000000000000000e+00  0.0000000000000000e+00  0.0000000000000000e+00  0.0000000000000000e+00  0.0000000000000000e+00  0.0000000000000000e+00  0.0000000000000000e+00  0.0000000000000000e+00  0.0000000000000000e+00  0.0000000000000000e+00  0.0000000000000000e+00  0.0000000000000000e+00  0.0000000000000000e+00  0.0000000000000000e+00  0.0000000000000000e+00  0.0000000000000000e+00  0.0000000000000000e+00  0.0000000000000000e+00  0.0000000000000000e+00  0.0000000000000000e+00  0.0000000000000000e+00  0.0000000000000000e+00  0.0000000000000000e+00  0.0000000000000000e+00  0.0000000000000000e+00  0.0000000000000000e+00  0.0000000000000000e+00  0.0000000000000000e+00  0.0000000000000000e+00  0.0000000000000000e+00  0.0000000000000000e+00  0.0000000000000000e+00  0.0000000000000000e+00  0.0000000000000000e+00  0.0000000000000000e+00  0.0000000000000000e+00  0.0000000000000000e+00  0.0000000000000000e+00  0.0000000000000000e+00  0.0000000000000000e+00  0.0000000000000000e+00  0.0000000000000000e+00  0.0000000000000000e+00  9.8192178219867184e-10  2.0650980717037870e-09  3.2684170125842945e-09  4.6126564888837019e-09  6.1211269845129387e-09  7.8199464524372283e-09  9.7383365205816985e-09  1.1908935009217378e-08  1.4368121959650964e-08  1.7156356068262004e-08  2.0318517595315802e-08  2.3904252801085646e-08  2.7968313818210778e-08  3.2570886623419761e-08  3.7777898445743217e-08  4.3661294570192104e-08  5.0299273102549336e-08  5.7776464899677821e-08  6.6184044598863536e-08  7.5619757568679210e-08  8.6187846732890507e-08  9.7998862677673360e-08  1.1116934033768560e-07  1.2582132596893884e-07  1.4208173915575601e-07  1.6008155635858620e-07  1.7995480506870560e-07  2.0183736105295758e-07  2.2586554547466523e-07  2.5217452385483609e-07  2.8089651483285053e-07  3.1215882338609390e-07  3.4608172040282058e-07  3.8277619804093622e-07  4.2234163785833895e-07  4.6486343592803155e-07  5.1041063567459552e-07  5.5903362458768963e-07  6.1076195488340612e-07  6.6560235022256540e-07  7.2353696043756691e-07  7.8452192363004330e-07  8.4848628985191782e-07  9.1533135287317711e-07  9.8493042641319361e-07  1.0571290889573459e-06  1.1317459073243159e-06  1.2085736340399249e-06  1.2873808579506893e-06  1.3679140720691154e-06  1.4499001080884322e-06  1.5330488740080183e-06  1.6170563204636155e-06  1.7016075531324198e-06  1.7863800033077454e-06  1.8710465665704690e-06  1.9552786204106925e-06  2.0387488354948018e-06  2.1211337017042423e-06  2.2021156986502194e-06  2.2813850505676311e-06  2.3586410167433107e-06  2.4335926803653211e-06  2.5059592103503852e-06  2.5754695818369594e-06  2.6418617512288500e-06  2.7048812906471321e-06  2.7642794942133806e-06  2.8198109746708953e-06  2.8712307734814525e-06  2.9182910108334854e-06  2.9607371041625556e-06  2.9983035850768301e-06  3.0307095453071289e-06  3.0576537428020899e-06  3.0788093997217661e-06  3.0938187252133151e-06  3.1022871978439794e-06  3.1037776457761303e-06  3.0978041675401069e-06  3.0838259429222688e-06  3.0612409923481026e-06  3.0293799544957651e-06  2.9874999659939652e-06  2.9347787441860561e-06  2.8703089942976462e-06  2.7930932861119142e-06  2.7020395725760325e-06  2.5959575537201524e-06  2.4735561238821222e-06  2.3334421784167790e-06  2.1741210976139666e-06  1.9939992700271910e-06  1.7913890639746126e-06  1.5645167026278774e-06  1.3115335387435365e-06  1.0305312345950965e-06  7.1956119998251314e-07  3.7665783363795521e-07  0.0000000000000000e+00  0.0000000000000000e+00  2.1480711373096088e-09  4.5181068971816108e-09  7.1510939872627247e-09  1.0092586829067046e-08  1.3393680091715599e-08  1.7111626492854400e-08  2.1310490799976618e-08  2.6061838026942414e-08  3.1445451285068835e-08  3.7550072777794044e-08  4.4474159386109321e-08  5.2326642001970173e-08  6.1227675228839500e-08  7.1309361309029111e-08  8.2716429198680080e-08  9.5606846653003534e-08  1.1015234008758130e-07  1.2653879395011671e-07  1.4496649849979259e-07  1.6565021240231273e-07  1.8881900458596250e-07  2.1471583856728276e-07  2.4359686216036360e-07  2.7573036635660828e-07  3.1139537942624939e-07  3.5087986615917027e-07  3.9447850781121310e-07  4.4249004588631256e-07  4.9521418243072306e-07  5.5294804102297431e-07  6.1598220598629146e-07  6.8459637228203820e-07  7.5905465468393358e-07  8.3960062166757812e-07  9.2645213633082911e-07  1.0197961028245470e-06  1.1197832313680306e-06  1.2265229470476244e-06  1.3400785763489650e-06  1.4604629499112395e-06  1.5876345595953362e-06  1.7214944020941606e-06  1.8618836296939156e-06  2.0085821114241413e-06  2.1613079850384219e-06  2.3197182527050094e-06  2.4834104419304067e-06  2.6519253193351413e-06  2.8247506099029946e-06  3.0013256398063054e-06  3.1810467884654311e-06  3.3632736066413837e-06  3.5473354334129002e-06  3.7325383269066939e-06  3.9181721123453104e-06  4.1035173466835825e-06  4.2878520017612564e-06  4.4704576770729824e-06  4.6506251681834189e-06  4.8276592364727946e-06  5.0008824490817243e-06  5.1696379833429381e-06  5.3332913163466242e-06  5.4912307463725882e-06  5.6428667176702877e-06  5.7876299426117618e-06  5.9249683349478465e-06  6.0543427843793454e-06  6.1752218157689295e-06  6.2870751861555914e-06  6.3893664795800103e-06  6.4815447640495581e-06  6.5630353773588417e-06  6.6332299096321452e-06  6.6914754511263877e-06  6.7370631748235073e-06  6.7692163254576436e-06  6.7870776906664412e-06  6.7896966367070587e-06  6.7760158013887822e-06  6.7448575512577516e-06  6.6949103293031155e-06  6.6247150441680439e-06  6.5326516826296657e-06  6.4169263644928756e-06  6.2755591034959845e-06  6.1063725897514013e-06  5.9069823689490758e-06  5.6747888612250478e-06  5.4069717382832773e-06  5.1004872608985390e-06  4.7520692699041840e-06  4.3582346213944244e-06  3.9152939598021709e-06  3.4193688284739262e-06  2.8664162226851137e-06  2.2522617927838484e-06  1.5726430551723674e-06  8.2326510029249800e-07  0.0000000000000000e+00  0.0000000000000000e+00  3.5266637461446210e-09  7.4180929274055654e-09  1.1741551233640522e-08  1.6572031899594324e-08  2.1993667993898780e-08  2.8100752979847430e-08  3.4998824413007063e-08  4.2805804925187562e-08  5.1653193002289396e-08  6.1687292961834461e-08  7.3070470094490009e-08  8.5982413094162255e-08  1.0062138165565881e-07  1.1720541250029126e-07  1.3597345216255621e-07  1.5718637973212259e-07  1.8112787752770784e-07  2.0810510255562261e-07  2.3844910679063930e-07  2.7251495006847113e-07  3.1068144599748911e-07  3.5335047911978069e-07  4.0094583094523378e-07  4.5391145383107929e-07  5.1270913536754854e-07  5.7781550232060791e-07  6.4971832258947466e-07  7.2891207629526107e-07  8.1589278315085749e-07  9.1115209264744427e-07  1.0151706661266176e-06  1.1284109050778734e-06  1.2513091073698486e-06  1.3842671617146877e-06  1.5276439193737253e-06  1.6817464096315423e-06  1.8468210904301603e-06  2.0230453462119847e-06  2.2105194599129438e-06  2.4092592937196714e-06  2.6191899124111685e-06  2.8401403729243391e-06  3.0718398837188043e-06  3.3139155075844385e-06  3.5658915423132070e-06  3.8271906663018878e-06  4.0971368823695188e-06  4.3749602350419589e-06  4.6598032168106805e-06  4.9507287201507014e-06  5.2467293371456059e-06  5.5467377600192018e-06  5.8496379959790766e-06  6.1542770803137194e-06  6.4594769538232977e-06  6.7640461649035014e-06  7.0667910627558090e-06  7.3665261654307676e-06  7.6620834133280827e-06  7.9523200535427549e-06  8.2361249409352752e-06  8.5124230857577775e-06  8.7801783228514250e-06  9.0383940217696378e-06  9.2861117988799992e-06  9.5224082301186118e-06  9.7463895955889319e-06  9.9571847140195059e-06  1.0153935946046332e-05  1.0335788460581655e-05  1.0501877868723532e-05  1.0651316335580421e-05  1.0783177283079433e-05  1.0896478797493346e-05  1.0990165855355904e-05  1.1063091481978211e-05  1.1113996959280555e-05  1.1141491205440859e-05  1.1144029459216303e-05  1.1119891417945826e-05  1.1067159001349684e-05  1.0983693944402268e-05  1.0867115462785892e-05  1.0714778284681327e-05  1.0523751403775441e-05  1.0290797981130682e-05  1.0012356908612341e-05  9.6845266444090558e-06  9.3030520421264394e-06  8.8633150190652494e-06  8.3603300463926982e-06  7.7887455933765411e-06  7.1428528185968935e-06  6.4166029714604839e-06  5.6036351454006685e-06  4.6973162087182207e-06  3.6907949356447761e-06  2.5770725961474756e-06  1.3490928353983266e-06  0.0000000000000000e+00  0.0000000000000000e+00  5.1496938536593079e-09  1.0832455039923002e-08  1.7146703668322392e-08  2.4202354839596383e-08  3.2122756880758958e-08  4.1046198353732135e-08  5.1127509988424827e-08  6.2539753049941863e-08  7.5475983052030400e-08  9.0151073330446993e-08  1.0680357792228618e-07  1.2569760748188138e-07  1.4712468562059257e-07  1.7140554613781058e-07  1.9889182420653067e-07  2.2996758682962633e-07  2.6505063998777821e-07  3.0459354211262689e-07  3.4908424615977603e-07  3.9904628601337893e-07  4.5503841768033126e-07  5.1765362224029800e-07  5.8751737636866582e-07  6.6528509803378375e-07  7.5163868028272536e-07  8.4728203543769599e-07  9.5293558602533151e-07  1.0693296577335549e-06  1.1971967538465657e-06  1.3372627199354260e-06  1.4902368417908923e-06  1.6568009580659610e-06  1.8375977108811069e-06  2.0332181013976258e-06  2.2441885613833895e-06  2.4709577940563037e-06  2.7138836757167865e-06  2.9732205414465965e-06  3.2491072010214381e-06  3.5415560428740199e-06  3.8504435824971401e-06  4.1755027956461974e-06  4.5163175453157983e-06  4.8723193647646711e-06  5.2427867977796806e-06  5.6268474237563147e-06  6.0234826117516449e-06  6.4315349579048258e-06  6.8497182685418254e-06  7.2766298612109152e-06  7.7107648721753167e-06  8.1505321855799418e-06  8.5942715401055773e-06  9.0402713261146231e-06  9.4867865617814483e-06  9.9320565311111139e-06  1.0374321579613203e-05  1.0811838593226880e-05  1.1242894730538184e-05  1.1665819034380123e-05  1.2078991613134849e-05  1.2480850150882830e-05  1.2869893575468642e-05  1.3244682781384324e-05  1.3603838367393325e-05  1.3946035404911167e-05  1.4269995300868837e-05  1.4574474857339307e-05  1.4858252659482404e-05  1.5120112943827463e-05  1.5358827111534388e-05  1.5573133057424326e-05  1.5761712486920699e-05  1.5923166391462704e-05  1.6055988850433904e-05  1.6158539326215293e-05  1.6229013620640233e-05  1.6265413667853848e-05  1.6265516352237847e-05  1.6226841562426459e-05  1.6146619725184657e-05  1.6021759107603445e-05  1.5848813234148257e-05  1.5623948837913441e-05  1.5342914854215455e-05  1.5001013070483680e-05  1.4593071170210231e-05  1.4113419051217942e-05  1.3555869460170598e-05  1.2913704166216500e-05  1.2179667096655683e-05  1.1345966075757835e-05  1.0404285042927918e-05  9.3458088762429426e-06  8.1612632093341434e-06  6.8409719009297215e-06  5.3749350941969237e-06  3.7529310760604097e-06  1.9646457732414295e-06  0.0000000000000000e+00  0.0000000000000000e+00  7.0538347102306865e-09  1.4838456912517779e-08  2.3489159946580501e-08  3.3157218650540263e-08  4.4012460191775563e-08  5.6245359151924773e-08  7.0069266687913244e-08  8.5722762691539936e-08  1.0347211588226519e-07  1.2361383065059034e-07  1.4647725240086542e-07  1.7242719512465154e-07  2.0186654599802264e-07  2.3523879200826021e-07  2.7303040310215724e-07  3.1577299530142317e-07  3.6404518591995627e-07  4.1847404179962246e-07  4.7973601080686041e-07  5.4855721725158292e-07  6.2571299404999550e-07  7.1202651909196298e-07  8.0836642120458251e-07  9.1564322318983835e-07  1.0348044965330815e-06  1.1668286153747682e-06  1.3127170169618608e-06  1.4734849026366035e-06  1.6501503478278755e-06  1.8437218315098473e-06  2.0551842448074293e-06  2.2854834940056514e-06  2.5355098737788653e-06  2.8060804500563393e-06  3.0979207560955732e-06  3.4116461670593600e-06  3.7477433743112538e-06  4.1065524271440508e-06  4.4882498430936058e-06  4.8928333049389975e-06  5.3201084600106725e-06  5.7696783133479133e-06  6.2409356594159030e-06  6.7330589275916023e-06  7.2450117259014203e-06  7.7755462583871578e-06  8.3232106681554275e-06  8.8863602259213416e-06  9.4631721488039491e-06  1.0051663702812585e-05  1.0649713121405303e-05  1.1255082767747937e-05  1.1865443884983490e-05  1.2478402220783549e-05  1.3091523782004120e-05  1.3702359973043891e-05  1.4308471396475996e-05  1.4907449644146177e-05  1.5496936477382456e-05  1.6074639881497658e-05  1.6638346577096434e-05  1.7185930673389312e-05  1.7715358251560805e-05  1.8224687764574232e-05  1.8712066229754895e-05  1.9175721269154329e-05  1.9613949118171314e-05  2.0025098774322982e-05  2.0407552495514297e-05  2.0759702881578240e-05  2.1079926785887616e-05  2.1366556307636575e-05  2.1617847112508178e-05  2.1831944322661311e-05  2.2006846209178212e-05  2.2140365914205011e-05  2.2230091428822049e-05  2.2273344058903846e-05  2.2267135627430174e-05  2.2208124690286218e-05  2.2092572085773751e-05  2.1916296197923026e-05  2.1674628392166718e-05  2.1362369180785338e-05  2.0973745796372881e-05  2.0502371995840515e-05  1.9941211086410224e-05  1.9282543359619264e-05  1.8517939340205773e-05  1.7638240504090892e-05  1.6633549393193524e-05  1.5493231353508063e-05  1.4205930444921800e-05  1.2759602413846738e-05  1.1141567978952786e-05  9.3385900506355042e-06  7.3369788777750865e-06  5.1227294764210362e-06  2.6816964873050167e-06  0.0000000000000000e+00  0.0000000000000000e+00  9.2810734182089327e-09  1.9524574661977706e-08  3.0909370510433384e-08  4.3635652895445429e-08  5.7928268464496629e-08  7.4039525340929362e-08  9.2252183011470732e-08  1.1288261145875020e-07  1.3628410004282791e-07  1.6285028839418223e-07  1.9301868204053410e-07  2.2727420462580933e-07  2.6615272641563851e-07  3.1024449540332173e-07  3.6019738289128421e-07  4.1671984017521834e-07  4.8058344725805355e-07  5.5262491884713330e-07  6.3374741785248447e-07  7.2492101296012415e-07  8.2718210549678121e-07  9.4163164276054116e-07  1.0694319314096061e-06  1.2118018666045393e-06  1.3700104016470598e-06  1.5453681000771056e-06  1.7392166386894378e-06  1.9529161666052584e-06  2.1878304729475754e-06  2.4453099739348544e-06  2.7266725988679136e-06  3.0331827324003849e-06  3.3660284557447660e-06  3.7262974193488572e-06  4.1149517705419941e-06  4.5328026474135461e-06  4.9804848298666603e-06  5.4584322051324454e-06  5.9668547527087876e-06  6.5057177776742635e-06  7.0747241172973496e-06  7.6733000106155741e-06  8.3005852525155162e-06  8.9554281529525702e-06  9.6363856904974270e-06  1.0341729091661805e-05  1.1069454889683704e-05  1.1817301326553463e-05  1.2582769769138152e-05  1.3363150624005013e-05  1.4155553065544838e-05  1.4956937747037676e-05  1.5764151551708344e-05  1.6573963365910755e-05  1.7383099822312447e-05  1.8188279967748142e-05  1.8986247856217573e-05  1.9773802148039793e-05  2.0547821905365092e-05  2.1305287904752397e-05  2.2043298931357511e-05  2.2759082668407110e-05  2.3450000942516716e-05  2.4113549223464259e-05  2.4747350400949794e-05  2.5349142966839557e-05  2.5916763817136043e-05  2.6448125952665620e-05  2.6941191401822768e-05  2.7393939714407282e-05  2.7804332385309482e-05  2.8170273563887282e-05  2.8489567393118788e-05  2.8759872306019261e-05  2.8978652589443126e-05  2.9143127511240338e-05  2.9250218299611843e-05  2.9296493267002397e-05  2.9278111388311467e-05  2.9190764677675621e-05  2.9029619762411746e-05  2.8789259129523186e-05  2.8463622621865393e-05  2.8045949889860359e-05  2.7528724662558267e-05  2.6903621890686686e-05  2.6161459035659279e-05  2.5292153033591476e-05  2.4284684753032105e-05  2.3127073089688582e-05  2.1806361200541103e-05  2.0308617772186060e-05  1.8618956641723666e-05  1.6721578539360785e-05  1.4599839194790858e-05  1.2236348536697937e-05  9.6131062055046104e-06  6.7116790801751825e-06  3.5134274995679674e-06  0.0000000000000000e+00  0.0000000000000000e+00  1.1879419209803198e-08  2.4991995800026309e-08  3.9568021167069874e-08  5.5865473733113309e-08  7.4174259621976875e-08  9.4819881774154871e-08  1.1816735399480158e-07  1.4462534309053169e-07  1.7465051470167588e-07  2.0875204761437407e-07  2.4749626875949381e-07  2.9151134671820173e-07  3.4149196536779944e-07  3.9820388140627740e-07  4.6248825008000148e-07  5.3526558281859717e-07  6.1753917911211259e-07  7.1039785347243491e-07  8.1501775751340061e-07  9.3266307807015242e-07  1.0646853760689699e-06  1.2125213189605547e-06  1.3776885535224072e-06  1.5617794674303348e-06  1.7664525989733994e-06  1.9934214763968119e-06  2.2444407032217854e-06  2.5212891548507202e-06  2.8257502157209771e-06  3.1595890655052690e-06  3.5245271168605406e-06  3.9222138145266036e-06  4.3541961235974235e-06  4.8218861597760040e-06  5.3265275414285415e-06  5.8691611662195395e-06  6.4505912270744849e-06  7.0713523756309950e-06  7.7316790085060066e-06  8.4314776853208535e-06  9.1703036811838648e-06  9.9473426255590210e-06  1.0761398081698074e-05  1.1610885776335559e-05  1.2493835001411285e-05  1.3407897484556552e-05  1.4350363772230320e-05  1.5318186900429176e-05  1.6308012856243848e-05  1.7316217073403487e-05  1.8338945970276842e-05  1.9372162342194514e-05  2.0411693271709027e-05  2.1453279127712388e-05  2.2492622190767343e-05  2.3525433467360648e-05  2.4547476336186854e-05  2.5554605797953745e-05  2.6542802266998783e-05  2.7508199037022271e-05  2.8447102762571341e-05  2.9356006510840886e-05  3.0231595144184330e-05  3.1070742983357312e-05  3.1870503867921004e-05  3.2628093868643828e-05  3.3340867014700088e-05  3.4006284475656606e-05  3.4621877686244950e-05  3.5185205923855153e-05  3.5693808848846101e-05  3.6145154501219049e-05  3.6536583219462027e-05  3.6865247914111217e-05  3.7128051095378831e-05  3.7321579026406402e-05  3.7442033356313193e-05  3.7485160584812156e-05  3.7446179726945600e-05  3.7319708586246109e-05  3.7099689110795369e-05  3.6779312402382739e-05  3.6350944077130202e-05  3.5806050839196442e-05  3.5135129329928929e-05  3.4327638555278788e-05  3.3371937476346026e-05  3.2255229673122760e-05  3.0963517360939369e-05  2.9481567453238828e-05  2.7792892822750086e-05  2.5879752414472087e-05  2.3723174405342476e-05  2.1303007182555951e-05  1.8598003518575839e-05  1.5585943946572956e-05  1.2243805972643708e-05  8.5479863859600494e-06  4.4745851192034398e-06  0.0000000000000000e+00  0.0000000000000000e+00  1.4903688484939404e-08  3.1356280363772781e-08  4.9648687701410659e-08  7.0107080503918687e-08  9.3098222572989495e-08  1.1903418673322616e-07  1.4837739311059079e-07  1.8164595064745940e-07  2.1941927216109730e-07  2.6234391930088996e-07  3.1113961745890620e-07  3.6660536194291097e-07  4.2962551551601930e-07  5.0117577382989171e-07  5.8232884954603784e-07  6.7425969843097499e-07  7.7825008199787183e-07  8.9569223214711919e-07  1.0280913547819558e-06  1.1770666828691873e-06  1.3443507664923761e-06  1