<?xml version="1.0"?>
<VTKFile type="UnstructuredGrid"  version="0.1"  >
<UnstructuredGrid>
<Piece  NumberOfPoints="10201" NumberOfCells="20000">
<Points>
<DataArray  type="Float64"  NumberOfComponents="3"  format="ascii">0 0 0  0.01 0 0  0.02 0 0  0.03 0 0  0.04 0 0  0.05 0 0  0.06 0 0  0.07000000000000001 0 0  0.08 0 0  0.09 0 0  0.1 0 0  0.11 0 0  0.12 0 0  0.13 0 0  0.14 0 0  0.15 0 0  0.16 0 0  0.17 0 0  0.18 0 0  0.19 0 0  0.2 0 0  0.21 0 0  0.22 0 0  0.23 0 0  0.24 0 0  0.25 0 0  0.26 0 0  0.27 0 0  0.28 0 0  0.29 0 0  0.3 0 0  0.31 0 0  0.32 0 0  0.33 0 0  0.34 0 0  0.35 0 0  0.36 0 0  0.37 0 0  0.38 0 0  0.39 0 0  0.4 0 0  0.41 0 0  0.42 0 0  0.43 0 0  0.44 0 0  0.45 0 0  0.46 0 0  0.47 0 0  0.48 0 0  0.49 0 0  0.5 0 0  0.51 0 0  0.52 0 0  0.53 0 0  0.54 0 0  0.55 0 0  0.5600000000000001 0 0  0.57 0 0  0.58 0 0  0.59 0 0  0.6 0 0  0.61 0 0  0.62 0 0  0.63 0 0  0.64 0 0  0.65 0 0  0.66 0 0  0.67 0 0  0.68 0 0  0.6899999999999999 0 0  0.7 0 0  0.71 0 0  0.72 0 0  0.73 0 0  0.74 0 0  0.75 0 0  0.76 0 0  0.77 0 0  0.78 0 0  0.79 0 0  0.8 0 0  0.8100000000000001 0 0  0.82 0 0  0.83 0 0  0.84 0 0  0.85 0 0  0.86 0 0  0.87 0 0  0.88 0 0  0.89 0 0  0.9 0 0  0.91 0 0  0.92 0 0  0.93 0 0  0.9399999999999999 0 0  0.95 0 0  0.96 0 0  0.97 0 0  0.98 0 0  0.99 0 0  1 0 0  0 0.01 0  0.01 0.01 0  0.02 0.01 0  0.03 0.01 0  0.04 0.01 0  0.05 0.01 0  0.06 0.01 0  0.07000000000000001 0.01 0  0.08 0.01 0  0.09 0.01 0  0.1 0.01 0  0.11 0.01 0  0.12 0.01 0  0.13 0.01 0  0.14 0.01 0  0.15 0.01 0  0.16 0.01 0  0.17 0.01 0  0.18 0.01 0  0.19 0.01 0  0.2 0.01 0  0.21 0.01 0  0.22 0.01 0  0.23 0.01 0  0.24 0.01 0  0.25 0.01 0  0.26 0.01 0  0.27 0.01 0  0.28 0.01 0  0.29 0.01 0  0.3 0.01 0  0.31 0.01 0  0.32 0.01 0  0.33 0.01 0  0.34 0.01 0  0.35 0.01 0  0.36 0.01 0  0.37 0.01 0  0.38 0.01 0  0.39 0.01 0  0.4 0.01 0  0.41 0.01 0  0.42 0.01 0  0.43 0.01 0  0.44 0.01 0  0.45 0.01 0  0.46 0.01 0  0.47 0.01 0  0.48 0.01 0  0.49 0.01 0  0.5 0.01 0  0.51 0.01 0  0.52 0.01 0  0.53 0.01 0  0.54 0.01 0  0.55 0.01 0  0.5600000000000001 0.01 0  0.57 0.01 0  0.58 0.01 0  0.59 0.01 0  0.6 0.01 0  0.61 0.01 0  0.62 0.01 0  0.63 0.01 0  0.64 0.01 0  0.65 0.01 0  0.66 0.01 0  0.67 0.01 0  0.68 0.01 0  0.6899999999999999 0.01 0  0.7 0.01 0  0.71 0.01 0  0.72 0.01 0  0.73 0.01 0  0.74 0.01 0  0.75 0.01 0  0.76 0.01 0  0.77 0.01 0  0.78 0.01 0  0.79 0.01 0  0.8 0.01 0  0.8100000000000001 0.01 0  0.82 0.01 0  0.83 0.01 0  0.84 0.01 0  0.85 0.01 0  0.86 0.01 0  0.87 0.01 0  0.88 0.01 0  0.89 0.01 0  0.9 0.01 0  0.91 0.01 0  0.92 0.01 0  0.93 0.01 0  0.9399999999999999 0.01 0  0.95 0.01 0  0.96 0.01 0  0.97 0.01 0  0.98 0.01 0  0.99 0.01 0  1 0.01 0  0 0.02 0  0.01 0.02 0  0.02 0.02 0  0.03 0.02 0  0.04 0.02 0  0.05 0.02 0  0.06 0.02 0  0.07000000000000001 0.02 0  0.08 0.02 0  0.09 0.02 0  0.1 0.02 0  0.11 0.02 0  0.12 0.02 0  0.13 0.02 0  0.14 0.02 0  0.15 0.02 0  0.16 0.02 0  0.17 0.02 0  0.18 0.02 0  0.19 0.02 0  0.2 0.02 0  0.21 0.02 0  0.22 0.02 0  0.23 0.02 0  0.24 0.02 0  0.25 0.02 0  0.26 0.02 0  0.27 0.02 0  0.28 0.02 0  0.29 0.02 0  0.3 0.02 0  0.31 0.02 0  0.32 0.02 0  0.33 0.02 0  0.34 0.02 0  0.35 0.02 0  0.36 0.02 0  0.37 0.02 0  0.38 0.02 0  0.39 0.02 0  0.4 0.02 0  0.41 0.02 0  0.42 0.02 0  0.43 0.02 0  0.44 0.02 0  0.45 0.02 0  0.46 0.02 0  0.47 0.02 0  0.48 0.02 0  0.49 0.02 0  0.5 0.02 0  0.51 0.02 0  0.52 0.02 0  0.53 0.02 0  0.54 0.02 0  0.55 0.02 0  0.5600000000000001 0.02 0  0.57 0.02 0  0.58 0.02 0  0.59 0.02 0  0.6 0.02 0  0.61 0.02 0  0.62 0.02 0  0.63 0.02 0  0.64 0.02 0  0.65 0.02 0  0.66 0.02 0  0.67 0.02 0  0.68 0.02 0  0.6899999999999999 0.02 0  0.7 0.02 0  0.71 0.02 0  0.72 0.02 0  0.73 0.02 0  0.74 0.02 0  0.75 0.02 0  0.76 0.02 0  0.77 0.02 0  0.78 0.02 0  0.79 0.02 0  0.8 0.02 0  0.8100000000000001 0.02 0  0.82 0.02 0  0.83 0.02 0  0.84 0.02 0  0.85 0.02 0  0.86 0.02 0  0.87 0.02 0  0.88 0.02 0  0.89 0.02 0  0.9 0.02 0  0.91 0.02 0  0.92 0.02 0  0.93 0.02 0  0.9399999999999999 0.02 0  0.95 0.02 0  0.96 0.02 0  0.97 0.02 0  0.98 0.02 0  0.99 0.02 0  1 0.02 0  0 0.03 0  0.01 0.03 0  0.02 0.03 0  0.03 0.03 0  0.04 0.03 0  0.05 0.03 0  0.06 0.03 0  0.07000000000000001 0.03 0  0.08 0.03 0  0.09 0.03 0  0.1 0.03 0  0.11 0.03 0  0.12 0.03 0  0.13 0.03 0  0.14 0.03 0  0.15 0.03 0  0.16 0.03 0  0.17 0.03 0  0.18 0.03 0  0.19 0.03 0  0.2 0.03 0  0.21 0.03 0  0.22 0.03 0  0.23 0.03 0  0.24 0.03 0  0.25 0.03 0  0.26 0.03 0  0.27 0.03 0  0.28 0.03 0  0.29 0.03 0  0.3 0.03 0  0.31 0.03 0  0.32 0.03 0  0.33 0.03 0  0.34 0.03 0  0.35 0.03 0  0.36 0.03 0  0.37 0.03 0  0.38 0.03 0  0.39 0.03 0  0.4 0.03 0  0.41 0.03 0  0.42 0.03 0  0.43 0.03 0  0.44 0.03 0  0.45 0.03 0  0.46 0.03 0  0.47 0.03 0  0.48 0.03 0  0.49 0.03 0  0.5 0.03 0  0.51 0.03 0  0.52 0.03 0  0.53 0.03 0  0.54 0.03 0  0.55 0.03 0  0.5600000000000001 0.03 0  0.57 0.03 0  0.58 0.03 0  0.59 0.03 0  0.6 0.03 0  0.61 0.03 0  0.62 0.03 0  0.63 0.03 0  0.64 0.03 0  0.65 0.03 0  0.66 0.03 0  0.67 0.03 0  0.68 0.03 0  0.6899999999999999 0.03 0  0.7 0.03 0  0.71 0.03 0  0.72 0.03 0  0.73 0.03 0  0.74 0.03 0  0.75 0.03 0  0.76 0.03 0  0.77 0.03 0  0.78 0.03 0  0.79 0.03 0  0.8 0.03 0  0.8100000000000001 0.03 0  0.82 0.03 0  0.83 0.03 0  0.84 0.03 0  0.85 0.03 0  0.86 0.03 0  0.87 0.03 0  0.88 0.03 0  0.89 0.03 0  0.9 0.03 0  0.91 0.03 0  0.92 0.03 0  0.93 0.03 0  0.9399999999999999 0.03 0  0.95 0.03 0  0.96 0.03 0  0.97 0.03 0  0.98 0.03 0  0.99 0.03 0  1 0.03 0  0 0.04 0  0.01 0.04 0  0.02 0.04 0  0.03 0.04 0  0.04 0.04 0  0.05 0.04 0  0.06 0.04 0  0.07000000000000001 0.04 0  0.08 0.04 0  0.09 0.04 0  0.1 0.04 0  0.11 0.04 0  0.12 0.04 0  0.13 0.04 0  0.14 0.04 0  0.15 0.04 0  0.16 0.04 0  0.17 0.04 0  0.18 0.04 0  0.19 0.04 0  0.2 0.04 0  0.21 0.04 0  0.22 0.04 0  0.23 0.04 0  0.24 0.04 0  0.25 0.04 0  0.26 0.04 0  0.27 0.04 0  0.28 0.04 0  0.29 0.04 0  0.3 0.04 0  0.31 0.04 0  0.32 0.04 0  0.33 0.04 0  0.34 0.04 0  0.35 0.04 0  0.36 0.04 0  0.37 0.04 0  0.38 0.04 0  0.39 0.04 0  0.4 0.04 0  0.41 0.04 0  0.42 0.04 0  0.43 0.04 0  0.44 0.04 0  0.45 0.04 0  0.46 0.04 0  0.47 0.04 0  0.48 0.04 0  0.49 0.04 0  0.5 0.04 0  0.51 0.04 0  0.52 0.04 0  0.53 0.04 0  0.54 0.04 0  0.55 0.04 0  0.5600000000000001 0.04 0  0.57 0.04 0  0.58 0.04 0  0.59 0.04 0  0.6 0.04 0  0.61 0.04 0  0.62 0.04 0  0.63 0.04 0  0.64 0.04 0  0.65 0.04 0  0.66 0.04 0  0.67 0.04 0  0.68 0.04 0  0.6899999999999999 0.04 0  0.7 0.04 0  0.71 0.04 0  0.72 0.04 0  0.73 0.04 0  0.74 0.04 0  0.75 0.04 0  0.76 0.04 0  0.77 0.04 0  0.78 0.04 0  0.79 0.04 0  0.8 0.04 0  0.8100000000000001 0.04 0  0.82 0.04 0  0.83 0.04 0  0.84 0.04 0  0.85 0.04 0  0.86 0.04 0  0.87 0.04 0  0.88 0.04 0  0.89 0.04 0  0.9 0.04 0  0.91 0.04 0  0.92 0.04 0  0.93 0.04 0  0.9399999999999999 0.04 0  0.95 0.04 0  0.96 0.04 0  0.97 0.04 0  0.98 0.04 0  0.99 0.04 0  1 0.04 0  0 0.05 0  0.01 0.05 0  0.02 0.05 0  0.03 0.05 0  0.04 0.05 0  0.05 0.05 0  0.06 0.05 0  0.07000000000000001 0.05 0  0.08 0.05 0  0.09 0.05 0  0.1 0.05 0  0.11 0.05 0  0.12 0.05 0  0.13 0.05 0  0.14 0.05 0  0.15 0.05 0  0.16 0.05 0  0.17 0.05 0  0.18 0.05 0  0.19 0.05 0  0.2 0.05 0  0.21 0.05 0  0.22 0.05 0  0.23 0.05 0  0.24 0.05 0  0.25 0.05 0  0.26 0.05 0  0.27 0.05 0  0.28 0.05 0  0.29 0.05 0  0.3 0.05 0  0.31 0.05 0  0.32 0.05 0  0.33 0.05 0  0.34 0.05 0  0.35 0.05 0  0.36 0.05 0  0.37 0.05 0  0.38 0.05 0  0.39 0.05 0  0.4 0.05 0  0.41 0.05 0  0.42 0.05 0  0.43 0.05 0  0.44 0.05 0  0.45 0.05 0  0.46 0.05 0  0.47 0.05 0  0.48 0.05 0  0.49 0.05 0  0.5 0.05 0  0.51 0.05 0  0.52 0.05 0  0.53 0.05 0  0.54 0.05 0  0.55 0.05 0  0.5600000000000001 0.05 0  0.57 0.05 0  0.58 0.05 0  0.59 0.05 0  0.6 0.05 0  0.61 0.05 0  0.62 0.05 0  0.63 0.05 0  0.64 0.05 0  0.65 0.05 0  0.66 0.05 0  0.67 0.05 0  0.68 0.05 0  0.6899999999999999 0.05 0  0.7 0.05 0  0.71 0.05 0  0.72 0.05 0  0.73 0.05 0  0.74 0.05 0  0.75 0.05 0  0.76 0.05 0  0.77 0.05 0  0.78 0.05 0  0.79 0.05 0  0.8 0.05 0  0.8100000000000001 0.05 0  0.82 0.05 0  0.83 0.05 0  0.84 0.05 0  0.85 0.05 0  0.86 0.05 0  0.87 0.05 0  0.88 0.05 0  0.89 0.05 0  0.9 0.05 0  0.91 0.05 0  0.92 0.05 0  0.93 0.05 0  0.9399999999999999 0.05 0  0.95 0.05 0  0.96 0.05 0  0.97 0.05 0  0.98 0.05 0  0.99 0.05 0  1 0.05 0  0 0.06 0  0.01 0.06 0  0.02 0.06 0  0.03 0.06 0  0.04 0.06 0  0.05 0.06 0  0.06 0.06 0  0.07000000000000001 0.06 0  0.08 0.06 0  0.09 0.06 0  0.1 0.06 0  0.11 0.06 0  0.12 0.06 0  0.13 0.06 0  0.14 0.06 0  0.15 0.06 0  0.16 0.06 0  0.17 0.06 0  0.18 0.06 0  0.19 0.06 0  0.2 0.06 0  0.21 0.06 0  0.22 0.06 0  0.23 0.06 0  0.24 0.06 0  0.25 0.06 0  0.26 0.06 0  0.27 0.06 0  0.28 0.06 0  0.29 0.06 0  0.3 0.06 0  0.31 0.06 0  0.32 0.06 0  0.33 0.06 0  0.34 0.06 0  0.35 0.06 0  0.36 0.06 0  0.37 0.06 0  0.38 0.06 0  0.39 0.06 0  0.4 0.06 0  0.41 0.06 0  0.42 0.06 0  0.43 0.06 0  0.44 0.06 0  0.45 0.06 0  0.46 0.06 0  0.47 0.06 0  0.48 0.06 0  0.49 0.06 0  0.5 0.06 0  0.51 0.06 0  0.52 0.06 0  0.53 0.06 0  0.54 0.06 0  0.55 0.06 0  0.5600000000000001 0.06 0  0.57 0.06 0  0.58 0.06 0  0.59 0.06 0  0.6 0.06 0  0.61 0.06 0  0.62 0.06 0  0.63 0.06 0  0.64 0.06 0  0.65 0.06 0  0.66 0.06 0  0.67 0.06 0  0.68 0.06 0  0.6899999999999999 0.06 0  0.7 0.06 0  0.71 0.06 0  0.72 0.06 0  0.73 0.06 0  0.74 0.06 0  0.75 0.06 0  0.76 0.06 0  0.77 0.06 0  0.78 0.06 0  0.79 0.06 0  0.8 0.06 0  0.8100000000000001 0.06 0  0.82 0.06 0  0.83 0.06 0  0.84 0.06 0  0.85 0.06 0  0.86 0.06 0  0.87 0.06 0  0.88 0.06 0  0.89 0.06 0  0.9 0.06 0  0.91 0.06 0  0.92 0.06 0  0.93 0.06 0  0.9399999999999999 0.06 0  0.95 0.06 0  0.96 0.06 0  0.97 0.06 0  0.98 0.06 0  0.99 0.06 0  1 0.06 0  0 0.07000000000000001 0  0.01 0.07000000000000001 0  0.02 0.07000000000000001 0  0.03 0.07000000000000001 0  0.04 0.07000000000000001 0  0.05 0.07000000000000001 0  0.06 0.07000000000000001 0  0.07000000000000001 0.07000000000000001 0  0.08 0.07000000000000001 0  0.09 0.07000000000000001 0  0.1 0.07000000000000001 0  0.11 0.07000000000000001 0  0.12 0.07000000000000001 0  0.13 0.07000000000000001 0  0.14 0.07000000000000001 0  0.15 0.07000000000000001 0  0.16 0.07000000000000001 0  0.17 0.0700
[...]
<PointData  Scalars="u"> 
<DataArray  type="Float64"  Name="u"  format="ascii">0.0000000000000000e+00  0.0000000000000000e+00  0.0000000000000000e+00  0.0000000000000000e+00  0.0000000000000000e+00  0.0000000000000000e+00  0.0000000000000000e+00  0.0000000000000000e+00  0.0000000000000000e+00  0.0000000000000000e+00  0.0000000000000000e+00  0.0000000000000000e+00  0.0000000000000000e+00  0.0000000000000000e+00  0.0000000000000000e+00  0.0000000000000000e+00  0.0000000000000000e+00  0.0000000000000000e+00  0.0000000000000000e+00  0.0000000000000000e+00  0.0000000000000000e+00  0.0000000000000000e+00  0.0000000000000000e+00  0.0000000000000000e+00  0.0000000000000000e+00  0.0000000000000000e+00  0.0000000000000000e+00  0.0000000000000000e+00  0.0000000000000000e+00  0.0000000000000000e+00  0.0000000000000000e+00  0.0000000000000000e+00  0.0000000000000000e+00  0.0000000000000000e+00  0.0000000000000000e+00  0.0000000000000000e+00  0.0000000000000000e+00  0.0000000000000000e+00  0.0000000000000000e+00  0.0000000000000000e+00  0.0000000000000000e+00  0.0000000000000000e+00  0.0000000000000000e+00  0.0000000000000000e+00  0.0000000000000000e+00  0.0000000000000000e+00  0.0000000000000000e+00  0.0000000000000000e+00  0.0000000000000000e+00  0.0000000000000000e+00  0.0000000000000000e+00  0.0000000000000000e+00  0.0000000000000000e+00  0.0000000000000000e+00  0.0000000000000000e+00  0.0000000000000000e+00  0.0000000000000000e+00  0.0000000000000000e+00  0.0000000000000000e+00  0.0000000000000000e+00  0.0000000000000000e+00  0.0000000000000000e+00  0.0000000000000000e+00  0.0000000000000000e+00  0.0000000000000000e+00  0.0000000000000000e+00  0.0000000000000000e+00  0.0000000000000000e+00  0.0000000000000000e+00  0.0000000000000000e+00  0.0000000000000000e+00  0.0000000000000000e+00  0.0000000000000000e+00  0.0000000000000000e+00  0.0000000000000000e+00  0.0000000000000000e+00  0.0000000000000000e+00  0.0000000000000000e+00  0.0000000000000000e+00  0.0000000000000000e+00  0.0000000000000000e+00  0.0000000000000000e+00  0.0000000000000000e+00  0.0000000000000000e+00  0.0000000000000000e+00  0.0000000000000000e+00  0.0000000000000000e+00  0.0000000000000000e+00  0.0000000000000000e+00  0.0000000000000000e+00  0.0000000000000000e+00  0.0000000000000000e+00  0.0000000000000000e+00  0.0000000000000000e+00  0.0000000000000000e+00  0.0000000000000000e+00  0.0000000000000000e+00  0.0000000000000000e+00  0.0000000000000000e+00  0.0000000000000000e+00  0.0000000000000000e+00  0.0000000000000000e+00  8.4319657328082741e-07  1.5571829393548180e-06  2.1652425582712649e-06  2.6863024003018307e-06  3.1357421731933784e-06  3.5260256573508021e-06  3.8672210799315464e-06  4.1674298962934445e-06  4.4331400314873065e-06  4.6695168804717755e-06  4.8806430890856302e-06  5.0697162439061326e-06  5.2392120211716970e-06  5.3910190303457804e-06  5.5265504932788158e-06  5.6468369889926597e-06  5.7526037363763467e-06  5.8443352569388438e-06  5.9223297357557457e-06  5.9867449629480400e-06  6.0376373755228211e-06  6.0749954178266127e-06  6.0987681880233791e-06  6.1088901295641275e-06  6.1053023537725324e-06  6.0879710369502570e-06  6.0569032184176313e-06  6.0121602311642982e-06  5.9538689215355375e-06  5.8822307564470093e-06  5.7975288742648031e-06  5.7001331072790429e-06  5.5905029884002742e-06  5.4691887511653650e-06  5.3368303391948611e-06  5.1941544576503363e-06  5.0419697236088817e-06  4.8811600030270515e-06  4.7126760573352595e-06  4.5375256607236690e-06  4.3567623877403496e-06  4.1714733077230117e-06  3.9827658556294358e-06  3.7917541759239132e-06  3.5995452554449489e-06  3.4072251710828704e-06  3.2158457775396287e-06  3.0264121488598714e-06  2.8398710648339405e-06  2.6571008004107452e-06  2.4789024341407492e-06  2.3059928421427171e-06  2.1389994893212198e-06  1.9784570720134559e-06  1.8248060085036950e-06  1.6783927184680219e-06  1.5394715817630284e-06  1.4082084230740236e-06  1.2846853333647904e-06  1.1689066128693531e-06  1.0608056040237375e-06  9.6025217618903244e-07  8.6706062669877553e-07  7.8099777368227327e-07  7.0179103395572303e-07  6.2913630250975895e-07  5.6270547713445832e-07  5.0215350090163886e-07  4.4712482506408321e-07  3.9725922410259749e-07  3.5219692205114718e-07  3.1158301400747333e-07  2.7507118830126930e-07  2.4232677280226563e-07  2.1302914318853586e-07  1.8687354173249134e-07  1.6357236252050571e-07  1.4285596333375196e-07  1.2447306608565995e-07  1.0819080717450663e-07  9.3794496813832987e-08  8.1087142777637698e-08  6.9888789436648198e-08  6.0035717815991600e-08  5.1379546971142493e-08  4.3786271502185548e-08  3.7135264697776781e-08  3.1318271762483065e-08  2.6238412933618791e-08  2.1809212098069347e-08  1.7953662806675663e-08  1.4603340359661308e-08  1.1697565888637451e-08  9.1826260627988524e-09  7.0110501643710415e-09  5.1409447732114127e-09  3.5353851405793101e-09  2.1618615227874320e-09  9.9177848208168099e-10  0.0000000000000000e+00  0.0000000000000000e+00  1.7852638008540716e-06  3.2970649023762530e-06  4.5846594944345408e-06  5.6881425855794049e-06  6.6400915784745027e-06  7.4669046209862274e-06  8.1899036996427643e-06  8.8262435218603594e-06  9.3896601856438975e-06  9.8910878428160195e-06  1.0339166743511172e-05  1.0740662032403398e-05  1.1100809317841877e-05  1.1423600244424644e-05  1.1712018976049140e-05  1.1968238563163080e-05  1.2193784560013559e-05  1.2389671920718693e-05  1.2556520091337313e-05  1.2694650290666402e-05  1.2804168203533290e-05  1.2885034670581157e-05  1.2937126426314943e-05  1.2960288494735867e-05  1.2954379484819370e-05  1.2919310724743308e-05  1.2855079924843675e-05  1.2761799857380880e-05  1.2639722380527058e-05  1.2489258009955559e-05  1.2310991150395552e-05  1.2105691038537904e-05  1.1874318415194192e-05  1.1618027936253191e-05  1.1338166346372609e-05  1.1036266473921915e-05  1.0714037157576100e-05  1.0373349280855675e-05  1.0016218167081376e-05  9.6447826694954297e-06  9.2612813751775877e-06  8.8680264221171650e-06  8.4673755016208391e-06  8.0617026785640147e-06  7.6533687056964294e-06  7.2446915318586375e-06  6.8379177050626503e-06  6.4351953485851002e-06  6.0385493414392222e-06  5.6498592650889095e-06  5.2708405886005572e-06  4.9030294583188277e-06  4.5477713402762298e-06  4.2062136392351648e-06  3.8793022931647530e-06  3.5677822216723525e-06  3.2722013966357149e-06  2.9929182074858567e-06  2.7301117157641560e-06  2.4837943360610194e-06  2.2538264443510491e-06  2.0399323999715447e-06  1.8417174728385928e-06  1.6586851908111340e-06  1.4902546605371718e-06  1.3357774653203001e-06  1.1945538019903219e-06  1.0658475819332174e-06  9.4890028604593207e-07  8.4294342652908260e-07  7.4720952771123086e-07  6.6094159166324330e-07  5.8340106093093138e-07  5.1387432955352853e-07  4.5167788439787745e-07  3.9616218188981573e-07  3.4671438095797019e-07  3.0276006215111847e-07  2.6376406633080883e-07  2.2923058503429528e-07  1.9870262951931204e-07  1.7176099757296584e-07  1.4802284724745718e-07  1.2713997553046323e-07  1.0879688820938547e-07  9.2708735370416803e-08  7.8619175495452292e-08  6.6298220286342710e-08  5.5540102366859484e-08  4.6161199017351794e-08  3.7998037148275535e-08  3.0905397826561096e-08  2.4754532803110539e-08  1.9431500591784112e-08  1.4835625642426927e-08  1.0878080944708919e-08  7.4805919035802080e-09  4.5742574403189365e-09  2.0984827675778933e-09  0.0000000000000000e+00  0.0000000000000000e+00  2.8449020445020151e-06  5.2541717145913909e-06  7.3063573408427248e-06  9.0654062582676651e-06  1.0583267861662130e-05  1.1902030481706596e-05  1.3055682803991117e-05  1.4071564936082908e-05  1.4971563413847009e-05  1.5773095253135714e-05  1.6489918458460667e-05  1.7132799973017270e-05  1.7710066693528187e-05  1.8228060706795726e-05  1.8691516186734193e-05  1.9103872297720885e-05  1.9467533878440014e-05  1.9784089542628014e-05  2.0054495056022819e-05  2.0279228371190431e-05  2.0458421472831370e-05  2.0591973163480328e-05  2.0679646068450007e-05  2.0721150430978109e-05  2.0716216680687468e-05  2.0664658272025533e-05  2.0566425889430001e-05  2.0421653790809112e-05  2.0230698801299142e-05  1.9994172267960705e-05  1.9712965137429707e-05  1.9388266217979435e-05  1.9021573631098828e-05  1.8614699441988989e-05  1.8169767479745211e-05  1.7689204412543705e-05  1.7175724226467971e-05  1.6632306363571057e-05  1.6062167899481315e-05  1.5468730276661200e-05  1.4855581249004082e-05  1.4226432829047664e-05  1.3585076152783550e-05  1.2935334281173667e-05  1.2281014035011300e-05  1.1625858004745666e-05  1.0973497884883258e-05  1.0327410251011649e-05  9.6908758258999807e-06  9.0669431712961866e-06  8.4583975979495551e-06  7.8677359140390606e-06  7.2971474392432202e-06  6.7485015069886992e-06  6.2233414704086528e-06  5.7228850276610566e-06  5.2480304983054459e-06  4.7993685220403545e-06  4.3771985202638481e-06  3.9815491637081175e-06  3.6122020278153600e-06  3.2687175915066910e-06  2.9504627426023900e-06  2.6566389908322127e-06  2.3863106523598425e-06  2.1384323524678970e-06  1.9118752895762076e-06  1.7054518082003179e-06  1.5179379352872024e-06  1.3480936387343010e-06  1.1946806647886115e-06  1.0564778993576198e-06  9.3229427492608646e-07  8.2097930856011225e-07  7.2143140700935970e-07  6.3260411249598890e-07  5.5351048825240778e-07  4.8322585747779887e-07  4.2088911461076133e-07  3.6570282526709726e-07  3.1693232248484269e-07  2.7390399359905390e-07  2.3600293555051551e-07  2.0267013795842071e-07  1.7339933390848886e-07  1.4773363897960560e-07  1.2526208021830959e-07  1.0561609906050256e-07  8.8466095927762010e-08  7.3518069593612954e-08  6.0510391516685300e-08  4.9210744180887784e-08  3.9413243011096825e-08  3.0935753543903437e-08  2.3617409093854841e-08  1.7316329015396941e-08  1.1907533657489170e-08  7.2810490658696543e-09  3.3401921697519027e-09  0.0000000000000000e+00  0.0000000000000000e+00  4.0433184832525455e-06  7.4677430136332416e-06  1.0385056573586100e-05  1.2886253404072607e-05  1.5045237213883152e-05  1.6921868463477561e-05  1.8564475252060115e-05  2.0011921091544229e-05  2.1295307190582513e-05  2.2439373723915285e-05  2.3463653553636095e-05  2.4383422673097880e-05  2.5210483975201225e-05  2.5953814559141899e-05  2.6620101474423671e-05  2.7214186381209763e-05  2.7739435932711705e-05  2.8198051632845846e-05  2.8591330385678781e-05  2.8919884844392509e-05  2.9183830913544484e-05  2.9382948298745170e-05  2.9516818782663384e-05  2.9584945894680399e-05  2.9586858800407532e-05  2.9522202539978925e-05  2.9390816169282008e-05  2.9192799889362995e-05  2.8928571873096287e-05  2.8598915204751156e-05  2.8205015129512150e-05  2.7748486660126219e-05  2.7231392501531569e-05  2.6656251226922969e-05  2.6026035665580303e-05  2.5344161538828219e-05  2.4614466499791950e-05  2.3841179888170529e-05  2.3028883694832215e-05  2.2182465433168327e-05  2.1307063824224183e-05  2.0408008409222312e-05  1.9490754394373235e-05  1.8560814197137013e-05  1.7623687289460397e-05  1.6684790012543175e-05  1.5749387062105363e-05  1.4822526308379329e-05  1.3908978519759730e-05  1.3013183405244341e-05  1.2139203183948731e-05  1.1290684638708080e-05  1.0470830326390702e-05  9.6823793132978850e-06  8.9275974942490788e-06  8.2082772531023938e-06  7.5257459441470470e-06  6.8808824299112873e-06  6.2741407109049135e-06  5.7055795331628881e-06  5.1748967634947049e-06  4.6814672802027474e-06  4.2243831359091273e-06  3.8024948037220642e-06  3.4144524110690200e-06  3.0587459886598933e-06  2.7337439061794770e-06  2.4377288224535825e-06  2.1689306375901513e-06  1.9255560905778709e-06  1.7058147919408671e-06  1.5079416126558404e-06  1.3302154644709219e-06  1.1709746012555922e-06  1.0286286455382780e-06  9.0166759947518588e-07  7.8866813647636381e-07  6.8829749050852877e-07  5.9931526697353481e-07  5.2057349446665208e-07  4.5101522309388032e-07  3.8967195469522184e-07  3.3566016539401526e-07  2.8817715321737859e-07  2.4649641466169193e-07  2.0996272526278802e-07  1.7798707143899223e-07  1.5004155480998329e-07  1.2565436632865016e-07  1.0440490617483308e-07  8.5919106568390941e-08  6.9864998459540603e-08  5.5948549349252032e-08  4.3909788118759438e-08  3.3519223499895081e-08  2.4574555468146150e-08  1.6897673149631396e-08  1.0331928566379653e-08  4.7396724476765204e-09  0.0000000000000000e+00  0.0000000000000000e+00  5.4046227492899717e-06  9.9823899210119403e-06  1.3882983061101690e-05  1.7228218449383919e-05  2.0117002135072600e-05  2.2629420822722802e-05  2.4830111010670411e-05  2.6771032252115480e-05  2.8493749160159675e-05  3.0031309000940640e-05  3.1409786857569251e-05  3.2649557943073929e-05  3.3766346301769726e-05  3.4772090531866453e-05  3.5675660004447091e-05  3.6483449105524921e-05  3.7199872086609992e-05  3.7827777005161745e-05  3.8368793827084364e-05  3.8823628930113681e-05  3.9192315890619821e-05  3.9474430475091861e-05  3.9669276123911844e-05  3.9776044853767679e-05  3.9793957371409834e-05  3.9722385249427991e-05  3.9560957235711575e-05  3.9309651129857036e-05  3.8968872144659596e-05  3.8539518265752984e-05  3.8023032817389870e-05  3.7421444229565181e-05  3.6737392874963008e-05  3.5974144798090352e-05  3.5135592188011107e-05  3.4226240544265049e-05  3.3251182645634047e-05  3.2216059644597249e-05  3.1127009865921965e-05  2.9990606173245485e-05  2.8813783068258704e-05  2.7603754987273799e-05  2.6367927542714805e-05  2.5113803705440865e-05  2.3848887121641255e-05  2.2580584890975853e-05  2.1316112189179293e-05  2.0062401090766583e-05  1.8826015832561759e-05  1.7613076558274306e-05  1.6429193305114911e-05  1.5279411647119360e-05  1.4168171012227761e-05  1.3099276260164922e-05  1.2075882666567097e-05  1.1100494026800182e-05  1.0174973190694675e-05  9.3005639847857130e-06  8.4779231859043096e-06  7.7071609891445118e-06  6.9878882696492602e-06  6.3192688719016988e-06  5.7000751684760295e-06  5.1287452049444737e-06  4.6034398784318147e-06  4.1220987718433625e-06  3.6824934708772959e-06  3.2822774134449587e-06  2.9190315488155678e-06  2.5903053059284659e-06  2.2936525780531241e-06  2.0266626176402487e-06  1.7869858962861854e-06  1.5723551177665272e-06  1.3806016764405115e-06  1.2096679298483393e-06  1.0576157050462329e-06  9.2263148599186302e-07  8.0302873744281107e-07  6.9724781290986583e-07  6.0385387374144194e-07  5.2153321673266709e-07  4.4908837175805481e-07  3.8543229142741968e-07  3.2958191383517731e-07  2.8065133885298648e-07  2.3784481943157443e-07  2.0044973298222259e-07  1.6782966472890143e-07  1.3941770531265535e-07  1.1471003902475562e-07  9.3259876808283324e-08  7.4671769437804124e-08  5.8596320815716194e-08  4.4725308809722189e-08  3.2787211168836939e-08  2.2543126458607089e-08  1.3783074323872473e-08  6.3226553540091963e-09  0.0000000000000000e+00  0.0000000000000000e+00  6.9561771694266760e-06  1.2848748849957646e-05  1.7870784471326165e-05  2.2179360240538865e-05  2.5901963560673814e-05  2.9141785639916764e-05  3.1982077853567485e-05  3.4489735593717972e-05  3.6718245599553108e-05  3.8710109580606301e-05  4.0498837586325273e-05  4.2110588431080536e-05  4.3565521038500872e-05  4.4878909384641578e-05  4.6062064424651690e-05  4.7123098668476143e-05  4.8067562663216704e-05  4.8898977320848604e-05  4.9619281613871871e-05  5.0229211492750196e-05  5.0728622828378369e-05  5.1116768643303875e-05  5.1392538778886975e-05  5.1554668379943434e-05  5.1601920105237473e-05  5.1533243744582030e-05  5.1347915904114367e-05  5.1045661581584739e-05  5.0626758771042531e-05  5.0092126694468177e-05  4.9443397844341375e-05  4.8682973726760802e-05  4.7814064012562632e-05  4.6840708728097618e-05  4.5767783142199653e-05  4.4600985124939671e-05  4.3346804958920268e-05  4.2012477864794064e-05  4.0605919846315404e-05  3.9135647850521321e-05  3.7610685656668446e-05  3.6040457331891853e-05  3.4434670498996307e-05  3.2803192028383196e-05  3.1155919068470630e-05  2.9502648545718668e-05  2.7852948378743393e-05  2.6216033648213093e-05  2.4600650838727657e-05  2.3014973021183490e-05  2.1466508482116761e-05  1.9962024845219038e-05  1.8507490190966032e-05  1.7108032089356969e-05  1.5767914847514886e-05  1.4490534668777295e-05  1.3278431852225769e-05  1.2133318657529500e-05  1.1056121040816363e-05  1.0047032148224980e-05  9.1055752432216514e-06  8.2306736431705281e-06  7.4207252450656992e-06  6.6736793192938664e-06  5.9871134290663787e-06  5.3583085742121275e-06  4.7843209425212887e-06  4.2620489610228395e-06  3.7882946559883786e-06  3.3598186387917188e-06  2.9733883225275156e-06  2.6258192321140765e-06  2.3140094922233722e-06  2.0349677594837113e-06  1.7858350072636832e-06  1.5639006743703625e-06  1.3666137562022881e-06  1.1915894524257281e-06  1.0366119938808594e-06  8.9963425821182134e-07  7.7877475361579482e-07  6.7231250776728083e-07  5.7868034855532013e-07  4.9645700835193969e-07  4.2435842706532782e-07  3.6122857356021660e-07  3.0603005191082858e-07  2.5783470962994021e-07  2.1581442028579306e-07  1.7923217320105134e-07  1.4743356835398300e-07  1.1983878507567663e-07  9.5935068399571342e-08  7.5269756602476165e-08  5.7443857145449221e-08  4.2106165413748870e-08  2.8947910899484539e-08  1.7697908317248231e-08  8.1181860858334667e-09  0.0000000000000000e+00  0.0000000000000000e+00  8.7289757306715934e-06  1.6124185845117653e-05  2.2428518618269866e-05  2.7839503454802593e-05  3.2517392772952929e-05  3.6591843225559868e-05  4.0167411445444254e-05  4.3328072269921780e-05  4.6140932039174520e-05  4.8659280046273263e-05  5.0925096587455933e-05  5.2971115540476707e-05  5.4822522323773315e-05  5.6498353897635528e-05  5.8012655684599009e-05  5.9375440508124206e-05  6.0593486537915277e-05  6.1671004502869851e-05  6.2610198850740871e-05  6.3411742898613740e-05  6.4075184165171000e-05  6.4599292867792893e-05  6.4982363892311272e-05  6.5222480308717271e-05  6.5317744637760400e-05  6.5266482511427401e-05  6.5067422067560500e-05  6.4719851338779449e-05  6.4223755010668350e-05  6.3579931213436801e-05  6.2790088460316438e-05  6.1856922444581289e-05  6.0784172148085059e-05  5.9576654592073593e-05  5.8240277570610395e-05  5.6782029842187403e-05  5.5209948507844532e-05  5.3533063663143060e-05  5.1761320861491911e-05  4.9905482448103708e-05  4.7977009393290133e-05  4.5987925842831382e-05  4.3950669180475190e-05  4.1877928930044308e-05  3.9782478278843938e-05  3.7677002348722642e-05  3.5573927549145584e-05  3.3485256397326929e-05  3.1422412071565900e-05  2.9396096672995998e-05  2.7416166716121790e-05  2.5491528768404876e-05  2.3630057441897182e-05  2.1838537141328137e-05  2.0122628134116350e-05  1.8486856671658842e-05  1.6934628100112412e-05  1.5468261190837654e-05  1.4089041327178901e-05  1.2797289728139061e-05  1.1592445583871182e-05  1.0473157825858417e-05  9.4373832499168837e-06  8.4824878383873327e-06  7.6053483684955405e-06  6.8024517221599254e-06  6.0699897018748691e-06  5.4039475811780291e-06  4.8001850519417493e-06  4.2545086528045120e-06  3.7627351560115303e-06  3.3207457407572124e-06  2.9245310812922015e-06  2.5702277232235124e-06  2.2541463108878114e-06  1.9727923646609231e-06  1.7228803940484239e-06  1.5013421763459348e-06  1.3053300383614316e-06  1.1322159572265448e-06  9.7958725258547366e-07  8.4523958283010646e-07  7.2716788821754303e-07  6.2355584848740084e-07  5.3276434593345577e-07  4.5331934985655990e-07  3.8389956721359662e-07  3.2332413865308441e-07  2.7054059996252275e-07  2.2461327672377742e-07  1.8471223477171753e-07  1.5010287067864172e-07  1.2013619453778868e-07  9.4239831254366996e-08  7.1909745757061625e-08  5.2702681371637294e-08  3.6229288409839795e-08  2.2147911208250686e-08  1.0158995729900219e-08  0.0000000000000000e+00  0.0000000000000000e+00  1.0758049882909658e-05  1.9873550490282716e-05  2.7646711866745817e-05  3.4321569103280816e-05  4.0096010556475186e-05  4.5130067592415900e-05  4.9552728444357842e-05  5.3467535958389006e-05  5.6957184657494391e-05  6.0087295577450579e-05  6.2909516502909294e-05  6.5464069573702833e-05  6.7781846902293771e-05  6.9886137133367353e-05  7.1794051185394787e-05  7.3517703235137380e-05  7.5065192913423477e-05  7.6441426316564972e-05  7.7648806503301560e-05  7.8687818392564750e-05  7.9557528195151202e-05  8