<?xml version="1.0"?>
<VTKFile type="UnstructuredGrid"  version="0.1"  >
<UnstructuredGrid>
<Piece  NumberOfPoints="10201" NumberOfCells="20000">
<Points>
<DataArray  type="Float64"  NumberOfComponents="3"  format="ascii">0 0 0  0.01 0 0  0.02 0 0  0.03 0 0  0.04 0 0  0.05 0 0  0.06 0 0  0.07000000000000001 0 0  0.08 0 0  0.09 0 0  0.1 0 0  0.11 0 0  0.12 0 0  0.13 0 0  0.14 0 0  0.15 0 0  0.16 0 0  0.17 0 0  0.18 0 0  0.19 0 0  0.2 0 0  0.21 0 0  0.22 0 0  0.23 0 0  0.24 0 0  0.25 0 0  0.26 0 0  0.27 0 0  0.28 0 0  0.29 0 0  0.3 0 0  0.31 0 0  0.32 0 0  0.33 0 0  0.34 0 0  0.35 0 0  0.36 0 0  0.37 0 0  0.38 0 0  0.39 0 0  0.4 0 0  0.41 0 0  0.42 0 0  0.43 0 0  0.44 0 0  0.45 0 0  0.46 0 0  0.47 0 0  0.48 0 0  0.49 0 0  0.5 0 0  0.51 0 0  0.52 0 0  0.53 0 0  0.54 0 0  0.55 0 0  0.5600000000000001 0 0  0.57 0 0  0.58 0 0  0.59 0 0  0.6 0 0  0.61 0 0  0.62 0 0  0.63 0 0  0.64 0 0  0.65 0 0  0.66 0 0  0.67 0 0  0.68 0 0  0.6899999999999999 0 0  0.7 0 0  0.71 0 0  0.72 0 0  0.73 0 0  0.74 0 0  0.75 0 0  0.76 0 0  0.77 0 0  0.78 0 0  0.79 0 0  0.8 0 0  0.8100000000000001 0 0  0.82 0 0  0.83 0 0  0.84 0 0  0.85 0 0  0.86 0 0  0.87 0 0  0.88 0 0  0.89 0 0  0.9 0 0  0.91 0 0  0.92 0 0  0.93 0 0  0.9399999999999999 0 0  0.95 0 0  0.96 0 0  0.97 0 0  0.98 0 0  0.99 0 0  1 0 0  0 0.01 0  0.01 0.01 0  0.02 0.01 0  0.03 0.01 0  0.04 0.01 0  0.05 0.01 0  0.06 0.01 0  0.07000000000000001 0.01 0  0.08 0.01 0  0.09 0.01 0  0.1 0.01 0  0.11 0.01 0  0.12 0.01 0  0.13 0.01 0  0.14 0.01 0  0.15 0.01 0  0.16 0.01 0  0.17 0.01 0  0.18 0.01 0  0.19 0.01 0  0.2 0.01 0  0.21 0.01 0  0.22 0.01 0  0.23 0.01 0  0.24 0.01 0  0.25 0.01 0  0.26 0.01 0  0.27 0.01 0  0.28 0.01 0  0.29 0.01 0  0.3 0.01 0  0.31 0.01 0  0.32 0.01 0  0.33 0.01 0  0.34 0.01 0  0.35 0.01 0  0.36 0.01 0  0.37 0.01 0  0.38 0.01 0  0.39 0.01 0  0.4 0.01 0  0.41 0.01 0  0.42 0.01 0  0.43 0.01 0  0.44 0.01 0  0.45 0.01 0  0.46 0.01 0  0.47 0.01 0  0.48 0.01 0  0.49 0.01 0  0.5 0.01 0  0.51 0.01 0  0.52 0.01 0  0.53 0.01 0  0.54 0.01 0  0.55 0.01 0  0.5600000000000001 0.01 0  0.57 0.01 0  0.58 0.01 0  0.59 0.01 0  0.6 0.01 0  0.61 0.01 0  0.62 0.01 0  0.63 0.01 0  0.64 0.01 0  0.65 0.01 0  0.66 0.01 0  0.67 0.01 0  0.68 0.01 0  0.6899999999999999 0.01 0  0.7 0.01 0  0.71 0.01 0  0.72 0.01 0  0.73 0.01 0  0.74 0.01 0  0.75 0.01 0  0.76 0.01 0  0.77 0.01 0  0.78 0.01 0  0.79 0.01 0  0.8 0.01 0  0.8100000000000001 0.01 0  0.82 0.01 0  0.83 0.01 0  0.84 0.01 0  0.85 0.01 0  0.86 0.01 0  0.87 0.01 0  0.88 0.01 0  0.89 0.01 0  0.9 0.01 0  0.91 0.01 0  0.92 0.01 0  0.93 0.01 0  0.9399999999999999 0.01 0  0.95 0.01 0  0.96 0.01 0  0.97 0.01 0  0.98 0.01 0  0.99 0.01 0  1 0.01 0  0 0.02 0  0.01 0.02 0  0.02 0.02 0  0.03 0.02 0  0.04 0.02 0  0.05 0.02 0  0.06 0.02 0  0.07000000000000001 0.02 0  0.08 0.02 0  0.09 0.02 0  0.1 0.02 0  0.11 0.02 0  0.12 0.02 0  0.13 0.02 0  0.14 0.02 0  0.15 0.02 0  0.16 0.02 0  0.17 0.02 0  0.18 0.02 0  0.19 0.02 0  0.2 0.02 0  0.21 0.02 0  0.22 0.02 0  0.23 0.02 0  0.24 0.02 0  0.25 0.02 0  0.26 0.02 0  0.27 0.02 0  0.28 0.02 0  0.29 0.02 0  0.3 0.02 0  0.31 0.02 0  0.32 0.02 0  0.33 0.02 0  0.34 0.02 0  0.35 0.02 0  0.36 0.02 0  0.37 0.02 0  0.38 0.02 0  0.39 0.02 0  0.4 0.02 0  0.41 0.02 0  0.42 0.02 0  0.43 0.02 0  0.44 0.02 0  0.45 0.02 0  0.46 0.02 0  0.47 0.02 0  0.48 0.02 0  0.49 0.02 0  0.5 0.02 0  0.51 0.02 0  0.52 0.02 0  0.53 0.02 0  0.54 0.02 0  0.55 0.02 0  0.5600000000000001 0.02 0  0.57 0.02 0  0.58 0.02 0  0.59 0.02 0  0.6 0.02 0  0.61 0.02 0  0.62 0.02 0  0.63 0.02 0  0.64 0.02 0  0.65 0.02 0  0.66 0.02 0  0.67 0.02 0  0.68 0.02 0  0.6899999999999999 0.02 0  0.7 0.02 0  0.71 0.02 0  0.72 0.02 0  0.73 0.02 0  0.74 0.02 0  0.75 0.02 0  0.76 0.02 0  0.77 0.02 0  0.78 0.02 0  0.79 0.02 0  0.8 0.02 0  0.8100000000000001 0.02 0  0.82 0.02 0  0.83 0.02 0  0.84 0.02 0  0.85 0.02 0  0.86 0.02 0  0.87 0.02 0  0.88 0.02 0  0.89 0.02 0  0.9 0.02 0  0.91 0.02 0  0.92 0.02 0  0.93 0.02 0  0.9399999999999999 0.02 0  0.95 0.02 0  0.96 0.02 0  0.97 0.02 0  0.98 0.02 0  0.99 0.02 0  1 0.02 0  0 0.03 0  0.01 0.03 0  0.02 0.03 0  0.03 0.03 0  0.04 0.03 0  0.05 0.03 0  0.06 0.03 0  0.07000000000000001 0.03 0  0.08 0.03 0  0.09 0.03 0  0.1 0.03 0  0.11 0.03 0  0.12 0.03 0  0.13 0.03 0  0.14 0.03 0  0.15 0.03 0  0.16 0.03 0  0.17 0.03 0  0.18 0.03 0  0.19 0.03 0  0.2 0.03 0  0.21 0.03 0  0.22 0.03 0  0.23 0.03 0  0.24 0.03 0  0.25 0.03 0  0.26 0.03 0  0.27 0.03 0  0.28 0.03 0  0.29 0.03 0  0.3 0.03 0  0.31 0.03 0  0.32 0.03 0  0.33 0.03 0  0.34 0.03 0  0.35 0.03 0  0.36 0.03 0  0.37 0.03 0  0.38 0.03 0  0.39 0.03 0  0.4 0.03 0  0.41 0.03 0  0.42 0.03 0  0.43 0.03 0  0.44 0.03 0  0.45 0.03 0  0.46 0.03 0  0.47 0.03 0  0.48 0.03 0  0.49 0.03 0  0.5 0.03 0  0.51 0.03 0  0.52 0.03 0  0.53 0.03 0  0.54 0.03 0  0.55 0.03 0  0.5600000000000001 0.03 0  0.57 0.03 0  0.58 0.03 0  0.59 0.03 0  0.6 0.03 0  0.61 0.03 0  0.62 0.03 0  0.63 0.03 0  0.64 0.03 0  0.65 0.03 0  0.66 0.03 0  0.67 0.03 0  0.68 0.03 0  0.6899999999999999 0.03 0  0.7 0.03 0  0.71 0.03 0  0.72 0.03 0  0.73 0.03 0  0.74 0.03 0  0.75 0.03 0  0.76 0.03 0  0.77 0.03 0  0.78 0.03 0  0.79 0.03 0  0.8 0.03 0  0.8100000000000001 0.03 0  0.82 0.03 0  0.83 0.03 0  0.84 0.03 0  0.85 0.03 0  0.86 0.03 0  0.87 0.03 0  0.88 0.03 0  0.89 0.03 0  0.9 0.03 0  0.91 0.03 0  0.92 0.03 0  0.93 0.03 0  0.9399999999999999 0.03 0  0.95 0.03 0  0.96 0.03 0  0.97 0.03 0  0.98 0.03 0  0.99 0.03 0  1 0.03 0  0 0.04 0  0.01 0.04 0  0.02 0.04 0  0.03 0.04 0  0.04 0.04 0  0.05 0.04 0  0.06 0.04 0  0.07000000000000001 0.04 0  0.08 0.04 0  0.09 0.04 0  0.1 0.04 0  0.11 0.04 0  0.12 0.04 0  0.13 0.04 0  0.14 0.04 0  0.15 0.04 0  0.16 0.04 0  0.17 0.04 0  0.18 0.04 0  0.19 0.04 0  0.2 0.04 0  0.21 0.04 0  0.22 0.04 0  0.23 0.04 0  0.24 0.04 0  0.25 0.04 0  0.26 0.04 0  0.27 0.04 0  0.28 0.04 0  0.29 0.04 0  0.3 0.04 0  0.31 0.04 0  0.32 0.04 0  0.33 0.04 0  0.34 0.04 0  0.35 0.04 0  0.36 0.04 0  0.37 0.04 0  0.38 0.04 0  0.39 0.04 0  0.4 0.04 0  0.41 0.04 0  0.42 0.04 0  0.43 0.04 0  0.44 0.04 0  0.45 0.04 0  0.46 0.04 0  0.47 0.04 0  0.48 0.04 0  0.49 0.04 0  0.5 0.04 0  0.51 0.04 0  0.52 0.04 0  0.53 0.04 0  0.54 0.04 0  0.55 0.04 0  0.5600000000000001 0.04 0  0.57 0.04 0  0.58 0.04 0  0.59 0.04 0  0.6 0.04 0  0.61 0.04 0  0.62 0.04 0  0.63 0.04 0  0.64 0.04 0  0.65 0.04 0  0.66 0.04 0  0.67 0.04 0  0.68 0.04 0  0.6899999999999999 0.04 0  0.7 0.04 0  0.71 0.04 0  0.72 0.04 0  0.73 0.04 0  0.74 0.04 0  0.75 0.04 0  0.76 0.04 0  0.77 0.04 0  0.78 0.04 0  0.79 0.04 0  0.8 0.04 0  0.8100000000000001 0.04 0  0.82 0.04 0  0.83 0.04 0  0.84 0.04 0  0.85 0.04 0  0.86 0.04 0  0.87 0.04 0  0.88 0.04 0  0.89 0.04 0  0.9 0.04 0  0.91 0.04 0  0.92 0.04 0  0.93 0.04 0  0.9399999999999999 0.04 0  0.95 0.04 0  0.96 0.04 0  0.97 0.04 0  0.98 0.04 0  0.99 0.04 0  1 0.04 0  0 0.05 0  0.01 0.05 0  0.02 0.05 0  0.03 0.05 0  0.04 0.05 0  0.05 0.05 0  0.06 0.05 0  0.07000000000000001 0.05 0  0.08 0.05 0  0.09 0.05 0  0.1 0.05 0  0.11 0.05 0  0.12 0.05 0  0.13 0.05 0  0.14 0.05 0  0.15 0.05 0  0.16 0.05 0  0.17 0.05 0  0.18 0.05 0  0.19 0.05 0  0.2 0.05 0  0.21 0.05 0  0.22 0.05 0  0.23 0.05 0  0.24 0.05 0  0.25 0.05 0  0.26 0.05 0  0.27 0.05 0  0.28 0.05 0  0.29 0.05 0  0.3 0.05 0  0.31 0.05 0  0.32 0.05 0  0.33 0.05 0  0.34 0.05 0  0.35 0.05 0  0.36 0.05 0  0.37 0.05 0  0.38 0.05 0  0.39 0.05 0  0.4 0.05 0  0.41 0.05 0  0.42 0.05 0  0.43 0.05 0  0.44 0.05 0  0.45 0.05 0  0.46 0.05 0  0.47 0.05 0  0.48 0.05 0  0.49 0.05 0  0.5 0.05 0  0.51 0.05 0  0.52 0.05 0  0.53 0.05 0  0.54 0.05 0  0.55 0.05 0  0.5600000000000001 0.05 0  0.57 0.05 0  0.58 0.05 0  0.59 0.05 0  0.6 0.05 0  0.61 0.05 0  0.62 0.05 0  0.63 0.05 0  0.64 0.05 0  0.65 0.05 0  0.66 0.05 0  0.67 0.05 0  0.68 0.05 0  0.6899999999999999 0.05 0  0.7 0.05 0  0.71 0.05 0  0.72 0.05 0  0.73 0.05 0  0.74 0.05 0  0.75 0.05 0  0.76 0.05 0  0.77 0.05 0  0.78 0.05 0  0.79 0.05 0  0.8 0.05 0  0.8100000000000001 0.05 0  0.82 0.05 0  0.83 0.05 0  0.84 0.05 0  0.85 0.05 0  0.86 0.05 0  0.87 0.05 0  0.88 0.05 0  0.89 0.05 0  0.9 0.05 0  0.91 0.05 0  0.92 0.05 0  0.93 0.05 0  0.9399999999999999 0.05 0  0.95 0.05 0  0.96 0.05 0  0.97 0.05 0  0.98 0.05 0  0.99 0.05 0  1 0.05 0  0 0.06 0  0.01 0.06 0  0.02 0.06 0  0.03 0.06 0  0.04 0.06 0  0.05 0.06 0  0.06 0.06 0  0.07000000000000001 0.06 0  0.08 0.06 0  0.09 0.06 0  0.1 0.06 0  0.11 0.06 0  0.12 0.06 0  0.13 0.06 0  0.14 0.06 0  0.15 0.06 0  0.16 0.06 0  0.17 0.06 0  0.18 0.06 0  0.19 0.06 0  0.2 0.06 0  0.21 0.06 0  0.22 0.06 0  0.23 0.06 0  0.24 0.06 0  0.25 0.06 0  0.26 0.06 0  0.27 0.06 0  0.28 0.06 0  0.29 0.06 0  0.3 0.06 0  0.31 0.06 0  0.32 0.06 0  0.33 0.06 0  0.34 0.06 0  0.35 0.06 0  0.36 0.06 0  0.37 0.06 0  0.38 0.06 0  0.39 0.06 0  0.4 0.06 0  0.41 0.06 0  0.42 0.06 0  0.43 0.06 0  0.44 0.06 0  0.45 0.06 0  0.46 0.06 0  0.47 0.06 0  0.48 0.06 0  0.49 0.06 0  0.5 0.06 0  0.51 0.06 0  0.52 0.06 0  0.53 0.06 0  0.54 0.06 0  0.55 0.06 0  0.5600000000000001 0.06 0  0.57 0.06 0  0.58 0.06 0  0.59 0.06 0  0.6 0.06 0  0.61 0.06 0  0.62 0.06 0  0.63 0.06 0  0.64 0.06 0  0.65 0.06 0  0.66 0.06 0  0.67 0.06 0  0.68 0.06 0  0.6899999999999999 0.06 0  0.7 0.06 0  0.71 0.06 0  0.72 0.06 0  0.73 0.06 0  0.74 0.06 0  0.75 0.06 0  0.76 0.06 0  0.77 0.06 0  0.78 0.06 0  0.79 0.06 0  0.8 0.06 0  0.8100000000000001 0.06 0  0.82 0.06 0  0.83 0.06 0  0.84 0.06 0  0.85 0.06 0  0.86 0.06 0  0.87 0.06 0  0.88 0.06 0  0.89 0.06 0  0.9 0.06 0  0.91 0.06 0  0.92 0.06 0  0.93 0.06 0  0.9399999999999999 0.06 0  0.95 0.06 0  0.96 0.06 0  0.97 0.06 0  0.98 0.06 0  0.99 0.06 0  1 0.06 0  0 0.07000000000000001 0  0.01 0.07000000000000001 0  0.02 0.07000000000000001 0  0.03 0.07000000000000001 0  0.04 0.07000000000000001 0  0.05 0.07000000000000001 0  0.06 0.07000000000000001 0  0.07000000000000001 0.07000000000000001 0  0.08 0.07000000000000001 0  0.09 0.07000000000000001 0  0.1 0.07000000000000001 0  0.11 0.07000000000000001 0  0.12 0.07000000000000001 0  0.13 0.07000000000000001 0  0.14 0.07000000000000001 0  0.15 0.07000000000000001 0  0.16 0.07000000000000001 0  0.17 0.0700
[...]
<PointData  Scalars="u"> 
<DataArray  type="Float64"  Name="u"  format="ascii">0.0000000000000000e+00  0.0000000000000000e+00  0.0000000000000000e+00  0.0000000000000000e+00  0.0000000000000000e+00  0.0000000000000000e+00  0.0000000000000000e+00  0.0000000000000000e+00  0.0000000000000000e+00  0.0000000000000000e+00  0.0000000000000000e+00  0.0000000000000000e+00  0.0000000000000000e+00  0.0000000000000000e+00  0.0000000000000000e+00  0.0000000000000000e+00  0.0000000000000000e+00  0.0000000000000000e+00  0.0000000000000000e+00  0.0000000000000000e+00  0.0000000000000000e+00  0.0000000000000000e+00  0.0000000000000000e+00  0.0000000000000000e+00  0.0000000000000000e+00  0.0000000000000000e+00  0.0000000000000000e+00  0.0000000000000000e+00  0.0000000000000000e+00  0.0000000000000000e+00  0.0000000000000000e+00  0.0000000000000000e+00  0.0000000000000000e+00  0.0000000000000000e+00  0.0000000000000000e+00  0.0000000000000000e+00  0.0000000000000000e+00  0.0000000000000000e+00  0.0000000000000000e+00  0.0000000000000000e+00  0.0000000000000000e+00  0.0000000000000000e+00  0.0000000000000000e+00  0.0000000000000000e+00  0.0000000000000000e+00  0.0000000000000000e+00  0.0000000000000000e+00  0.0000000000000000e+00  0.0000000000000000e+00  0.0000000000000000e+00  0.0000000000000000e+00  0.0000000000000000e+00  0.0000000000000000e+00  0.0000000000000000e+00  0.0000000000000000e+00  0.0000000000000000e+00  0.0000000000000000e+00  0.0000000000000000e+00  0.0000000000000000e+00  0.0000000000000000e+00  0.0000000000000000e+00  0.0000000000000000e+00  0.0000000000000000e+00  0.0000000000000000e+00  0.0000000000000000e+00  0.0000000000000000e+00  0.0000000000000000e+00  0.0000000000000000e+00  0.0000000000000000e+00  0.0000000000000000e+00  0.0000000000000000e+00  0.0000000000000000e+00  0.0000000000000000e+00  0.0000000000000000e+00  0.0000000000000000e+00  0.0000000000000000e+00  0.0000000000000000e+00  0.0000000000000000e+00  0.0000000000000000e+00  0.0000000000000000e+00  0.0000000000000000e+00  0.0000000000000000e+00  0.0000000000000000e+00  0.0000000000000000e+00  0.0000000000000000e+00  0.0000000000000000e+00  0.0000000000000000e+00  0.0000000000000000e+00  0.0000000000000000e+00  0.0000000000000000e+00  0.0000000000000000e+00  0.0000000000000000e+00  0.0000000000000000e+00  0.0000000000000000e+00  0.0000000000000000e+00  0.0000000000000000e+00  0.0000000000000000e+00  0.0000000000000000e+00  0.0000000000000000e+00  0.0000000000000000e+00  0.0000000000000000e+00  0.0000000000000000e+00  5.2772299999759723e-05  9.5948941053047442e-05  1.3115697733770125e-04  1.5973730867379480e-04  1.8280239872778625e-04  2.0127363055798435e-04  2.1591296555326035e-04  2.2734965944379680e-04  2.3610275031482502e-04  2.4259994473548388e-04  2.4719344512273082e-04  2.5017318716380178e-04  2.5177789022816323e-04  2.5220426562999479e-04  2.5161467673443080e-04  2.5014350059674839e-04  2.4790240244220650e-04  2.4498470120788902e-04  2.4146897597744738e-04  2.3742203888424312e-04  2.3290137942195806e-04  2.2795716761598710e-04  2.2263388875382666e-04  2.1697166997516513e-04  2.1100734865373485e-04  2.0477532387551037e-04  1.9830822518081707e-04  1.9163742687374830e-04  1.8479343142226775e-04  1.7780614161277570e-04  1.7070503804132443e-04  1.6351927609553502e-04  1.5627771469696699e-04  1.4900888763589977e-04  1.4174092725205989e-04  1.3450144941721964e-04  1.2731740818756974e-04  1.2021492805083601e-04  1.1321912133714286e-04  1.0635389804201620e-04  9.9641774980006035e-05  9.3103690811030551e-05  8.6758833029805630e-05  8.0624482461618175e-05  7.4715880154612189e-05  6.9046120798687624e-05  6.3626075942471906e-05  5.8464349339803702e-05  5.3567265760618885e-05  4.8938893578920240e-05  4.4581100437588163e-05  4.0493640322828228e-05  3.6674269496083173e-05  3.3118887961235354e-05  2.9821702517669419e-05  2.6775406986048405e-05  2.3971374906042715e-05  2.1399859897443052e-05  1.9050198942912805e-05  1.6911014078698840e-05  1.4970408348462973e-05  1.3216152359100249e-05  1.1635858346462071e-05  1.0217139282161639e-05  8.9477511992615026e-06  7.8157175557848834e-06  6.8094350652295595e-06  5.9177609816113673e-06  5.1300823170996055e-06  4.4363678823802769e-06  3.8272043679697136e-06  3.2938179279557785e-06  2.8280828892302690e-06  2.4225192955622553e-06  2.0702810155558173e-06  1.7651361068312702e-06  1.5014410465605613e-06  1.2741103216909750e-06  1.0785827311932576e-06  9.1078559691989332e-07  7.6709791739452264e-07  6.4431333695220099e-07  5.3960364658786604e-07  4.5048338676209814e-07  3.7477598911900959e-07  3.1058177534233059e-07  2.5624802802549636e-07  2.1034126051183438e-07  1.7162173963634915e-07  1.3902025620827948e-07  1.1161709166532029e-07  8.8623094192763678e-08  6.9362752253412310e-08  5.3259136446212388e-08  3.9820570498994936e-08  2.8628887703018475e-08  1.9329129013495086e-08  1.1620542032285286e-08  5.2487427864346857e-09  0.0000000000000000e+00  0.0000000000000000e+00  1.0453067047979310e-04  1.9007094291301278e-04  2.5982799870912128e-04  3.1645938564444227e-04  3.6216940910543905e-04  3.9878350382299216e-04  4.2781105770728031e-04  4.5049840575231225e-04  4.6787342980413244e-04  4.8078300944114522e-04  4.8992440301936124e-04  4.9587149015832012e-04  4.9909667592500041e-04  4.9998914150860556e-04  4.9887002504952430e-04  4.9600502822557280e-04  4.9161486792943549e-04  4.8588392664034941e-04  4.7896739870397420e-04  4.7099718156787631e-04  4.6208672004696011e-04  4.5233497698028528e-04  4.4182967435164411e-04  4.3064992433858572e-04  4.1886834917469179e-04  4.0655277158601797e-04  3.9376754339702567e-04  3.8057456826226277e-04  3.6703406499346018e-04  3.5320511029334742e-04  3.3914599359548232e-04  3.2491441189745466e-04  3.1056752874617676e-04  2.9616191869620610e-04  2.8175341644273266e-04  2.6739688827428040e-04  2.5314594235492237e-04  2.3905259350331403e-04  2.2516689746985763e-04  2.1153656912008045e-04  1.9820659832146451e-04  1.8521887662683071e-04  1.7261184699041924e-04  1.6042018770116666e-04  1.4867454044825240e-04  1.3740129094308651e-04  1.2662240882494212e-04  1.1635535170789140e-04  1.0661303623388585e-04  9.7403876942751843e-05  8.8731891725303950e-05  8.0596870665517966e-05  7.2994603275713089e-05  6.5917157553132568e-05  5.9353202995076788e-05  5.3288368746709330e-05  4.7705627448009468e-05  4.2585695103157704e-05  3.7907437407781478e-05  3.3648273410810614e-05  2.9784568117420117e-05  2.6292006605454202e-05  2.3145943370036601e-05  2.0321721866431706e-05  1.7794960526696598e-05  1.5541802822287255e-05  1.3539130180472576e-05  1.1764737694117112e-05  1.0197473559392349e-05  8.8173440123255506e-06  7.6055862013449024e-06  6.5447119272630638e-06  5.6185255108033210e-06  4.8121192237182280e-06  4.1118497604695640e-06  3.5052991540561035e-06  2.9812233740396092e-06  2.5294916093117361e-06  2.1410189537563652e-06  1.8076948988633212e-06  1.5223097102310675e-06  1.2784804386745757e-06  1.0705780023872719e-06  8.9365648258417747e-07  7.4338550701928662e-07  6.1598635722054617e-07  5.0817222781879203e-07  4.1709289002644811e-07  3.4028386502938423e-07  2.7562009481647163e-07  2.2127400524235838e-07  1.7567778603026659e-07  1.3748966197509942e-07  1.0556389583013945e-07  7.8924243420524946e-08  5.6740572816355539e-08  3.8308359627404431e-08  2.3030778014203206e-08  1.0403123149123163e-08  0.0000000000000000e+00  0.0000000000000000e+00  1.5592746645890602e-04  2.8353835492614610e-04  3.8761395877307339e-04  4.7212043448616712e-04  5.4034699284712616e-04  5.9501693552784223e-04  6.3838156948839637e-04  6.7229942114832716e-04  6.9830288896077265e-04  7.1765419907425542e-04  7.3139228110020364e-04  7.4037195945750951e-04  7.4529665910935358e-04  7.4674565118971526e-04  7.4519671226365328e-04  7.4104493887922475e-04  7.3461834471879694e-04  7.2619076914841644e-04  7.1599254148703515e-04  7.0421927318265669e-04  6.9103908873768783e-04  6.7659855426526871e-04  6.6102751872353105e-04  6.4444304605012635e-04  6.2695258562356164e-04  6.0865650285384185e-04  5.8965007050728810e-04  5.7002500395357894e-04  5.4987060932854752e-04  5.2927460215056372e-04  5.0832364479179068e-04  4.8710364402190380e-04  4.6569984428882313e-04  4.4419674819256487e-04  4.2267789248791104e-04  4.0122550568691911e-04  3.7992007171160064e-04  3.5883982287688367e-04  3.3806018458807654e-04  3.1765319335700601e-04  2.9768690893739841e-04  2.7822484043470635e-04  2.5932540506399957e-04  2.4104143674356216e-04  2.2341975988170941e-04  2.0650084153003628e-04  1.9031853255759105e-04  1.7489990569556792e-04  1.6026519528468457e-04  1.4642784042195802e-04  1.3339463005942171e-04  1.2116594557137432e-04  1.0973609349584123e-04  9.9093718678959302e-05  8.9222286001610152e-05  8.0100617318170630e-05  7.1703469234170780e-05  6.4002136911024050e-05  5.6965069201079302e-05  5.0558481047160506e-05  4.4746950166066739e-05  3.9493986495177440e-05  3.4762564622784925e-05  3.0515611347362726e-05  2.6716442520150250e-05  2.3329145326560735e-05  2.0318904072941189e-05  1.7652269298137463e-05  1.5297371572314447e-05  1.3224082643670030e-05  1.1404127628696909e-05  9.8111527102183905e-06  8.4207533192214310e-06  7.2104680515242440e-06  6.1597436360585520e-06  5.2498761602853911e-06  4.4639335044761927e-06  3.7866635747822886e-06  3.2043924879545669e-06  2.7049163779935944e-06  2.2773899927470595e-06  1.9122147480138196e-06  1.6009284250853107e-06  1.3360982475684594e-06  1.1112186635444218e-06  9.2061479490260711e-07  7.5935219939929082e-07  6.2315332261677710e-07  5.0832079472675078e-07  4.1166754767326237e-07  3.3045358811285554e-07  2.6232915572529356e-07  2.0528392070169448e-07  1.5760182374474893e-07  1.1782113241986082e-07  8.4699275159912715e-08  5.7182015039736172e-08  3.4376536317437742e-08  1.5528033285721652e-08  0.0000000000000000e+00  0.0000000000000000e+00  2.0755001595508502e-04  3.7742239079506778e-04  5.1598404143523430e-04  6.2851795360351753e-04  7.1940413167327101e-04  7.9226792228335725e-04  8.5010541897939651e-04  8.9538920548175283e-04  9.3015730040411340e-04  9.5608780202487327e-04  9.7456139996625671e-04  9.8671362310472121e-04  9.9347842883741079e-04  9.9562450607284018e-04  9.9378546064078448e-04  9.8848487465535116e-04  9.8015707809057085e-04  9.6916433886442047e-04  9.5581106462130862e-04  9.4035551286633255e-04  9.2301942403952514e-04  9.0399592262806227e-04  8.8345597280415592e-04  8.6155362584558958e-04  8.3843025542730694e-04  8.1421794261693861e-04  7.8904214406767760e-04  7.6302375361605404e-04  7.3628064851570594e-04  7.0892879622806877e-04  6.8108298549009454e-04  6.5285723580222070e-04  6.2436493210044010e-04  5.9571872581588175e-04  5.6703023944371903e-04  5.3840960883164732e-04  5.0996489537364156e-04  4.8180139889668480e-04  4.5402090101745592e-04  4.2672086790476450e-04  3.9999364051787866e-04  3.7392563933335941e-04  3.4859660918720844e-04  3.2407892804317274e-04  3.0043700118865244e-04  2.7772675953453607e-04  2.5599527737403093e-04  2.3528052119863602e-04  2.1561123707453735e-04  1.9700697977899370e-04  1.7947828253607248e-04  1.6302696193998064e-04  1.4764654868007420e-04  1.3332283114312664e-04  1.2003449600439996e-04  1.0775384763915736e-04  9.6447586663926511e-05  8.6077627185121488e-05  7.6601932383083495e-05  6.7975348844182123e-05  6.0150421489568154e-05  5.3078172926005711e-05  4.6708833432331138e-05  4.0992510455053860e-05  3.5879789278355292e-05  3.1322259324918306e-05  2.7272963216964542e-05  2.3686768183775600e-05  2.0520661568001034e-05  1.7733974007629086e-05  1.5288535326683467e-05  1.3148769250233667e-05  1.1281733781436538e-05  9.6571144681176722e-06  8.2471778826473047e-06  7.0266924871244727e-06  5.9728237048224913e-06  5.0650095171130318e-06  4.2848222987945426e-06  3.6158219356514829e-06  3.0434045723412006e-06  2.5546506463299039e-06  2.1381751982294838e-06  1.7839828280895999e-06  1.4833291029731858e-06  1.2285897206200734e-06  1.0131383002343690e-06  8.3123330420088898e-07  6.7791429114095546e-07  5.4890745667905530e-07  4.4054022797677989e-07  3.4966453523291978e-07  2.7358828146667525e-07  2.1001446461620845e-07  1.5698736725275522e-07  1.1284521347119143e-07  7.6178694769235696e-08  4.5794782513166769e-08  2.0685270079022327e-08  0.0000000000000000e+00  0.0000000000000000e+00  2.5994328937183623e-04  4.7271633926883739e-04  6.4630096385272728e-04  7.8731981744923599e-04  9.0126149916257975e-04  9.9266720693127791e-04  1.0652884586445199e-03  1.1222200180230424e-03  1.1660116510554262e-03  1.1987618729929074e-03  1.2221964240892039e-03  1.2377338345599838e-03  1.2465401041855892e-03  1.2495742270937570e-03  1.2476260344665077e-03  1.2413476038835660e-03  1.2312792903518366e-03  1.2178712674615461e-03  1.2015013244056948e-03  1.1824895428717160e-03  1.1611103743845448e-03  1.1376025511324404e-03  1.1121771894859814e-03  1.0850243834229390e-03  1.0563185332290801e-03  1.0262226117053370e-03  9.9489153441805638e-04  9.6247477119671809e-04  9.2911831217887112e-04  8.9496608242076213e-04  8.6016088373948524e-04  8.2484493042440270e-04  7.8916003622247328e-04  7.5324750309380649e-04  7.1724775722752316e-04  6.8129977431818770e-04  6.4554033377435505e-04  6.1010314003293010e-04  5.7511784817917977e-04  5.4070903033931060e-04  5.0699511856383246e-04  4.7408735892981614e-04  4.4208881016967271e-04  4.1109341813727303e-04  3.8118519475190365e-04  3.5243752667313136e-04  3.2491263486756695e-04  2.9866120150010889e-04  2.7372217533827066e-04  2.5012276126484991e-04  2.2787859375280521e-04  2.0699408849023064e-04  1.8746296098322705e-04  1.6926889613208269e-04  1.5238634866920163e-04  1.3678145112587035e-04  1.2241300377123737e-04  1.0923351979790339e-04  9.7190298914086269e-05  8.6226503386808309e-05  7.6282212359149551e-05  6.7295432792543284e-05  5.9203048489495570e-05  5.1941692144843206e-05  4.5448529064252473e-05  3.9661944896080438e-05  3.4522133285325376e-05  2.9971582641262468e-05  2.5955464109923119e-05  2.2421925288427774e-05  1.9322296172417973e-05  1.6611215282285953e-05  1.4246684885899860e-05  1.2190064762656377e-05  1.0406014088241260e-05  8.8623908228974390e-06  7.5301175239109562e-06  6.3830218409074350e-06  5.3976591523442690e-06  4.5531239191842937e-06  3.8308554154114257e-06  3.2144425846230313e-06  2.6894318986528616e-06  2.2431412810797823e-06  1.8644824211339608e-06  1.5437931510037019e-06  1.2726809955452056e-06  1.0438785272762825e-06  8.5111076741989147e-07  6.8897455948944425e-07  5.5282959784890132e-07  4.3870061143519369e-07  3.4319007376962016e-07  2.6340072606661393e-07  1.9686715271358408e-07  1.4149563036209766e-07  9.5511476845097113e-08  5.7413148483000752e-08  2.5932369346064544e-08  0.0000000000000000e+00  0.0000000000000000e+00  3.1361465046751507e-04  5.7034498845650195e-04  7.7983383245719970e-04  9.5008002816851414e-04  1.0877096723576492e-03  1.1982025967644029e-03  1.2860836181108543e-03  1.3550836216840753e-03  1.4082749124643293e-03  1.4481846924999941e-03  1.4768900042605986e-03  1.4960970161334458e-03  1.5072071157381619e-03  1.5113719159696184e-03  1.5095389636973244e-03  1.5024896676313589e-03  1.4908707257549206e-03  1.4752201297857017e-03  1.4559886504495465e-03  1.4335575593045842e-03  1.4082532171356557e-03  1.3803590525726056e-03  1.3501253649250112e-03  1.3177773099373737e-03  1.2835213642131151e-03  1.2475505116624585e-03  1.2100483519691071e-03  1.1711922954286298e-03  1.1311559794591325e-03  1.0901110186533230e-03  1.0482281815970564e-03  1.0056780731002967e-03  9.6263138934073904e-04  9.1925880514783583e-04  8.7573054675143592e-04  8.3221569932288354e-04  7.8888129611838097e-04  7.4589123459185196e-04  7.0340506409799031e-04  6.6157668939938771e-04  6.2055303379541637e-04  5.8047270500855344e-04  5.4146470574092064e-04  5.0364722884506602e-04  4.6712657419294124e-04  4.3199622049744141e-04  3.9833608053635471e-04  3.6621196251809709e-04  3.3567525385325126e-04  3.0676283656102849e-04  2.7949723620291576e-04  2.5388699888995083e-04  2.2992728386409228e-04  2.0760065271100127e-04  1.8687803069720375e-04  1.6771981126845228e-04  1.5007707156547824e-04  1.3389286500266947e-04  1.1910355653160958e-04  1.0564016711590175e-04  9.3429696048820960e-05  8.2396392867074310e-05  7.2462954527664726e-05  6.3551627972663319e-05  5.5585202955321288e-05  4.8487884798102107e-05  4.2186041381416447e-05  3.6608822938845865e-05  3.1688657019992311e-05  2.7361624179801630e-05  2.3567722511022148e-05  2.0251031042139226e-05  1.7359783298731989e-05  1.4846363020968458e-05  1.2667234212761799e-05  1.0782817449985743e-05  9.1573237825242537e-06  7.7585567138783568e-06  6.5576917137401093e-06  5.5290415863554673e-06  4.6498148433726747e-06  3.8998730657010313e-06  3.2614921248126915e-06  2.7191310992334886e-06  2.2592117862503724e-06  1.8699108832436438e-06  1.5409662016898595e-06  1.2634976784387913e-06  1.0298434579013242e-06  8.3341092699519952e-07  6.6854228200041991e-07  5.3039398189463367e-07  4.1482928508590033e-07  3.1832296486793826e-07  2.3787724320776902e-07  1.7094796337557764e-07  1.1538003123619500e-07  6.9351185651958579e-08  3.1323204394921708e-08  0.0000000000000000e+00  0.0000000000000000e+00  3.6903784520904469e-04  6.7117202545479457e-04  9.1776835173689114e-04  1.1182512558263946e-03  1.2804236450105297e-03  1.4107351684585418e-03  1.5145085791067494e-03  1.5961302544017671e-03  1.6592101740614982e-03  1.7067159589538390e-03  1.7410849507977836e-03  1.7643177559969847e-03  1.7780561852114248e-03  1.7836480888751489e-03  1.7822012127844328e-03  1.7746278718645649e-03  1.7616819590331120e-03  1.7439895646532827e-03  1.7220742756509262e-03  1.6963780475571552e-03  1.6672783935413799e-03  1.6351025083332560e-03  1.6001388386172404e-03  1.5626465222248354e-03  1.5228630438104856e-03  1.4810103925672019e-03  1.4372999561008955e-03  1.3919363422813416e-03  1.3451202863920461e-03  1.2970507730736343e-03  1.2479264804219977e-03  1.1979466363229805e-03  1.1473113639482845e-03  1.0962215836549112e-03  1.0448785317397429e-03  9.9348295206536834e-04  9.4223401399089342e-04  8.9132800883448028e-04  8.4095687680540271e-04  7.9130661653471985e-04  7.4255562959136656e-04  6.9487305231238168e-04  6.4841712656283832e-04  6.0333365938927252e-04  5.5975461872620621e-04  5.1779690822709103e-04  4.7756135887918846e-04  4.3913196838455949e-04  4.0257541150188255e-04  3.6794083589141211e-04  3.3525994880967208e-04  3.0454739063834265e-04  2.7580138211049033e-04  2.4900462362513834e-04  2.2412541759859989e-04  2.0111897871264161e-04  1.7992889243158280e-04  1.6048867942392169e-04  1.4272342258677285e-04  1.2655141417784095e-04  1.1188578295977353e-04  9.8636065026234894e-05  8.6709686820274766e-05  7.6013334451046236e-05  6.6454189431726596e-05  5.7941017078741599e-05  5.0385099740571860e-05  4.3701012519851957e-05  3.7807244026647833e-05  3.2626668824260537e-05  2.8086881530450160e-05  2.4120404998733957e-05  2.0664786654164844e-05  1.7662597959582773e-05  1.5061352231498223e-05  1.2813355715146983e-05  1.0875506078343400e-05  9.2090514052696312e-06  7.7793214692423438e-06  6.5554416317662623e-06  5.5100382341703249e-06  4.6189428833486970e-06  3.8609016352589717e-06  3.2172937854946853e-06  2.6718638094976502e-06  2.2104689690702629e-06  1.8208442212131694e-06  1.4923853274747661e-06  1.2159504593930396e-06  9.8368011719553817e-07  7.8883481154856589e-07  6.2564968766456132e-07  4.8920508321097211e-07  3.7531189244968177e-07  2.8041054606275617e-07  2.0148239760941558e-07  1.3597232331045100e-07  8.1721383090133048e-08  3.6908450118741393e-08  0.0000000000000000e+00  0.0000000000000000e+00  4.2665609148384863e-04  7.7600570080726657e-04  1.0612146323154942e-03  1.2931944390494519e-03  1.4809739457836684e-03  1.6320116895710722e-03  1.7524593336007185e-03  1.8473831954681208e-03  1.9209501202704139e-03  1.9765831044595244e-03  2.0170913366566378e-03  2.0447786640654534e-03  2.0615339132583977e-03  2.0689059863334331e-03  2.0681662115203314e-03  2.0603600448107803e-03  2.0463498897248153e-03  2.0268505198009546e-03  2.0024583470936671e-03  1.9736755746276834e-03  1.9409300966387944e-03  1