<?xml version="1.0"?>
<VTKFile type="UnstructuredGrid"  version="0.1"  >
<UnstructuredGrid>
<Piece  NumberOfPoints="10201" NumberOfCells="20000">
<Points>
<DataArray  type="Float64"  NumberOfComponents="3"  format="ascii">0 0 0  0.01 0 0  0.02 0 0  0.03 0 0  0.04 0 0  0.05 0 0  0.06 0 0  0.07000000000000001 0 0  0.08 0 0  0.09 0 0  0.1 0 0  0.11 0 0  0.12 0 0  0.13 0 0  0.14 0 0  0.15 0 0  0.16 0 0  0.17 0 0  0.18 0 0  0.19 0 0  0.2 0 0  0.21 0 0  0.22 0 0  0.23 0 0  0.24 0 0  0.25 0 0  0.26 0 0  0.27 0 0  0.28 0 0  0.29 0 0  0.3 0 0  0.31 0 0  0.32 0 0  0.33 0 0  0.34 0 0  0.35 0 0  0.36 0 0  0.37 0 0  0.38 0 0  0.39 0 0  0.4 0 0  0.41 0 0  0.42 0 0  0.43 0 0  0.44 0 0  0.45 0 0  0.46 0 0  0.47 0 0  0.48 0 0  0.49 0 0  0.5 0 0  0.51 0 0  0.52 0 0  0.53 0 0  0.54 0 0  0.55 0 0  0.5600000000000001 0 0  0.57 0 0  0.58 0 0  0.59 0 0  0.6 0 0  0.61 0 0  0.62 0 0  0.63 0 0  0.64 0 0  0.65 0 0  0.66 0 0  0.67 0 0  0.68 0 0  0.6899999999999999 0 0  0.7 0 0  0.71 0 0  0.72 0 0  0.73 0 0  0.74 0 0  0.75 0 0  0.76 0 0  0.77 0 0  0.78 0 0  0.79 0 0  0.8 0 0  0.8100000000000001 0 0  0.82 0 0  0.83 0 0  0.84 0 0  0.85 0 0  0.86 0 0  0.87 0 0  0.88 0 0  0.89 0 0  0.9 0 0  0.91 0 0  0.92 0 0  0.93 0 0  0.9399999999999999 0 0  0.95 0 0  0.96 0 0  0.97 0 0  0.98 0 0  0.99 0 0  1 0 0  0 0.01 0  0.01 0.01 0  0.02 0.01 0  0.03 0.01 0  0.04 0.01 0  0.05 0.01 0  0.06 0.01 0  0.07000000000000001 0.01 0  0.08 0.01 0  0.09 0.01 0  0.1 0.01 0  0.11 0.01 0  0.12 0.01 0  0.13 0.01 0  0.14 0.01 0  0.15 0.01 0  0.16 0.01 0  0.17 0.01 0  0.18 0.01 0  0.19 0.01 0  0.2 0.01 0  0.21 0.01 0  0.22 0.01 0  0.23 0.01 0  0.24 0.01 0  0.25 0.01 0  0.26 0.01 0  0.27 0.01 0  0.28 0.01 0  0.29 0.01 0  0.3 0.01 0  0.31 0.01 0  0.32 0.01 0  0.33 0.01 0  0.34 0.01 0  0.35 0.01 0  0.36 0.01 0  0.37 0.01 0  0.38 0.01 0  0.39 0.01 0  0.4 0.01 0  0.41 0.01 0  0.42 0.01 0  0.43 0.01 0  0.44 0.01 0  0.45 0.01 0  0.46 0.01 0  0.47 0.01 0  0.48 0.01 0  0.49 0.01 0  0.5 0.01 0  0.51 0.01 0  0.52 0.01 0  0.53 0.01 0  0.54 0.01 0  0.55 0.01 0  0.5600000000000001 0.01 0  0.57 0.01 0  0.58 0.01 0  0.59 0.01 0  0.6 0.01 0  0.61 0.01 0  0.62 0.01 0  0.63 0.01 0  0.64 0.01 0  0.65 0.01 0  0.66 0.01 0  0.67 0.01 0  0.68 0.01 0  0.6899999999999999 0.01 0  0.7 0.01 0  0.71 0.01 0  0.72 0.01 0  0.73 0.01 0  0.74 0.01 0  0.75 0.01 0  0.76 0.01 0  0.77 0.01 0  0.78 0.01 0  0.79 0.01 0  0.8 0.01 0  0.8100000000000001 0.01 0  0.82 0.01 0  0.83 0.01 0  0.84 0.01 0  0.85 0.01 0  0.86 0.01 0  0.87 0.01 0  0.88 0.01 0  0.89 0.01 0  0.9 0.01 0  0.91 0.01 0  0.92 0.01 0  0.93 0.01 0  0.9399999999999999 0.01 0  0.95 0.01 0  0.96 0.01 0  0.97 0.01 0  0.98 0.01 0  0.99 0.01 0  1 0.01 0  0 0.02 0  0.01 0.02 0  0.02 0.02 0  0.03 0.02 0  0.04 0.02 0  0.05 0.02 0  0.06 0.02 0  0.07000000000000001 0.02 0  0.08 0.02 0  0.09 0.02 0  0.1 0.02 0  0.11 0.02 0  0.12 0.02 0  0.13 0.02 0  0.14 0.02 0  0.15 0.02 0  0.16 0.02 0  0.17 0.02 0  0.18 0.02 0  0.19 0.02 0  0.2 0.02 0  0.21 0.02 0  0.22 0.02 0  0.23 0.02 0  0.24 0.02 0  0.25 0.02 0  0.26 0.02 0  0.27 0.02 0  0.28 0.02 0  0.29 0.02 0  0.3 0.02 0  0.31 0.02 0  0.32 0.02 0  0.33 0.02 0  0.34 0.02 0  0.35 0.02 0  0.36 0.02 0  0.37 0.02 0  0.38 0.02 0  0.39 0.02 0  0.4 0.02 0  0.41 0.02 0  0.42 0.02 0  0.43 0.02 0  0.44 0.02 0  0.45 0.02 0  0.46 0.02 0  0.47 0.02 0  0.48 0.02 0  0.49 0.02 0  0.5 0.02 0  0.51 0.02 0  0.52 0.02 0  0.53 0.02 0  0.54 0.02 0  0.55 0.02 0  0.5600000000000001 0.02 0  0.57 0.02 0  0.58 0.02 0  0.59 0.02 0  0.6 0.02 0  0.61 0.02 0  0.62 0.02 0  0.63 0.02 0  0.64 0.02 0  0.65 0.02 0  0.66 0.02 0  0.67 0.02 0  0.68 0.02 0  0.6899999999999999 0.02 0  0.7 0.02 0  0.71 0.02 0  0.72 0.02 0  0.73 0.02 0  0.74 0.02 0  0.75 0.02 0  0.76 0.02 0  0.77 0.02 0  0.78 0.02 0  0.79 0.02 0  0.8 0.02 0  0.8100000000000001 0.02 0  0.82 0.02 0  0.83 0.02 0  0.84 0.02 0  0.85 0.02 0  0.86 0.02 0  0.87 0.02 0  0.88 0.02 0  0.89 0.02 0  0.9 0.02 0  0.91 0.02 0  0.92 0.02 0  0.93 0.02 0  0.9399999999999999 0.02 0  0.95 0.02 0  0.96 0.02 0  0.97 0.02 0  0.98 0.02 0  0.99 0.02 0  1 0.02 0  0 0.03 0  0.01 0.03 0  0.02 0.03 0  0.03 0.03 0  0.04 0.03 0  0.05 0.03 0  0.06 0.03 0  0.07000000000000001 0.03 0  0.08 0.03 0  0.09 0.03 0  0.1 0.03 0  0.11 0.03 0  0.12 0.03 0  0.13 0.03 0  0.14 0.03 0  0.15 0.03 0  0.16 0.03 0  0.17 0.03 0  0.18 0.03 0  0.19 0.03 0  0.2 0.03 0  0.21 0.03 0  0.22 0.03 0  0.23 0.03 0  0.24 0.03 0  0.25 0.03 0  0.26 0.03 0  0.27 0.03 0  0.28 0.03 0  0.29 0.03 0  0.3 0.03 0  0.31 0.03 0  0.32 0.03 0  0.33 0.03 0  0.34 0.03 0  0.35 0.03 0  0.36 0.03 0  0.37 0.03 0  0.38 0.03 0  0.39 0.03 0  0.4 0.03 0  0.41 0.03 0  0.42 0.03 0  0.43 0.03 0  0.44 0.03 0  0.45 0.03 0  0.46 0.03 0  0.47 0.03 0  0.48 0.03 0  0.49 0.03 0  0.5 0.03 0  0.51 0.03 0  0.52 0.03 0  0.53 0.03 0  0.54 0.03 0  0.55 0.03 0  0.5600000000000001 0.03 0  0.57 0.03 0  0.58 0.03 0  0.59 0.03 0  0.6 0.03 0  0.61 0.03 0  0.62 0.03 0  0.63 0.03 0  0.64 0.03 0  0.65 0.03 0  0.66 0.03 0  0.67 0.03 0  0.68 0.03 0  0.6899999999999999 0.03 0  0.7 0.03 0  0.71 0.03 0  0.72 0.03 0  0.73 0.03 0  0.74 0.03 0  0.75 0.03 0  0.76 0.03 0  0.77 0.03 0  0.78 0.03 0  0.79 0.03 0  0.8 0.03 0  0.8100000000000001 0.03 0  0.82 0.03 0  0.83 0.03 0  0.84 0.03 0  0.85 0.03 0  0.86 0.03 0  0.87 0.03 0  0.88 0.03 0  0.89 0.03 0  0.9 0.03 0  0.91 0.03 0  0.92 0.03 0  0.93 0.03 0  0.9399999999999999 0.03 0  0.95 0.03 0  0.96 0.03 0  0.97 0.03 0  0.98 0.03 0  0.99 0.03 0  1 0.03 0  0 0.04 0  0.01 0.04 0  0.02 0.04 0  0.03 0.04 0  0.04 0.04 0  0.05 0.04 0  0.06 0.04 0  0.07000000000000001 0.04 0  0.08 0.04 0  0.09 0.04 0  0.1 0.04 0  0.11 0.04 0  0.12 0.04 0  0.13 0.04 0  0.14 0.04 0  0.15 0.04 0  0.16 0.04 0  0.17 0.04 0  0.18 0.04 0  0.19 0.04 0  0.2 0.04 0  0.21 0.04 0  0.22 0.04 0  0.23 0.04 0  0.24 0.04 0  0.25 0.04 0  0.26 0.04 0  0.27 0.04 0  0.28 0.04 0  0.29 0.04 0  0.3 0.04 0  0.31 0.04 0  0.32 0.04 0  0.33 0.04 0  0.34 0.04 0  0.35 0.04 0  0.36 0.04 0  0.37 0.04 0  0.38 0.04 0  0.39 0.04 0  0.4 0.04 0  0.41 0.04 0  0.42 0.04 0  0.43 0.04 0  0.44 0.04 0  0.45 0.04 0  0.46 0.04 0  0.47 0.04 0  0.48 0.04 0  0.49 0.04 0  0.5 0.04 0  0.51 0.04 0  0.52 0.04 0  0.53 0.04 0  0.54 0.04 0  0.55 0.04 0  0.5600000000000001 0.04 0  0.57 0.04 0  0.58 0.04 0  0.59 0.04 0  0.6 0.04 0  0.61 0.04 0  0.62 0.04 0  0.63 0.04 0  0.64 0.04 0  0.65 0.04 0  0.66 0.04 0  0.67 0.04 0  0.68 0.04 0  0.6899999999999999 0.04 0  0.7 0.04 0  0.71 0.04 0  0.72 0.04 0  0.73 0.04 0  0.74 0.04 0  0.75 0.04 0  0.76 0.04 0  0.77 0.04 0  0.78 0.04 0  0.79 0.04 0  0.8 0.04 0  0.8100000000000001 0.04 0  0.82 0.04 0  0.83 0.04 0  0.84 0.04 0  0.85 0.04 0  0.86 0.04 0  0.87 0.04 0  0.88 0.04 0  0.89 0.04 0  0.9 0.04 0  0.91 0.04 0  0.92 0.04 0  0.93 0.04 0  0.9399999999999999 0.04 0  0.95 0.04 0  0.96 0.04 0  0.97 0.04 0  0.98 0.04 0  0.99 0.04 0  1 0.04 0  0 0.05 0  0.01 0.05 0  0.02 0.05 0  0.03 0.05 0  0.04 0.05 0  0.05 0.05 0  0.06 0.05 0  0.07000000000000001 0.05 0  0.08 0.05 0  0.09 0.05 0  0.1 0.05 0  0.11 0.05 0  0.12 0.05 0  0.13 0.05 0  0.14 0.05 0  0.15 0.05 0  0.16 0.05 0  0.17 0.05 0  0.18 0.05 0  0.19 0.05 0  0.2 0.05 0  0.21 0.05 0  0.22 0.05 0  0.23 0.05 0  0.24 0.05 0  0.25 0.05 0  0.26 0.05 0  0.27 0.05 0  0.28 0.05 0  0.29 0.05 0  0.3 0.05 0  0.31 0.05 0  0.32 0.05 0  0.33 0.05 0  0.34 0.05 0  0.35 0.05 0  0.36 0.05 0  0.37 0.05 0  0.38 0.05 0  0.39 0.05 0  0.4 0.05 0  0.41 0.05 0  0.42 0.05 0  0.43 0.05 0  0.44 0.05 0  0.45 0.05 0  0.46 0.05 0  0.47 0.05 0  0.48 0.05 0  0.49 0.05 0  0.5 0.05 0  0.51 0.05 0  0.52 0.05 0  0.53 0.05 0  0.54 0.05 0  0.55 0.05 0  0.5600000000000001 0.05 0  0.57 0.05 0  0.58 0.05 0  0.59 0.05 0  0.6 0.05 0  0.61 0.05 0  0.62 0.05 0  0.63 0.05 0  0.64 0.05 0  0.65 0.05 0  0.66 0.05 0  0.67 0.05 0  0.68 0.05 0  0.6899999999999999 0.05 0  0.7 0.05 0  0.71 0.05 0  0.72 0.05 0  0.73 0.05 0  0.74 0.05 0  0.75 0.05 0  0.76 0.05 0  0.77 0.05 0  0.78 0.05 0  0.79 0.05 0  0.8 0.05 0  0.8100000000000001 0.05 0  0.82 0.05 0  0.83 0.05 0  0.84 0.05 0  0.85 0.05 0  0.86 0.05 0  0.87 0.05 0  0.88 0.05 0  0.89 0.05 0  0.9 0.05 0  0.91 0.05 0  0.92 0.05 0  0.93 0.05 0  0.9399999999999999 0.05 0  0.95 0.05 0  0.96 0.05 0  0.97 0.05 0  0.98 0.05 0  0.99 0.05 0  1 0.05 0  0 0.06 0  0.01 0.06 0  0.02 0.06 0  0.03 0.06 0  0.04 0.06 0  0.05 0.06 0  0.06 0.06 0  0.07000000000000001 0.06 0  0.08 0.06 0  0.09 0.06 0  0.1 0.06 0  0.11 0.06 0  0.12 0.06 0  0.13 0.06 0  0.14 0.06 0  0.15 0.06 0  0.16 0.06 0  0.17 0.06 0  0.18 0.06 0  0.19 0.06 0  0.2 0.06 0  0.21 0.06 0  0.22 0.06 0  0.23 0.06 0  0.24 0.06 0  0.25 0.06 0  0.26 0.06 0  0.27 0.06 0  0.28 0.06 0  0.29 0.06 0  0.3 0.06 0  0.31 0.06 0  0.32 0.06 0  0.33 0.06 0  0.34 0.06 0  0.35 0.06 0  0.36 0.06 0  0.37 0.06 0  0.38 0.06 0  0.39 0.06 0  0.4 0.06 0  0.41 0.06 0  0.42 0.06 0  0.43 0.06 0  0.44 0.06 0  0.45 0.06 0  0.46 0.06 0  0.47 0.06 0  0.48 0.06 0  0.49 0.06 0  0.5 0.06 0  0.51 0.06 0  0.52 0.06 0  0.53 0.06 0  0.54 0.06 0  0.55 0.06 0  0.5600000000000001 0.06 0  0.57 0.06 0  0.58 0.06 0  0.59 0.06 0  0.6 0.06 0  0.61 0.06 0  0.62 0.06 0  0.63 0.06 0  0.64 0.06 0  0.65 0.06 0  0.66 0.06 0  0.67 0.06 0  0.68 0.06 0  0.6899999999999999 0.06 0  0.7 0.06 0  0.71 0.06 0  0.72 0.06 0  0.73 0.06 0  0.74 0.06 0  0.75 0.06 0  0.76 0.06 0  0.77 0.06 0  0.78 0.06 0  0.79 0.06 0  0.8 0.06 0  0.8100000000000001 0.06 0  0.82 0.06 0  0.83 0.06 0  0.84 0.06 0  0.85 0.06 0  0.86 0.06 0  0.87 0.06 0  0.88 0.06 0  0.89 0.06 0  0.9 0.06 0  0.91 0.06 0  0.92 0.06 0  0.93 0.06 0  0.9399999999999999 0.06 0  0.95 0.06 0  0.96 0.06 0  0.97 0.06 0  0.98 0.06 0  0.99 0.06 0  1 0.06 0  0 0.07000000000000001 0  0.01 0.07000000000000001 0  0.02 0.07000000000000001 0  0.03 0.07000000000000001 0  0.04 0.07000000000000001 0  0.05 0.07000000000000001 0  0.06 0.07000000000000001 0  0.07000000000000001 0.07000000000000001 0  0.08 0.07000000000000001 0  0.09 0.07000000000000001 0  0.1 0.07000000000000001 0  0.11 0.07000000000000001 0  0.12 0.07000000000000001 0  0.13 0.07000000000000001 0  0.14 0.07000000000000001 0  0.15 0.07000000000000001 0  0.16 0.07000000000000001 0  0.17 0.0700
[...]
<PointData  Scalars="u"> 
<DataArray  type="Float64"  Name="u"  format="ascii">0.0000000000000000e+00  0.0000000000000000e+00  0.0000000000000000e+00  0.0000000000000000e+00  0.0000000000000000e+00  0.0000000000000000e+00  0.0000000000000000e+00  0.0000000000000000e+00  0.0000000000000000e+00  0.0000000000000000e+00  0.0000000000000000e+00  0.0000000000000000e+00  0.0000000000000000e+00  0.0000000000000000e+00  0.0000000000000000e+00  0.0000000000000000e+00  0.0000000000000000e+00  0.0000000000000000e+00  0.0000000000000000e+00  0.0000000000000000e+00  0.0000000000000000e+00  0.0000000000000000e+00  0.0000000000000000e+00  0.0000000000000000e+00  0.0000000000000000e+00  0.0000000000000000e+00  0.0000000000000000e+00  0.0000000000000000e+00  0.0000000000000000e+00  0.0000000000000000e+00  0.0000000000000000e+00  0.0000000000000000e+00  0.0000000000000000e+00  0.0000000000000000e+00  0.0000000000000000e+00  0.0000000000000000e+00  0.0000000000000000e+00  0.0000000000000000e+00  0.0000000000000000e+00  0.0000000000000000e+00  0.0000000000000000e+00  0.0000000000000000e+00  0.0000000000000000e+00  0.0000000000000000e+00  0.0000000000000000e+00  0.0000000000000000e+00  0.0000000000000000e+00  0.0000000000000000e+00  0.0000000000000000e+00  0.0000000000000000e+00  0.0000000000000000e+00  0.0000000000000000e+00  0.0000000000000000e+00  0.0000000000000000e+00  0.0000000000000000e+00  0.0000000000000000e+00  0.0000000000000000e+00  0.0000000000000000e+00  0.0000000000000000e+00  0.0000000000000000e+00  0.0000000000000000e+00  0.0000000000000000e+00  0.0000000000000000e+00  0.0000000000000000e+00  0.0000000000000000e+00  0.0000000000000000e+00  0.0000000000000000e+00  0.0000000000000000e+00  0.0000000000000000e+00  0.0000000000000000e+00  0.0000000000000000e+00  0.0000000000000000e+00  0.0000000000000000e+00  0.0000000000000000e+00  0.0000000000000000e+00  0.0000000000000000e+00  0.0000000000000000e+00  0.0000000000000000e+00  0.0000000000000000e+00  0.0000000000000000e+00  0.0000000000000000e+00  0.0000000000000000e+00  0.0000000000000000e+00  0.0000000000000000e+00  0.0000000000000000e+00  0.0000000000000000e+00  0.0000000000000000e+00  0.0000000000000000e+00  0.0000000000000000e+00  0.0000000000000000e+00  0.0000000000000000e+00  0.0000000000000000e+00  0.0000000000000000e+00  0.0000000000000000e+00  0.0000000000000000e+00  0.0000000000000000e+00  0.0000000000000000e+00  0.0000000000000000e+00  0.0000000000000000e+00  0.0000000000000000e+00  0.0000000000000000e+00  0.0000000000000000e+00  2.4743915199700039e-04  4.5541800331352797e-04  6.2954252243980905e-04  7.7458732541536390e-04  8.9467522361871615e-04  9.9335541988734887e-04  1.0736751647558082e-03  1.1382443191107908e-03  1.1892930887766112e-03  1.2287233557390226e-03  1.2581540876430953e-03  1.2789613284719843e-03  1.2923132739678129e-03  1.2992009219608969e-03  1.3004647647169268e-03  1.2968179610176314e-03  1.2888663925228628e-03  1.2771259739791888e-03  1.2620375515097070e-03  1.2439796886155345e-03  1.2232796064020237e-03  1.2002225134272364e-03  1.1750595317828330e-03  1.1480143997403165e-03  1.1192891076032005e-03  1.0890686022942320e-03  1.0575246776153239e-03  1.0248191509454529e-03  9.9110641325928319e-04  9.5653542760781635e-04  9.2125124143893221e-04  8.8539607017643410e-04  8.4911000313871578e-04  8.1253137797208171e-04  7.7579686610205383e-04  7.3904130906551164e-04  7.0239734376939262e-04  6.6599485351777343e-04  6.2996028084888662e-04  5.9441583762266052e-04  5.5947864720340445e-04  5.2525985281354941e-04  4.9186372503761940e-04  4.5938679990504031e-04  4.2791707688500676e-04  3.9753330343531864e-04  3.6830436945157157e-04  3.4028883109870489e-04  3.1353457915120450e-04  2.8807866223666480e-04  2.6394727041656761e-04  2.4115587951708902e-04  2.1970955172228592e-04  1.9960338334341237e-04  1.8082308655151927e-04  1.6334568835435788e-04  1.4714032733052253e-04  1.3216912668389294e-04  1.1838812108834599e-04  1.0574821455255780e-04  9.4196147103202250e-05  8.3675449381749505e-05  7.4127366166130854e-05  6.5491732233593543e-05  5.7707786733098286e-05  5.0714915189591702e-05  4.4453311278776067e-05  3.8864553462336378e-05  3.3892094350613490e-05  2.9481663174651856e-05  2.5581583938087220e-05  2.2143013640790033e-05  1.9120106402228184e-05  1.6470110364759717e-05  1.4153404943835249e-05  1.2133486344742803e-05  1.0376909324688169e-05  8.8531929909156422e-06  7.5346980388169090e-06  6.3964822966784503e-06  5.4161408013356163e-06  4.5736359226923353e-06  3.8511223206229029e-06  3.2327707850729710e-06  2.7045943030482695e-06  2.2542790326142343e-06  1.8710222566414341e-06  1.5453788456828874e-06  1.2691172838831491e-06  1.0350859047267301e-06  8.3708964269802515e-07  6.6977732861740015e-07  5.2853933531349893e-07  4.0941521037570878e-07  3.0901080758789359e-07  2.2442434162067979e-07  1.5318073402797222e-07  9.3173577833630251e-08  4.2613943916919186e-08  0.0000000000000000e+00  0.0000000000000000e+00  4.7203337755049674e-04  8.6888576990970664e-04  1.2011531474601241e-03  1.4779532574361819e-03  1.7071553055010239e-03  1.8955323675771828e-03  2.0488987468334826e-03  2.1722334584652692e-03  2.2697905913147544e-03  2.3451974002818357e-03  2.4015410627121932e-03  2.4414450668086723e-03  2.4671361993837660e-03  2.4805030734892136e-03  2.4831470914961893e-03  2.4764266823018438e-03  2.4614955873674097e-03  2.4393359029676836e-03  2.4107865181360343e-03  2.3765675213563669e-03  2.3373010855216787e-03  2.2935292810188903e-03  2.2457292116235066e-03  2.1943258175347543e-03  2.1397026444878657e-03  2.0822108374332054e-03  2.0221765816524815e-03  1.9599071831964228e-03  1.8956959539294660e-03  1.8298260439721867e-03  1.7625733456322586e-03  1.6942085776808066e-03  1.6249986467174336e-03  1.5552073730139870e-03  1.4850956612602795e-03  1.4149211916681937e-03  1.3449377035274373e-03  1.2753939411439177e-03  1.2065323307272090e-03  1.1385874558312906e-03  1.0717843980150952e-03  1.0063370081278551e-03  9.4244617173289418e-04  8.8029812941093667e-04  8.2006290884631676e-04  7.6189292058873590e-04  7.0592176317553295e-04  6.5226327595599627e-04  6.0101086962502067e-04  5.5223715536866923e-04  5.0599388393245712e-04  4.6231219617368183e-04  4.2120317710654822e-04  3.8265869645072236e-04  3.4665251058788575e-04  3.1314159391322271e-04  2.8206766207636232e-04  2.5335884570272424e-04  2.2693147095345889e-04  2.0269190271842948e-04  1.8053840725977048e-04  1.6036299357992189e-04  1.4205319646591930e-04  1.2549376880733183e-04  1.1056825612055992e-04  9.7160431952679163e-05  8.5155578709084092e-05  7.4441604200356848e-05  6.4909989619560030e-05  5.6456569568452179e-05  4.8982149023006418e-05  4.2392965684709447e-05  3.6601008968085935e-05  3.1524208929638901e-05  2.7086509784708267e-05  2.3217843348049257e-05  1.9854017850807099e-05  1.6936537221578199e-05  1.4412365167485468e-05  1.2233647346769840e-05  1.0357403676112063e-05  8.7452014440504326e-06  7.3628184761953738e-06  6.1799041765753139e-06  5.1696448986414763e-06  4.3084388140549924e-06  3.5755842717197967e-06  2.9529845886910683e-06  2.4248712958113691e-06  1.9775470750458960e-06  1.5991489683816301e-06  1.2794319020499799e-06  1.0095721444768270e-06  7.8198999002091281e-07  5.9019072083511878e-07  4.2862273372719213e-07  2.9255161645111709e-07  1.7794891348687782e-07  8.1394368770297207e-08  0.0000000000000000e+00  0.0000000000000000e+00  6.7800860524638395e-04  1.2480873704380350e-03  1.7254306012966865e-03  2.1231436487684414e-03  2.4525354431584692e-03  2.7233373551034811e-03  2.9439012273277804e-03  3.1213773522614178e-03  3.2618734636335298e-03  3.3705959950001084e-03  3.4519749682819833e-03  3.5097739213272288e-03  3.5471862792394180e-03  3.5669195330638409e-03  3.5712685225581160e-03  3.5621790361050555e-03  3.5413028472976024e-03  3.5100452096395542e-03  3.4696057321230603e-03  3.4210134620489387e-03  3.3651569093809145e-03  3.3028096605358386e-03  3.2346521496635591e-03  3.1612900826292435e-03  3.0832699432574869e-03  3.0010919529026405e-03  2.9152208028944498e-03  2.8260944345903302e-03  2.7341311032906507e-03  2.6397349297375286e-03  2.5433001158815223e-03  2.4452139795979894e-03  2.3458589455768210e-03  2.2456136161850332e-03  2.1448530361803755e-03  2.0439482581840612e-03  1.9432653112333234e-03  1.8431636719478540e-03  1.7439943362714094e-03  1.6460975888104184e-03  1.5498005659257317e-03  1.4554147074194554e-03  1.3632331894325147e-03  1.2735284276424654e-03  1.1865497347342898e-03  1.1025212092301408e-03  1.0216399240514022e-03  9.4407447272089741e-04  8.6996391909424902e-04  7.9941718325354479e-04  7.3251288211887290e-04  6.6929962892316576e-04  6.0979678148577866e-04  5.5399561575227398e-04  5.0186088885865229e-04  4.5333274548561305e-04  4.0832891286320371e-04  3.6674712372980283e-04  3.2846770298050870e-04  2.9335625266968003e-04  2.6126637134889864e-04  2.3204234720319803e-04  2.0552176978300303e-04  1.8153801193904637e-04  1.5992254143605962e-04  1.4050703022018172e-04  1.2312523803058488e-04  1.0761465559904221e-04  9.3817900745791946e-05  8.1583867993691972e-05  7.0768638692680284e-05  6.1236163950757831e-05  5.2858736850568254e-05  4.5517273495971094e-05  3.9101424434294369e-05  3.3509539029347681e-05  2.8648505537202934e-05  2.4433489097023063e-05  2.0787588735268987e-05  1.7641432934212439e-05  1.4932731467420993e-05  1.2605799175418071e-05  1.0611065247743964e-05  8.9045794793132650e-06  7.4475249476430456e-06  6.2057446644884644e-06  5.1492880262753877e-06  4.2519813443026400e-06  3.4910253882063485e-06  2.8466217254144506e-06  2.3016286787585330e-06  1.8412469422133486e-06  1.4527342754734044e-06  1.1251482242117926e-06  8.4911546597185102e-07  6.1662614341559737e-07  4.2085139981245982e-07  2.5598225999313251e-07  1.1708796446953209e-07  0.0000000000000000e+00  0.0000000000000000e+00  8.6883096539939087e-04  1.5994150290663596e-03  2.2112251764926510e-03  2.7210717549443729e-03  3.1434562066854589e-03  3.4908530361601642e-03  3.7739648524723912e-03  4.0019514839963822e-03  4.1826345389767185e-03  4.3226790524625892e-03  4.4277540027196404e-03  4.5026735347743450e-03  4.5515207182267254e-03  4.5777556090963430e-03  4.5843092957369722e-03  4.5736654981839665e-03  4.5479311675293869e-03  4.5088974037773817e-03  4.4580918821241376e-03  4.3968238523625905e-03  4.3262226566763776e-03  4.2472705991589811e-03  4.1608308970231917e-03  4.0676713492143156e-03  3.9684842732119665e-03  3.8639031851398970e-03  3.7545166316601611e-03  3.6408795241378513e-03  3.5235222757710820e-03  3.4029580002747990e-03  3.2796879957325306e-03  3.1542057088015034e-03  3.0269993519612052e-03  2.8985533292916667e-03  2.7693486136875604e-03  2.6398622097580119e-03  2.5105658312044527e-03  2.3819239184589684e-03  2.2543911210396619e-03  2.1284093686712358e-03  2.0044046549818136e-03  1.8827836568128219e-03  1.7639303102293569e-03  1.6482024606480205e-03  1.5359286986861519e-03  1.4274054851038951e-03  1.3228946574472278e-03  1.2226213977688197e-03  1.1267727253432267e-03  1.0354965610058523e-03  9.4890139117723290e-04  8.6705654044039702e-04  7.8999304244410282e-04  7.1770508065498184e-04  6.5015195379764467e-04  5.8726050635034039e-04  5.2892795273735266e-04  4.7502501526292440e-04  4.2539929058242208e-04  3.7987875764512513e-04  3.3827534143886299e-04  3.0038845123377643e-04  2.6600841894693468e-04  2.3491977222278850e-04  2.0690428728108723e-04  1.8174377793942241e-04  1.5922258890430806e-04  1.3912977292213693e-04  1.2126094224026936e-04  1.0541979468705267e-04  9.1419323271804359e-05  7.9082725362654625e-05  6.8244033144387319e-05  5.8748491194338446e-05  5.0452709714564323e-05  4.3224623348253838e-05  3.6943285750313468e-05  3.1498529360848669e-05  2.6790518339269235e-05  2.2729220546633096e-05  1.9233821993805732e-05  1.6232104464271211e-05  1.3659804212265310e-05  1.1459966844585167e-05  9.5823108090236740e-06  7.9826094017653300e-06  6.6220989170171785e-06  5.4669185228891425e-06  4.4875856707946447e-06  3.6585093315936124e-06  2.9575420908979405e-06  2.3655711119795857e-06  1.8661471664966828e-06  1.4451503170367922e-06  1.0904903864402211e-06  7.9184004231446063e-07  5.4039813726260347e-07  3.2868085299911276e-07  1.5033817076474694e-07  0.0000000000000000e+00  0.0000000000000000e+00  1.0474039534055435e-03  1.9282196270293918e-03  2.6659458489730133e-03  3.2808735859194953e-03  3.7904994473110763e-03  4.2098682014721413e-03  4.5518822903614616e-03  4.8275796474689615e-03  5.0463815554973590e-03  5.2163125877663172e-03  5.3441948411466185e-03  5.4358187255406365e-03  5.4960925541473584e-03  5.5291731023634737e-03  5.5385791887564012e-03  5.5272901928182317e-03  5.4978312717369228e-03  5.4523468801971594e-03  5.3926640391742985e-03  5.3203466460819207e-03  5.2367419724512884e-03  5.1430203585254635e-03  5.0402089879385782e-03  4.9292205106434683e-03  4.8108771786480068e-03  4.6859310668190893e-03  4.5550808697002341e-03  4.4189856945095222e-03  4.2782762096890250e-03  4.1335634569546536e-03  3.9854455920930298e-03  3.8345127850828178e-03  3.6813504827658485e-03  3.5265412165086177e-03  3.3706651222914236e-03  3.2142993306138331e-03  3.0580163776430290e-03  2.9023817862475483e-03  2.7479509650152416e-03  2.5952655740968150e-03  2.4448495077984472e-03  2.2972046443578307e-03  2.1528065124361202e-03  2.0121000208096537e-03  1.8754953919606664e-03  1.7433644313354082e-03  1.6160372517589801e-03  1.4937995568926104e-03  1.3768905689464299e-03  1.2655016645963921e-03  1.1597757598732425e-03  1.0598074605266824e-03  9.6564396995784914e-04  8.7728672324073565e-04  7.9469369398071259e-04  7.1778230166357349e-04  6.4643283146716460e-04  5.8049226678679431e-04  5.1977842729290216e-04  4.6408430228867773e-04  4.1318247033059197e-04  3.6682950117050613e-04  3.2477024455319074e-04  2.8674192160587823e-04  2.5247794775385237e-04  2.2171143052542193e-04  1.9417830052644269e-04  1.6962004858424819e-04  1.4778605599116896e-04  1.2843551744106343e-04  1.1133896729686054e-04  9.6279429029169969e-05  8.3053214922659618e-05  7.1470408462642228e-05  6.1355065283218580e-05  5.2545170343607790e-05  4.4892389312428693e-05  3.8261651220566769e-05  3.2530597542427921e-05  2.7588930229308117e-05  2.3337688078115624e-05  1.9688477380747036e-05  1.6562679242054483e-05  1.3890652424201596e-05  1.1610947187440557e-05  9.6695424371495937e-06  8.0191156123789662e-06  6.6183521965582945e-06  5.4312995110636473e-06  4.4267675658793977e-06  3.5777781754199234e-06  2.8610622798788027e-06  2.2566044157731701e-06  1.7472325230077706e-06  1.3182507279893567e-06  9.5711237161704105e-07  6.5313032731874342e-07  3.9722154992224822e-07  1.8168278112487815e-07  0.0000000000000000e+00  0.0000000000000000e+00  1.2161481742806095e-03  2.2389616068773724e-03  3.0957685872144620e-03  3.8101648426574690e-03  4.4024862739001913e-03  4.8902103259977955e-03  5.2883182693569102e-03  5.6096200394457913e-03  5.8650437747780034e-03  6.0638925272553362e-03  6.2140707926748515e-03  6.3222835618040188e-03  6.3942105563134484e-03  6.4346582148173369e-03  6.4476918525963297e-03  6.4367502500445525e-03  6.4047447415919003e-03  6.3541446879166177e-03  6.2870510263993134e-03  6.2052594127871650e-03  6.1103142942565969e-03  6.0035550926485510e-03  5.8861555278950650e-03  5.7591569761980196e-03  5.6234966355290968e-03  5.4800311623276849e-03  5.3295563474854589e-03  5.1728233162792892e-03  5.0105516652072949e-03  4.8434398879984688e-03  4.6721733926663326e-03  4.4974303705945795e-03  4.3198857464797754e-03  4.1402134136797096e-03  3.9590869422463457e-03  3.7771789357279534e-03  3.5951592067123648e-03  3.4136919389998188e-03  3.2334320051313242e-03  3.0550206106105537e-03  2.8790804393826323e-03  2.7062104778315787e-03  2.5369806956517887e-03  2.3719267604709882e-03  2.2115449582486867e-03  2.0562874826514929e-03  1.9065582434743525e-03  1.7627093266780747e-03  1.6250382169895208e-03  1.4937858687963442e-03  1.3691356830657761e-03  1.2512134182513896e-03  1.1400880328053125e-03  1.0357734272487273e-03  9.3823102602784772e-04  8.4737311476255450e-04  7.6306682797735591e-04  6.8513866675210151e-04  6.1337941542561507e-04  5.4754932170885198e-04  4.8738340519352064e-04  4.3259676487670742e-04  3.8288976632613902e-04  3.3795300266990097e-04  2.9747193978125330e-04  2.6113117387076414e-04  2.2861824823952761e-04  1.9962699430773500e-04  1.7386037944830063e-04  1.5103286000853875e-04  1.3087225173938742e-04  1.1312114138159265e-04  9.7537872247858236e-05  8.3897143293821876e-05  7.1990265508365423e-05  6.1625121683065120e-05  5.2625876010513971e-05  4.4832478816236498e-05  3.8100009365997531e-05  3.2297896420270146e-05  2.7309052320374926e-05  2.3028952145158565e-05  1.9364685094497984e-05  1.6234000917787460e-05  1.3564370053266622e-05  1.1292072281218181e-05  9.3613251903152485e-06  7.7234606519567622e-06  6.3361548081548283e-06  5.1627148009596731e-06  4.1714235874739493e-06  3.3349426658632254e-06  2.6297713494461923e-06  2.0357603294296744e-06  1.5356766225130719e-06  1.1148165685427320e-06  7.6066328887303125e-07  4.6258490442277188e-07  2.1156980898273970e-07  0.0000000000000000e+00  0.0000000000000000e+00  1.3770696557868355e-03  2.5353374336772156e-03  3.5058116422589931e-03  4.3152571988287498e-03  4.9867278112344614e-03  5.5400252936646990e-03  5.9921136007393865e-03  6.3574896228564427e-03  6.6485133269188921e-03  6.8757001789049692e-03  7.0479789590183750e-03  7.1729181206786124e-03  7.2569237874664152e-03  7.3054123561543619e-03  7.3229605018188494e-03  7.3134351803559291e-03  7.2801060079577800e-03  7.2257421763283298e-03  7.1526958440065102e-03  7.0629737333676420e-03  6.9582984632645386e-03  6.8401609611452975e-03  6.7098651271720201e-03  6.5685657669795313e-03  6.4173006693576144e-03  6.2570175800611997e-03  6.0885967126606769e-03  5.9128693411995325e-03  5.7306329367014181e-03  5.5426632394862266e-03  5.3497236010096819e-03  5.1525718817057907e-03  4.9519651542339563e-03  4.7486624337223478e-03  4.5434256371143988e-03  4.3370189615545719e-03  4.1302068658003403e-03  3.9237508377376138e-03  3.7184051339374941e-03  3.5149116824798104e-03  3.3139943465921762e-03  3.1163527526119768e-03  2.9226558900157162e-03  2.7335356925222562e-03  2.5495808064827249e-03  2.3713307450765084e-03  2.1992706136975829e-03  2.0338265731430667e-03  1.8753621829890612e-03  1.7241757384218054e-03  1.5804986807087908e-03  1.4444951256760829e-03  1.3162625174683617e-03  1.1958333781040198e-03  1.0831780885209262e-03  9.7820860547124535e-04  8.8078299210269675e-04  7.9071061940959341e-04  7.0775788164872239e-04  6.3165426160369026e-04  5.6209858116506401e-04  4.9876527862462801e-04  4.4131056559876562e-04  3.8937833259585609e-04  3.4260569176676887e-04  3.0062806709926212e-04  2.6308376502548052e-04  2.2961798098526835e-04  1.9988621895193455e-04  1.7355712049313825e-04  1.5031471702668417e-04  1.2986013316876218e-04  1.1191278028933325e-04  9.6211087590883241e-05  8.2512823363429749e-05  7.0595061802529793e-05  6.0253851246510435e-05  5.1303638275983140e-05  4.3576499219036624e-05  3.6921226606002579e-05  3.1202313377374808e-05  2.6298872486160469e-05  2.2103524222834692e-05  1.8521278347712132e-05  1.5468433112388576e-05  1.2871508612484453e-05  1.0666227719820240e-05  8.7965541390164980e-06  7.2137939374405789e-06  5.8757642013218164e-06  4.7460302503484670e-06  3.7932110617526355e-06  2.9903511688874950e-06  2.3143562609042038e-06  1.7454889707533931e-06  1.2669208510839391e-06  8.6433625727928449e-07  5.2558374336480512e-07  2.4037058989983422e-07  0.0000000000000000e+00  0.0000000000000000e+00  1.5318175864655675e-03  2.8203861047478231e-03  3.9002831144883208e-03  4.8013403507058362e-03  5.5492361793131927e-03  6.1660126082292502e-03  6.6705406384528730e-03  7.0789364545349081e-03  7.4049315319616007e-03  7.6602000986808584e-03  7.8546475536525242e-03  7.9966634660874249e-03  8.0933426947231695e-03  8.1506780087401438e-03  8.1737273856160517e-03  8.1667589255816839e-03  8.1333760719969929e-03  8.0766255728073090e-03  7.9990903681845440e-03  7.9029693490750078e-03  7.7901457044100859e-03  7