<?xml version="1.0"?>
<VTKFile type="UnstructuredGrid"  version="0.1"  >
<UnstructuredGrid>
<Piece  NumberOfPoints="10201" NumberOfCells="20000">
<Points>
<DataArray  type="Float64"  NumberOfComponents="3"  format="ascii">0 0 0  0.01 0 0  0.02 0 0  0.03 0 0  0.04 0 0  0.05 0 0  0.06 0 0  0.07000000000000001 0 0  0.08 0 0  0.09 0 0  0.1 0 0  0.11 0 0  0.12 0 0  0.13 0 0  0.14 0 0  0.15 0 0  0.16 0 0  0.17 0 0  0.18 0 0  0.19 0 0  0.2 0 0  0.21 0 0  0.22 0 0  0.23 0 0  0.24 0 0  0.25 0 0  0.26 0 0  0.27 0 0  0.28 0 0  0.29 0 0  0.3 0 0  0.31 0 0  0.32 0 0  0.33 0 0  0.34 0 0  0.35 0 0  0.36 0 0  0.37 0 0  0.38 0 0  0.39 0 0  0.4 0 0  0.41 0 0  0.42 0 0  0.43 0 0  0.44 0 0  0.45 0 0  0.46 0 0  0.47 0 0  0.48 0 0  0.49 0 0  0.5 0 0  0.51 0 0  0.52 0 0  0.53 0 0  0.54 0 0  0.55 0 0  0.5600000000000001 0 0  0.57 0 0  0.58 0 0  0.59 0 0  0.6 0 0  0.61 0 0  0.62 0 0  0.63 0 0  0.64 0 0  0.65 0 0  0.66 0 0  0.67 0 0  0.68 0 0  0.6899999999999999 0 0  0.7 0 0  0.71 0 0  0.72 0 0  0.73 0 0  0.74 0 0  0.75 0 0  0.76 0 0  0.77 0 0  0.78 0 0  0.79 0 0  0.8 0 0  0.8100000000000001 0 0  0.82 0 0  0.83 0 0  0.84 0 0  0.85 0 0  0.86 0 0  0.87 0 0  0.88 0 0  0.89 0 0  0.9 0 0  0.91 0 0  0.92 0 0  0.93 0 0  0.9399999999999999 0 0  0.95 0 0  0.96 0 0  0.97 0 0  0.98 0 0  0.99 0 0  1 0 0  0 0.01 0  0.01 0.01 0  0.02 0.01 0  0.03 0.01 0  0.04 0.01 0  0.05 0.01 0  0.06 0.01 0  0.07000000000000001 0.01 0  0.08 0.01 0  0.09 0.01 0  0.1 0.01 0  0.11 0.01 0  0.12 0.01 0  0.13 0.01 0  0.14 0.01 0  0.15 0.01 0  0.16 0.01 0  0.17 0.01 0  0.18 0.01 0  0.19 0.01 0  0.2 0.01 0  0.21 0.01 0  0.22 0.01 0  0.23 0.01 0  0.24 0.01 0  0.25 0.01 0  0.26 0.01 0  0.27 0.01 0  0.28 0.01 0  0.29 0.01 0  0.3 0.01 0  0.31 0.01 0  0.32 0.01 0  0.33 0.01 0  0.34 0.01 0  0.35 0.01 0  0.36 0.01 0  0.37 0.01 0  0.38 0.01 0  0.39 0.01 0  0.4 0.01 0  0.41 0.01 0  0.42 0.01 0  0.43 0.01 0  0.44 0.01 0  0.45 0.01 0  0.46 0.01 0  0.47 0.01 0  0.48 0.01 0  0.49 0.01 0  0.5 0.01 0  0.51 0.01 0  0.52 0.01 0  0.53 0.01 0  0.54 0.01 0  0.55 0.01 0  0.5600000000000001 0.01 0  0.57 0.01 0  0.58 0.01 0  0.59 0.01 0  0.6 0.01 0  0.61 0.01 0  0.62 0.01 0  0.63 0.01 0  0.64 0.01 0  0.65 0.01 0  0.66 0.01 0  0.67 0.01 0  0.68 0.01 0  0.6899999999999999 0.01 0  0.7 0.01 0  0.71 0.01 0  0.72 0.01 0  0.73 0.01 0  0.74 0.01 0  0.75 0.01 0  0.76 0.01 0  0.77 0.01 0  0.78 0.01 0  0.79 0.01 0  0.8 0.01 0  0.8100000000000001 0.01 0  0.82 0.01 0  0.83 0.01 0  0.84 0.01 0  0.85 0.01 0  0.86 0.01 0  0.87 0.01 0  0.88 0.01 0  0.89 0.01 0  0.9 0.01 0  0.91 0.01 0  0.92 0.01 0  0.93 0.01 0  0.9399999999999999 0.01 0  0.95 0.01 0  0.96 0.01 0  0.97 0.01 0  0.98 0.01 0  0.99 0.01 0  1 0.01 0  0 0.02 0  0.01 0.02 0  0.02 0.02 0  0.03 0.02 0  0.04 0.02 0  0.05 0.02 0  0.06 0.02 0  0.07000000000000001 0.02 0  0.08 0.02 0  0.09 0.02 0  0.1 0.02 0  0.11 0.02 0  0.12 0.02 0  0.13 0.02 0  0.14 0.02 0  0.15 0.02 0  0.16 0.02 0  0.17 0.02 0  0.18 0.02 0  0.19 0.02 0  0.2 0.02 0  0.21 0.02 0  0.22 0.02 0  0.23 0.02 0  0.24 0.02 0  0.25 0.02 0  0.26 0.02 0  0.27 0.02 0  0.28 0.02 0  0.29 0.02 0  0.3 0.02 0  0.31 0.02 0  0.32 0.02 0  0.33 0.02 0  0.34 0.02 0  0.35 0.02 0  0.36 0.02 0  0.37 0.02 0  0.38 0.02 0  0.39 0.02 0  0.4 0.02 0  0.41 0.02 0  0.42 0.02 0  0.43 0.02 0  0.44 0.02 0  0.45 0.02 0  0.46 0.02 0  0.47 0.02 0  0.48 0.02 0  0.49 0.02 0  0.5 0.02 0  0.51 0.02 0  0.52 0.02 0  0.53 0.02 0  0.54 0.02 0  0.55 0.02 0  0.5600000000000001 0.02 0  0.57 0.02 0  0.58 0.02 0  0.59 0.02 0  0.6 0.02 0  0.61 0.02 0  0.62 0.02 0  0.63 0.02 0  0.64 0.02 0  0.65 0.02 0  0.66 0.02 0  0.67 0.02 0  0.68 0.02 0  0.6899999999999999 0.02 0  0.7 0.02 0  0.71 0.02 0  0.72 0.02 0  0.73 0.02 0  0.74 0.02 0  0.75 0.02 0  0.76 0.02 0  0.77 0.02 0  0.78 0.02 0  0.79 0.02 0  0.8 0.02 0  0.8100000000000001 0.02 0  0.82 0.02 0  0.83 0.02 0  0.84 0.02 0  0.85 0.02 0  0.86 0.02 0  0.87 0.02 0  0.88 0.02 0  0.89 0.02 0  0.9 0.02 0  0.91 0.02 0  0.92 0.02 0  0.93 0.02 0  0.9399999999999999 0.02 0  0.95 0.02 0  0.96 0.02 0  0.97 0.02 0  0.98 0.02 0  0.99 0.02 0  1 0.02 0  0 0.03 0  0.01 0.03 0  0.02 0.03 0  0.03 0.03 0  0.04 0.03 0  0.05 0.03 0  0.06 0.03 0  0.07000000000000001 0.03 0  0.08 0.03 0  0.09 0.03 0  0.1 0.03 0  0.11 0.03 0  0.12 0.03 0  0.13 0.03 0  0.14 0.03 0  0.15 0.03 0  0.16 0.03 0  0.17 0.03 0  0.18 0.03 0  0.19 0.03 0  0.2 0.03 0  0.21 0.03 0  0.22 0.03 0  0.23 0.03 0  0.24 0.03 0  0.25 0.03 0  0.26 0.03 0  0.27 0.03 0  0.28 0.03 0  0.29 0.03 0  0.3 0.03 0  0.31 0.03 0  0.32 0.03 0  0.33 0.03 0  0.34 0.03 0  0.35 0.03 0  0.36 0.03 0  0.37 0.03 0  0.38 0.03 0  0.39 0.03 0  0.4 0.03 0  0.41 0.03 0  0.42 0.03 0  0.43 0.03 0  0.44 0.03 0  0.45 0.03 0  0.46 0.03 0  0.47 0.03 0  0.48 0.03 0  0.49 0.03 0  0.5 0.03 0  0.51 0.03 0  0.52 0.03 0  0.53 0.03 0  0.54 0.03 0  0.55 0.03 0  0.5600000000000001 0.03 0  0.57 0.03 0  0.58 0.03 0  0.59 0.03 0  0.6 0.03 0  0.61 0.03 0  0.62 0.03 0  0.63 0.03 0  0.64 0.03 0  0.65 0.03 0  0.66 0.03 0  0.67 0.03 0  0.68 0.03 0  0.6899999999999999 0.03 0  0.7 0.03 0  0.71 0.03 0  0.72 0.03 0  0.73 0.03 0  0.74 0.03 0  0.75 0.03 0  0.76 0.03 0  0.77 0.03 0  0.78 0.03 0  0.79 0.03 0  0.8 0.03 0  0.8100000000000001 0.03 0  0.82 0.03 0  0.83 0.03 0  0.84 0.03 0  0.85 0.03 0  0.86 0.03 0  0.87 0.03 0  0.88 0.03 0  0.89 0.03 0  0.9 0.03 0  0.91 0.03 0  0.92 0.03 0  0.93 0.03 0  0.9399999999999999 0.03 0  0.95 0.03 0  0.96 0.03 0  0.97 0.03 0  0.98 0.03 0  0.99 0.03 0  1 0.03 0  0 0.04 0  0.01 0.04 0  0.02 0.04 0  0.03 0.04 0  0.04 0.04 0  0.05 0.04 0  0.06 0.04 0  0.07000000000000001 0.04 0  0.08 0.04 0  0.09 0.04 0  0.1 0.04 0  0.11 0.04 0  0.12 0.04 0  0.13 0.04 0  0.14 0.04 0  0.15 0.04 0  0.16 0.04 0  0.17 0.04 0  0.18 0.04 0  0.19 0.04 0  0.2 0.04 0  0.21 0.04 0  0.22 0.04 0  0.23 0.04 0  0.24 0.04 0  0.25 0.04 0  0.26 0.04 0  0.27 0.04 0  0.28 0.04 0  0.29 0.04 0  0.3 0.04 0  0.31 0.04 0  0.32 0.04 0  0.33 0.04 0  0.34 0.04 0  0.35 0.04 0  0.36 0.04 0  0.37 0.04 0  0.38 0.04 0  0.39 0.04 0  0.4 0.04 0  0.41 0.04 0  0.42 0.04 0  0.43 0.04 0  0.44 0.04 0  0.45 0.04 0  0.46 0.04 0  0.47 0.04 0  0.48 0.04 0  0.49 0.04 0  0.5 0.04 0  0.51 0.04 0  0.52 0.04 0  0.53 0.04 0  0.54 0.04 0  0.55 0.04 0  0.5600000000000001 0.04 0  0.57 0.04 0  0.58 0.04 0  0.59 0.04 0  0.6 0.04 0  0.61 0.04 0  0.62 0.04 0  0.63 0.04 0  0.64 0.04 0  0.65 0.04 0  0.66 0.04 0  0.67 0.04 0  0.68 0.04 0  0.6899999999999999 0.04 0  0.7 0.04 0  0.71 0.04 0  0.72 0.04 0  0.73 0.04 0  0.74 0.04 0  0.75 0.04 0  0.76 0.04 0  0.77 0.04 0  0.78 0.04 0  0.79 0.04 0  0.8 0.04 0  0.8100000000000001 0.04 0  0.82 0.04 0  0.83 0.04 0  0.84 0.04 0  0.85 0.04 0  0.86 0.04 0  0.87 0.04 0  0.88 0.04 0  0.89 0.04 0  0.9 0.04 0  0.91 0.04 0  0.92 0.04 0  0.93 0.04 0  0.9399999999999999 0.04 0  0.95 0.04 0  0.96 0.04 0  0.97 0.04 0  0.98 0.04 0  0.99 0.04 0  1 0.04 0  0 0.05 0  0.01 0.05 0  0.02 0.05 0  0.03 0.05 0  0.04 0.05 0  0.05 0.05 0  0.06 0.05 0  0.07000000000000001 0.05 0  0.08 0.05 0  0.09 0.05 0  0.1 0.05 0  0.11 0.05 0  0.12 0.05 0  0.13 0.05 0  0.14 0.05 0  0.15 0.05 0  0.16 0.05 0  0.17 0.05 0  0.18 0.05 0  0.19 0.05 0  0.2 0.05 0  0.21 0.05 0  0.22 0.05 0  0.23 0.05 0  0.24 0.05 0  0.25 0.05 0  0.26 0.05 0  0.27 0.05 0  0.28 0.05 0  0.29 0.05 0  0.3 0.05 0  0.31 0.05 0  0.32 0.05 0  0.33 0.05 0  0.34 0.05 0  0.35 0.05 0  0.36 0.05 0  0.37 0.05 0  0.38 0.05 0  0.39 0.05 0  0.4 0.05 0  0.41 0.05 0  0.42 0.05 0  0.43 0.05 0  0.44 0.05 0  0.45 0.05 0  0.46 0.05 0  0.47 0.05 0  0.48 0.05 0  0.49 0.05 0  0.5 0.05 0  0.51 0.05 0  0.52 0.05 0  0.53 0.05 0  0.54 0.05 0  0.55 0.05 0  0.5600000000000001 0.05 0  0.57 0.05 0  0.58 0.05 0  0.59 0.05 0  0.6 0.05 0  0.61 0.05 0  0.62 0.05 0  0.63 0.05 0  0.64 0.05 0  0.65 0.05 0  0.66 0.05 0  0.67 0.05 0  0.68 0.05 0  0.6899999999999999 0.05 0  0.7 0.05 0  0.71 0.05 0  0.72 0.05 0  0.73 0.05 0  0.74 0.05 0  0.75 0.05 0  0.76 0.05 0  0.77 0.05 0  0.78 0.05 0  0.79 0.05 0  0.8 0.05 0  0.8100000000000001 0.05 0  0.82 0.05 0  0.83 0.05 0  0.84 0.05 0  0.85 0.05 0  0.86 0.05 0  0.87 0.05 0  0.88 0.05 0  0.89 0.05 0  0.9 0.05 0  0.91 0.05 0  0.92 0.05 0  0.93 0.05 0  0.9399999999999999 0.05 0  0.95 0.05 0  0.96 0.05 0  0.97 0.05 0  0.98 0.05 0  0.99 0.05 0  1 0.05 0  0 0.06 0  0.01 0.06 0  0.02 0.06 0  0.03 0.06 0  0.04 0.06 0  0.05 0.06 0  0.06 0.06 0  0.07000000000000001 0.06 0  0.08 0.06 0  0.09 0.06 0  0.1 0.06 0  0.11 0.06 0  0.12 0.06 0  0.13 0.06 0  0.14 0.06 0  0.15 0.06 0  0.16 0.06 0  0.17 0.06 0  0.18 0.06 0  0.19 0.06 0  0.2 0.06 0  0.21 0.06 0  0.22 0.06 0  0.23 0.06 0  0.24 0.06 0  0.25 0.06 0  0.26 0.06 0  0.27 0.06 0  0.28 0.06 0  0.29 0.06 0  0.3 0.06 0  0.31 0.06 0  0.32 0.06 0  0.33 0.06 0  0.34 0.06 0  0.35 0.06 0  0.36 0.06 0  0.37 0.06 0  0.38 0.06 0  0.39 0.06 0  0.4 0.06 0  0.41 0.06 0  0.42 0.06 0  0.43 0.06 0  0.44 0.06 0  0.45 0.06 0  0.46 0.06 0  0.47 0.06 0  0.48 0.06 0  0.49 0.06 0  0.5 0.06 0  0.51 0.06 0  0.52 0.06 0  0.53 0.06 0  0.54 0.06 0  0.55 0.06 0  0.5600000000000001 0.06 0  0.57 0.06 0  0.58 0.06 0  0.59 0.06 0  0.6 0.06 0  0.61 0.06 0  0.62 0.06 0  0.63 0.06 0  0.64 0.06 0  0.65 0.06 0  0.66 0.06 0  0.67 0.06 0  0.68 0.06 0  0.6899999999999999 0.06 0  0.7 0.06 0  0.71 0.06 0  0.72 0.06 0  0.73 0.06 0  0.74 0.06 0  0.75 0.06 0  0.76 0.06 0  0.77 0.06 0  0.78 0.06 0  0.79 0.06 0  0.8 0.06 0  0.8100000000000001 0.06 0  0.82 0.06 0  0.83 0.06 0  0.84 0.06 0  0.85 0.06 0  0.86 0.06 0  0.87 0.06 0  0.88 0.06 0  0.89 0.06 0  0.9 0.06 0  0.91 0.06 0  0.92 0.06 0  0.93 0.06 0  0.9399999999999999 0.06 0  0.95 0.06 0  0.96 0.06 0  0.97 0.06 0  0.98 0.06 0  0.99 0.06 0  1 0.06 0  0 0.07000000000000001 0  0.01 0.07000000000000001 0  0.02 0.07000000000000001 0  0.03 0.07000000000000001 0  0.04 0.07000000000000001 0  0.05 0.07000000000000001 0  0.06 0.07000000000000001 0  0.07000000000000001 0.07000000000000001 0  0.08 0.07000000000000001 0  0.09 0.07000000000000001 0  0.1 0.07000000000000001 0  0.11 0.07000000000000001 0  0.12 0.07000000000000001 0  0.13 0.07000000000000001 0  0.14 0.07000000000000001 0  0.15 0.07000000000000001 0  0.16 0.07000000000000001 0  0.17 0.0700
[...]
<PointData  Scalars="u"> 
<DataArray  type="Float64"  Name="u"  format="ascii">0.0000000000000000e+00  0.0000000000000000e+00  0.0000000000000000e+00  0.0000000000000000e+00  0.0000000000000000e+00  0.0000000000000000e+00  0.0000000000000000e+00  0.0000000000000000e+00  0.0000000000000000e+00  0.0000000000000000e+00  0.0000000000000000e+00  0.0000000000000000e+00  0.0000000000000000e+00  0.0000000000000000e+00  0.0000000000000000e+00  0.0000000000000000e+00  0.0000000000000000e+00  0.0000000000000000e+00  0.0000000000000000e+00  0.0000000000000000e+00  0.0000000000000000e+00  0.0000000000000000e+00  0.0000000000000000e+00  0.0000000000000000e+00  0.0000000000000000e+00  0.0000000000000000e+00  0.0000000000000000e+00  0.0000000000000000e+00  0.0000000000000000e+00  0.0000000000000000e+00  0.0000000000000000e+00  0.0000000000000000e+00  0.0000000000000000e+00  0.0000000000000000e+00  0.0000000000000000e+00  0.0000000000000000e+00  0.0000000000000000e+00  0.0000000000000000e+00  0.0000000000000000e+00  0.0000000000000000e+00  0.0000000000000000e+00  0.0000000000000000e+00  0.0000000000000000e+00  0.0000000000000000e+00  0.0000000000000000e+00  0.0000000000000000e+00  0.0000000000000000e+00  0.0000000000000000e+00  0.0000000000000000e+00  0.0000000000000000e+00  0.0000000000000000e+00  0.0000000000000000e+00  0.0000000000000000e+00  0.0000000000000000e+00  0.0000000000000000e+00  0.0000000000000000e+00  0.0000000000000000e+00  0.0000000000000000e+00  0.0000000000000000e+00  0.0000000000000000e+00  0.0000000000000000e+00  0.0000000000000000e+00  0.0000000000000000e+00  0.0000000000000000e+00  0.0000000000000000e+00  0.0000000000000000e+00  0.0000000000000000e+00  0.0000000000000000e+00  0.0000000000000000e+00  0.0000000000000000e+00  0.0000000000000000e+00  0.0000000000000000e+00  0.0000000000000000e+00  0.0000000000000000e+00  0.0000000000000000e+00  0.0000000000000000e+00  0.0000000000000000e+00  0.0000000000000000e+00  0.0000000000000000e+00  0.0000000000000000e+00  0.0000000000000000e+00  0.0000000000000000e+00  0.0000000000000000e+00  0.0000000000000000e+00  0.0000000000000000e+00  0.0000000000000000e+00  0.0000000000000000e+00  0.0000000000000000e+00  0.0000000000000000e+00  0.0000000000000000e+00  0.0000000000000000e+00  0.0000000000000000e+00  0.0000000000000000e+00  0.0000000000000000e+00  0.0000000000000000e+00  0.0000000000000000e+00  0.0000000000000000e+00  0.0000000000000000e+00  0.0000000000000000e+00  0.0000000000000000e+00  0.0000000000000000e+00  0.0000000000000000e+00  1.7263897723747726e-16  3.9069942361944552e-16  6.8800658262689778e-16  1.1115595808094651e-15  1.7283990346707245e-15  2.6349610197302111e-15  3.9701743777461696e-15  5.9337251030428530e-15  8.8113703398147299e-15  1.3009759565955083e-14  1.9103926722028570e-14  2.7901462733612522e-14  4.0528360302440490e-14  5.8542621442687432e-14  8.4082886117268898e-14  1.2006049407854242e-13  1.7040440050281598e-13  2.4036903928261871e-13  3.3691530812516832e-13  4.6917400710842334e-13  6.4899889959359525e-13  8.9161263343337471e-13  1.2163425975356308e-12  1.6474349709266618e-12  2.2149234464584779e-12  2.9555143021661468e-12  3.9134319198482462e-12  5.1411492575225192e-12  6.6999075047910269e-12  8.6599101881368217e-12  1.1100062016708767e-11  1.4107115007165895e-11  1.7774087472624229e-11  2.2197838831993470e-11  2.7475717845923269e-11  3.3701255565825600e-11  4.0958946879028790e-11  4.9318253474631315e-11  5.8827060920291140e-11  6.9504925001159202e-11  8.1336536677556814e-11  9.4265908485541983e-11  1.0819182519586947e-10  1.2296509680989693e-10  1.3838809463284711e-10  1.5421693848189921e-10  1.7016653872369189e-10  1.8591849137261899e-10  2.0113159493628086e-10  2.1545452600621040e-10  2.2854000118097829e-10  2.4005958962400302e-10  2.4971824345494064e-10  2.5726759563296886e-10  2.6251714166796955e-10  2.6534256745596493e-10  2.6569069674094929e-10  2.6358078679514107e-10  2.5910217398094299e-10  2.5240853480563582e-10  2.4370925796836448e-10  2.3325859885997435e-10  2.2134339723826270e-10  2.0827017662322581e-10  1.9435241343418110e-10  1.7989867477818383e-10  1.6520219063294141e-10  1.5053226603308071e-10  1.3612776916978600e-10  1.2219276783848088e-10  1.0889424215985509e-10  9.6361684824715944e-11  8.4688316035998504e-11  7.3933589778078067e-11  6.4126648794983621e-11  5.5270393155782325e-11  4.7345855596941670e-11  4.0316619515212917e-11  3.4133066307385526e-11  2.8736292219773766e-11  2.4061586546824097e-11  2.0041409669008172e-11  1.6607848990404095e-11  1.3694562325115569e-11  1.1238241547803969e-11  9.1796448634643462e-12  7.4642547785467572e-12  6.0426219026496629e-12  4.8704532679811778e-12  3.9084990496530127e-12  3.1222843868636816e-12  2.4817242413794565e-12  1.9606494946911680e-12  1.5362622330897414e-12  1.1885277780510378e-12  8.9950092313827906e-13  6.5257473603699964e-13  4.3163336154789691e-13  2.2008628660630996e-13  0.0000000000000000e+00  0.0000000000000000e+00  3.4554989984015206e-16  7.8263049713776194e-16  1.3793941285034525e-15  2.2309501956773756e-15  3.4731921150313098e-15  5.3019530550390608e-15  7.9998779626691335e-15  1.1973977523999295e-14  1.7807792420483599e-14  2.6333311136128826e-14  3.8729283418742754e-14  5.6654375180008572e-14  8.2425717614365936e-14  1.1925577528333862e-13  1.7156300124563486e-13  2.4537429093308661e-13  3.4883951698559157e-13  4.9288002391710721e-13  6.9199333498734334e-13  9.6523476477418551e-13  1.3373922769908680e-12  1.8403627959073402e-12  2.5147252417108932e-12  3.4114868579556856e-12  4.5939542216083279e-12  6.1396484352216460e-12  8.1421459022351422e-12  1.0712683317834761e-11  1.3981320902817169e-11  1.8097415778266342e-11  2.3229123542633575e-11  2.9561627692283211e-11  3.7293801448911485e-11  4.6633042719268113e-11  5.7788097019510013e-11  7.0959799353006267e-11  8.6329824241956561e-11  1.0404772793259529e-10  1.2421678640469970e-10  1.4687935885938833e-10  1.7200271476153629e-10  1.9946642546217136e-10  2.2905251045369436e-10  2.6043951822122198e-10  2.9320159480742212e-10  3.2681334348894781e-10  3.6066091467258621e-10  3.9405931011516821e-10  4.2627537815593694e-10  4.5655546608783829e-10  4.8415623674091564e-10  5.0837680190746864e-10  5.2859011966028390e-10  5.4427157485504291e-10  5.5502282129710436e-10  5.6058929772491191e-10  5.6087030517353935e-10  5.5592110163596682e-10  5.4594707283446614e-10  5.3129061495657848e-10  5.1241186158826050e-10  4.8986475995193296e-10  4.6427022439689828e-10  4.3628815947657197e-10  4.0659005983957845e-10  3.7583368298793570e-10  3.4464098721125355e-10  3.1358016916870520e-10  2.8315226214446179e-10  2.5378240122706166e-10  2.2581555262058602e-10  1.9951625919450841e-10  1.7507178227190751e-10  1.5259792124145720e-10  1.3214676178565965e-10  1.1371562950334280e-10  9.7256594936945018e-11  8.2685974172579089e-11  6.9893382688369396e-11  5.8750017244568260e-11  4.9115952064179196e-11  4.0846334760113070e-11  3.3796450425134156e-11  2.7825687273497732e-11  2.2800484270563711e-11  1.8596371672783171e-11  1.5099231507806214e-11  1.2205909331388783e-11  9.8243037392941141e-12  7.8730485326318194e-12  6.2808862292085788e-12  4.9858124521378983e-12  3.9340498575071234e-12  3.0788885876042013e-12  2.3794084805235040e-12  1.7990772693836768e-12  1.3042001876375421e-12  8.6218254907058375e-13  4.3956354817938343e-13  0.0000000000000000e+00  0.0000000000000000e+00  5.4335642111779931e-16  1.2317068139211972e-15  2.1736401028657963e-15  3.5211444712124175e-15  5.4919625692010154e-15  8.4007507285437878e-15  1.2702931490564963e-14  1.9056179323976966e-14  2.8406113329565053e-14  4.2104842563492512e-14  6.2073581737321176e-14  9.1023672040856212e-14  1.3275401226881726e-13  1.9254707710344853e-13  2.7769022696995479e-13  3.9815361923741758e-13  5.6746025761614082e-13  8.0378688450052978e-13  1.1313355823163176e-12  1.5820138646969504e-12  2.1974541779044784e-12  3.0313903315364368e-12  4.1523865512033009e-12  5.6468827975517028e-12  7.6224763211099626e-12  1.0211303516190696e-11  1.3573318688093628e-11  1.7899189875192487e-11  2.3412451227928548e-11  3.0370474205628541e-11  3.9063756384574086e-11  4.9812989847785029e-11  6.2963375453826424e-11  7.8875709406094371e-11  9.7913897137902817e-11  1.2042875468035436e-10  1.4673824007713702e-10  1.7710460775445781e-10  2.1170937595596389e-10  2.5062740809650767e-10  2.9380178907651641e-10  3.4102147596267976e-10  3.9190386627611801e-10  4.4588440966186285e-10  5.0221515717056429e-10  5.5997368548568422e-10  6.1808316685776042e-10  6.7534352400966468e-10  7.3047268449550185e-10  7.8215602277058911e-10  8.2910125195684303e-10  8.7009539872866900e-10  9.0406014429372580e-10  9.3010179312555678e-10  9.4755245240106012e-10  9.5599964209045070e-10  9.5530244408961539e-10  9.4559334559221102e-10  9.2726602769527282e-10  9.0095038383453771e-10  8.6747692516454074e-10  8.2783336640447060e-10  7.8311654225544202e-10  7.3448287145727841e-10  6.8310038481304013e-10  6.3010491260009189e-10  5.7656245018911931e-10  5.2343906019014272e-10  4.7157899497903656e-10  4.2169109566200121e-10  3.7434298865864780e-10  3.2996218855028817e-10  2.8884293824719423e-10  2.5115747260149987e-10  2.1697036542580068e-10  1.8625469078504955e-10  1.5890887179008533e-10  1.3477327776171779e-10  1.1364583946201668e-10  9.5296161858804358e-11  7.9477809125049328e-11  6.5938606771313561e-11  5.4428945080945528e-11  4.4708174389118846e-11  3.6549257260768200e-11  2.9741888408896266e-11  2.4094314607330330e-11  1.9434088738120001e-11  1.5607979248274672e-11  1.2481232979462569e-11  9.9363591765080838e-12  7.8715682698139176e-12  6.1989627791680864e-12  4.8425407897692526e-12  3.7360359580351186e-12  2.8205831212127631e-12  2.0421674644604771e-12  1.3487922110324372e-12  6.8729289092861713e-13  0.0000000000000000e+00  0.0000000000000000e+00  7.8954463194973240e-16  1.7916298270187936e-15  3.1667490349444999e-15  5.1402510489587435e-15  8.0360529821377219e-15  1.2323868889666185e-14  1.8685940776339173e-14  2.8110982791388349e-14  4.2025653548977838e-14  6.2477196759830889e-14  9.2385049684645311e-14  1.3588430132394208e-13  1.9878992369015005e-13  2.8921764256365196e-13  4.1840495452138982e-13  6.0178371661904927e-13  8.6036322381215897e-13  1.2224886614507107e-12  1.7260427368974746e-12  2.4211561074454219e-12  3.3734823654351806e-12  4.6680728009677302e-12  6.4138516556752425e-12  8.7486408881785061e-12  1.1844611942900635e-11  1.5913949260724549e-11  2.1214397024434404e-11  2.8054230702183659e-11  3.6796056155091340e-11  4.7858703959863605e-11  6.1716372725225556e-11  7.8894104692848629e-11  9.9958675136311908e-11  1.2550406999101190e-10  1.5613093672920715e-10  1.9241973706240865e-10  2.3489780922018266e-10  2.8400114747049260e-10  3.4003239147566810e-10  4.0311723038279320e-10  4.7316208904715820e-10  5.4981648606686811e-10  6.3244374192385166e-10  7.2010368726650507e-10  8.1155061785355092e-10  9.0524894396632037e-10  9.9940781659941581e-10  1.0920345609776308e-09  1.1810051384419351e-09  1.2641482546281850e-09  1.3393383153036831e-09  1.4045913733665830e-09  1.4581576506163514e-09  1.4986042409978268e-09  1.5248822248378235e-09  1.5363735904615399e-09  1.5329149491653255e-09  1.5147968713563182e-09  1.4827395695963561e-09  1.4378474129286729e-09  1.3815462067003715e-09  1.3155081893313264e-09  1.2415702160310361e-09  1.1616506138886882e-09  1.0776697526766284e-09  9.9147857348764080e-10  9.0479827174588986e-10  8.1917316988596688e-10  7.3593765874312435e-10  6.5619703659659093e-10  5.8082120462444083e-10  5.1044953054285579e-10  4.4550478235770975e-10  3.8621385042698886e-10  3.3263298875518970e-10  2.8467547436461279e-10  2.4213986060495647e-10  2.0473734107456133e-10  1.7211710514265164e-10  1.4388892120438818e-10  1.1964250584510076e-10  9.8963510805036868e-11  8.1446177560669375e-11  6.6702870344490070e-11  5.4370806062177501e-11  4.4116360430328213e-11  3.5637351942038164e-11  2.8663697582623769e-11  2.2956804720395593e-11  1.8308019412681192e-11  1.4536398273610564e-11  1.1486013385950888e-11  9.0229404980369819e-12  7.0320218496123661e-12  5.4134377424564944e-12  4.0790669085187225e-12  2.9485677196869435e-12  1.9450765829760705e-12  9.9040868765291822e-13  0.0000000000000000e+00  0.0000000000000000e+00  1.1097528708315004e-15  2.5211874231032931e-15  4.4643052968326188e-15  7.2631696387593578e-15  1.1385353588127215e-14  1.7511560633504061e-14  2.6634431968569355e-14  4.0198284110282049e-14  6.0295577517647775e-14  8.9941137449427724e-14  1.3345173186346077e-13  1.9696672824218229e-13  2.8915529773716061e-13  4.2216696843248470e-13  6.1289498217688978e-13  8.8463527779868680e-13  1.2692369357818909e-12  1.8098508896710627e-12  2.5643901946315407e-12  3.6098138313196269e-12  5.0473326893734017e-12  7.0086059638823194e-12  9.6629430885161916e-12  1.3225444848404522e-11  1.7965902563033470e-11  2.4218123229235129e-11  3.2389161683873178e-11  4.2967723671140944e-11  5.6530768423297414e-11  7.3747106373224319e-11  9.5376586116125784e-11  1.2226333222420088e-10  1.5532147559862649e-10  1.9551195623545148e-10  2.4380931572159158e-10  3.0115796214281891e-10  3.6841819056677124e-10  4.4630325492625258e-10  5.3530995247335706e-10  6.3564640168589548e-10  7.4716183517849321e-10  8.6928413315979314e-10  1.0009713263782050e-09  1.1406832537477101e-09  1.2863788659226789e-09  1.4355432870042996e-09  1.5852467331886468e-09  1.7322348828963733e-09  1.8730475259756268e-09  2.0041595802467898e-09  2.1221361686963352e-09  2.2237916996127024e-09  2.3063420228407847e-09  2.3675388868338286e-09  2.4057771090271397e-09  2.4201669836614919e-09  2.4105672600500218e-09  2.3775772217216718e-09  2.3224896354891769e-09  2.2472092808868061e-09  2.1541441292009755e-09  2.0460778185076184e-09  1.9260327726362556e-09  1.7971331505328236e-09  1.6624758945979595e-09  1.5250166482449617e-09  1.3874754492994424e-09  1.2522651001147378e-09  1.1214431713229177e-09  9.9668687845479576e-10  8.7928869266605743e-10  7.7016956778688953e-10  6.6990609514176138e-10  5.7876770356399819e-10  4.9676014450167101e-10  4.2367186468051326e-10  3.5912039039653888e-10  3.0259645164385632e-10  2.5350419538287975e-10  2.1119642429229467e-10  1.7500431492237081e-10  1.4426149667645216e-10  1.1832270258315213e-10  9.6577436378428988e-11  7.8459246923928352e-11  6.3451273531884814e-11  5.1088739231220521e-11  4.0959038246142222e-11  3.2700002503363774e-11  2.5996851271837543e-11  2.0578237038813820e-11  1.6211705913775162e-11  1.2698796450830173e-11  9.8699092451399486e-12  7.5789924344640840e-12  5.6980069171008914e-12  4.1110632458643166e-12  2.7080682480730250e-12  1.3777008973899188e-12  0.0000000000000000e+00  0.0000000000000000e+00  1.5344399941520553e-15  3.4904213051718752e-15  6.1926676398491052e-15  1.0100390851333336e-14  1.5878868791541707e-14  2.4500738384404541e-14  3.7390440574102474e-14  5.6629500303276202e-14  8.5246581527395817e-14  1.2762437138664569e-13  1.9006566757208306e-13  2.8157388505490813e-13  4.1491877867389867e-13  6.0807651230797543e-13  8.8615397034713499e-13  1.2839295598150266e-12  1.8491651068876295e-12  2.6468632312480786e-12  3.7646579565836830e-12  5.3195279859412938e-12  7.4660051488306595e-12  1.0406006609680457e-11  1.4400338967363665e-11  1.9781795470507949e-11  2.6969585279080869e-11  3.6484589939739601e-11  4.8964636279370228e-11  6.5178614291931156e-11  8.6037872128531117e-11  1.1260292075084008e-10  1.4608312634355130e-10  1.8782682230446843e-10  2.3929920922968778e-10  3.0204561017093914e-10  3.7763818295184676e-10  4.6760511484152032e-10  5.7334265468333039e-10  6.9601203922804594e-10  8.3642534569170623e-10  9.9492638456803297e-10  1.1712747056801470e-09  1.3645423522066400e-09  1.5730338749927765e-09  1.7942400550404271e-09  2.0248345939412620e-09  2.2607206586121560e-09  2.4971306987195470e-09  2.7287786473950326e-09  2.9500588727354674e-09  3.1552815816848411e-09  3.3389303448799715e-09  3.4959245309129938e-09  3.6218681160121498e-09  3.7132667939801602e-09  3.7676975539681820e-09  3.7839186962359906e-09  3.7619131977769501e-09  3.7028638638831924e-09  3.6090641959532898e-09  3.4837737875987906e-09  3.3310308544156991e-09  3.1554368937488330e-09  2.9619293347985438e-09  2.7555574385794605e-09  2.5412748615364007e-09  2.3237595368240440e-09  2.1072682391142603e-09  1.8955297682448451e-09  1.6916774543000508e-09  1.4982189144167881e-09  1.3170388486486622e-09  1.1494292227009675e-09  9.9614043944528475e-10  8.5744697380549230e-10  7.3322131898157829e-10  6.2301082743523343e-10  5.2611298748327718e-10  4.4164572869077216e-10  3.6861039195544929e-10  3.0594595559278284e-10  2.5257392653371869e-10  2.0743396029629606e-10  1.6951075931746385e-10  1.3785312621626115e-10  1.1158623615069393e-10  8.9918265417663238e-11  7.2142498120428143e-11  5.7635954132464882e-11  4.5855461704116546e-11  3.6331954830213815e-11  2.8663622490852638e-11  2.2508383451338931e-11  1.7576012139495781e-11  1.3620101050395988e-11  1.0429914357052542e-11  7.8220672074489032e-12  5.6318595593556429e-12  3.7040133015045187e-12  1.8825307242836193e-12  0.0000000000000000e+00  0.0000000000000000e+00  2.1014883138641252e-15  4.7866712136239756e-15  8.5100354077267377e-15  1.3916777665918950e-14  2.1945619579207773e-14  3.3975066059441259e-14  5.2033011053754258e-14  7.9096140972198364e-14  1.1951517444751569e-13  1.7961451187191812e-13  2.6853094878144099e-13  3.9937630651050171e-13  5.9083359602539531e-13  8.6932581821687594e-13  1.2719303759452360e-12  1.8502491941820470e-12  2.6754827153947725e-12  3.8449910648467719e-12  5.4906519213354058e-12  7.7893335718061009e-12  1.0975782119886419e-11  1.5358159978986992e-11  2.1336352496738022e-11  2.9422963663071596e-11  4.0266634205979510e-11  5.4676923974471249e-11  7.3649501665277458e-11  9.8389788350427560e-11  1.3033253536331305e-10  1.7115413404311360e-10  2.2277383362240914e-10  2.8733958993723544e-10  3.6719410920327427e-10  4.6481692598738058e-10  5.8273919338224971e-10  7.2342936510636831e-10  8.8915015241787129e-10  1.0817899933766327e-09  1.3026756169459611e-09  1.5523758371291707e-09  1.8305100773438509e-09  2.1355778258044268e-09  2.4648267560600466e-09  2.8141771589116711e-09  3.1782183014650015e-09  3.5502882471146261e-09  3.9226426981221859e-09  4.2867110127186012e-09  4.6334294185404937e-09  4.9536334991257039e-09  5.2384852454281226e-09  5.4799052424153987e-09  5.6709785892200207e-09  5.8063042866855431e-09  5.8822620281203227e-09  5.8971771571962670e-09  5.8513732323991844e-09  5.7471111584752594e-09  5.5884231349892909e-09  5.3808577317760296e-09  5.1311584430377596e-09  4.8469016104276716e-09  4.5361204949376956e-09  4.2069406961628673e-09  3.8672485071437441e-09  3.5244087679380475e-09  3.1850430270468441e-09  2.8548729982863434e-09  2.5386289727531078e-09  2.2400184228438518e-09  1.9617467599337555e-09  1.7055801574526569e-09  1.4724394661277240e-09  1.2625143654861404e-09  1.0753877914191100e-09  9.1016210674086783e-10  7.6558020172311836e-10  6.4013651696341277e-10  5.3217470807941899e-10  4.3997020571523915e-10  3.6179719707524695e-10  2.9598053894476572e-10  2.4093381083592932e-10  1.9518515662904903e-10  1.5739278331177099e-10  1.2635203142081568e-10  1.0099584888071778e-10  8.0390329469514523e-11  6.3726754121694743e-11  5.0311325254979530e-11  3.9553531285317610e-11  3.0953833532054703e-11  2.4091137996600842e-11  1.8610302775041177e-11  1.4209738316642054e-11  1.0628982504986951e-11  7.6359794816385821e-12  5.0136738467884060e-12  2.5454822532192604e-12  0.0000000000000000e+00  0.0000000000000000e+00  2.8589840947299834e-15  6.5210663307609596e-15  1.1618432952233425e-14  1.9052115223151341e-14  3.0138844147261359e-14  4.6821068889952849e-14  7.1969481331621632e-14  1.0981741166073954e-13  1.6658108036036400e-13  2.5133896203533475e-13  3.7726845379676838e-13  5.6336966180532879e-13  8.3684528839121110e-13  1.2363527959149026e-12  1.8163999882017416e-12  2.6532164299378517e-12  3.8524974546237592e-12  5.5594790924106392e-12  7.9718519435610441e-12  1.1356046582928361e-11  1.6067404561465139e-11  2