<?xml version="1.0"?>
<VTKFile type="UnstructuredGrid"  version="0.1"  >
<UnstructuredGrid>
<Piece  NumberOfPoints="10201" NumberOfCells="20000">
<Points>
<DataArray  type="Float64"  NumberOfComponents="3"  format="ascii">0 0 0  0.01 0 0  0.02 0 0  0.03 0 0  0.04 0 0  0.05 0 0  0.06 0 0  0.07000000000000001 0 0  0.08 0 0  0.09 0 0  0.1 0 0  0.11 0 0  0.12 0 0  0.13 0 0  0.14 0 0  0.15 0 0  0.16 0 0  0.17 0 0  0.18 0 0  0.19 0 0  0.2 0 0  0.21 0 0  0.22 0 0  0.23 0 0  0.24 0 0  0.25 0 0  0.26 0 0  0.27 0 0  0.28 0 0  0.29 0 0  0.3 0 0  0.31 0 0  0.32 0 0  0.33 0 0  0.34 0 0  0.35 0 0  0.36 0 0  0.37 0 0  0.38 0 0  0.39 0 0  0.4 0 0  0.41 0 0  0.42 0 0  0.43 0 0  0.44 0 0  0.45 0 0  0.46 0 0  0.47 0 0  0.48 0 0  0.49 0 0  0.5 0 0  0.51 0 0  0.52 0 0  0.53 0 0  0.54 0 0  0.55 0 0  0.5600000000000001 0 0  0.57 0 0  0.58 0 0  0.59 0 0  0.6 0 0  0.61 0 0  0.62 0 0  0.63 0 0  0.64 0 0  0.65 0 0  0.66 0 0  0.67 0 0  0.68 0 0  0.6899999999999999 0 0  0.7 0 0  0.71 0 0  0.72 0 0  0.73 0 0  0.74 0 0  0.75 0 0  0.76 0 0  0.77 0 0  0.78 0 0  0.79 0 0  0.8 0 0  0.8100000000000001 0 0  0.82 0 0  0.83 0 0  0.84 0 0  0.85 0 0  0.86 0 0  0.87 0 0  0.88 0 0  0.89 0 0  0.9 0 0  0.91 0 0  0.92 0 0  0.93 0 0  0.9399999999999999 0 0  0.95 0 0  0.96 0 0  0.97 0 0  0.98 0 0  0.99 0 0  1 0 0  0 0.01 0  0.01 0.01 0  0.02 0.01 0  0.03 0.01 0  0.04 0.01 0  0.05 0.01 0  0.06 0.01 0  0.07000000000000001 0.01 0  0.08 0.01 0  0.09 0.01 0  0.1 0.01 0  0.11 0.01 0  0.12 0.01 0  0.13 0.01 0  0.14 0.01 0  0.15 0.01 0  0.16 0.01 0  0.17 0.01 0  0.18 0.01 0  0.19 0.01 0  0.2 0.01 0  0.21 0.01 0  0.22 0.01 0  0.23 0.01 0  0.24 0.01 0  0.25 0.01 0  0.26 0.01 0  0.27 0.01 0  0.28 0.01 0  0.29 0.01 0  0.3 0.01 0  0.31 0.01 0  0.32 0.01 0  0.33 0.01 0  0.34 0.01 0  0.35 0.01 0  0.36 0.01 0  0.37 0.01 0  0.38 0.01 0  0.39 0.01 0  0.4 0.01 0  0.41 0.01 0  0.42 0.01 0  0.43 0.01 0  0.44 0.01 0  0.45 0.01 0  0.46 0.01 0  0.47 0.01 0  0.48 0.01 0  0.49 0.01 0  0.5 0.01 0  0.51 0.01 0  0.52 0.01 0  0.53 0.01 0  0.54 0.01 0  0.55 0.01 0  0.5600000000000001 0.01 0  0.57 0.01 0  0.58 0.01 0  0.59 0.01 0  0.6 0.01 0  0.61 0.01 0  0.62 0.01 0  0.63 0.01 0  0.64 0.01 0  0.65 0.01 0  0.66 0.01 0  0.67 0.01 0  0.68 0.01 0  0.6899999999999999 0.01 0  0.7 0.01 0  0.71 0.01 0  0.72 0.01 0  0.73 0.01 0  0.74 0.01 0  0.75 0.01 0  0.76 0.01 0  0.77 0.01 0  0.78 0.01 0  0.79 0.01 0  0.8 0.01 0  0.8100000000000001 0.01 0  0.82 0.01 0  0.83 0.01 0  0.84 0.01 0  0.85 0.01 0  0.86 0.01 0  0.87 0.01 0  0.88 0.01 0  0.89 0.01 0  0.9 0.01 0  0.91 0.01 0  0.92 0.01 0  0.93 0.01 0  0.9399999999999999 0.01 0  0.95 0.01 0  0.96 0.01 0  0.97 0.01 0  0.98 0.01 0  0.99 0.01 0  1 0.01 0  0 0.02 0  0.01 0.02 0  0.02 0.02 0  0.03 0.02 0  0.04 0.02 0  0.05 0.02 0  0.06 0.02 0  0.07000000000000001 0.02 0  0.08 0.02 0  0.09 0.02 0  0.1 0.02 0  0.11 0.02 0  0.12 0.02 0  0.13 0.02 0  0.14 0.02 0  0.15 0.02 0  0.16 0.02 0  0.17 0.02 0  0.18 0.02 0  0.19 0.02 0  0.2 0.02 0  0.21 0.02 0  0.22 0.02 0  0.23 0.02 0  0.24 0.02 0  0.25 0.02 0  0.26 0.02 0  0.27 0.02 0  0.28 0.02 0  0.29 0.02 0  0.3 0.02 0  0.31 0.02 0  0.32 0.02 0  0.33 0.02 0  0.34 0.02 0  0.35 0.02 0  0.36 0.02 0  0.37 0.02 0  0.38 0.02 0  0.39 0.02 0  0.4 0.02 0  0.41 0.02 0  0.42 0.02 0  0.43 0.02 0  0.44 0.02 0  0.45 0.02 0  0.46 0.02 0  0.47 0.02 0  0.48 0.02 0  0.49 0.02 0  0.5 0.02 0  0.51 0.02 0  0.52 0.02 0  0.53 0.02 0  0.54 0.02 0  0.55 0.02 0  0.5600000000000001 0.02 0  0.57 0.02 0  0.58 0.02 0  0.59 0.02 0  0.6 0.02 0  0.61 0.02 0  0.62 0.02 0  0.63 0.02 0  0.64 0.02 0  0.65 0.02 0  0.66 0.02 0  0.67 0.02 0  0.68 0.02 0  0.6899999999999999 0.02 0  0.7 0.02 0  0.71 0.02 0  0.72 0.02 0  0.73 0.02 0  0.74 0.02 0  0.75 0.02 0  0.76 0.02 0  0.77 0.02 0  0.78 0.02 0  0.79 0.02 0  0.8 0.02 0  0.8100000000000001 0.02 0  0.82 0.02 0  0.83 0.02 0  0.84 0.02 0  0.85 0.02 0  0.86 0.02 0  0.87 0.02 0  0.88 0.02 0  0.89 0.02 0  0.9 0.02 0  0.91 0.02 0  0.92 0.02 0  0.93 0.02 0  0.9399999999999999 0.02 0  0.95 0.02 0  0.96 0.02 0  0.97 0.02 0  0.98 0.02 0  0.99 0.02 0  1 0.02 0  0 0.03 0  0.01 0.03 0  0.02 0.03 0  0.03 0.03 0  0.04 0.03 0  0.05 0.03 0  0.06 0.03 0  0.07000000000000001 0.03 0  0.08 0.03 0  0.09 0.03 0  0.1 0.03 0  0.11 0.03 0  0.12 0.03 0  0.13 0.03 0  0.14 0.03 0  0.15 0.03 0  0.16 0.03 0  0.17 0.03 0  0.18 0.03 0  0.19 0.03 0  0.2 0.03 0  0.21 0.03 0  0.22 0.03 0  0.23 0.03 0  0.24 0.03 0  0.25 0.03 0  0.26 0.03 0  0.27 0.03 0  0.28 0.03 0  0.29 0.03 0  0.3 0.03 0  0.31 0.03 0  0.32 0.03 0  0.33 0.03 0  0.34 0.03 0  0.35 0.03 0  0.36 0.03 0  0.37 0.03 0  0.38 0.03 0  0.39 0.03 0  0.4 0.03 0  0.41 0.03 0  0.42 0.03 0  0.43 0.03 0  0.44 0.03 0  0.45 0.03 0  0.46 0.03 0  0.47 0.03 0  0.48 0.03 0  0.49 0.03 0  0.5 0.03 0  0.51 0.03 0  0.52 0.03 0  0.53 0.03 0  0.54 0.03 0  0.55 0.03 0  0.5600000000000001 0.03 0  0.57 0.03 0  0.58 0.03 0  0.59 0.03 0  0.6 0.03 0  0.61 0.03 0  0.62 0.03 0  0.63 0.03 0  0.64 0.03 0  0.65 0.03 0  0.66 0.03 0  0.67 0.03 0  0.68 0.03 0  0.6899999999999999 0.03 0  0.7 0.03 0  0.71 0.03 0  0.72 0.03 0  0.73 0.03 0  0.74 0.03 0  0.75 0.03 0  0.76 0.03 0  0.77 0.03 0  0.78 0.03 0  0.79 0.03 0  0.8 0.03 0  0.8100000000000001 0.03 0  0.82 0.03 0  0.83 0.03 0  0.84 0.03 0  0.85 0.03 0  0.86 0.03 0  0.87 0.03 0  0.88 0.03 0  0.89 0.03 0  0.9 0.03 0  0.91 0.03 0  0.92 0.03 0  0.93 0.03 0  0.9399999999999999 0.03 0  0.95 0.03 0  0.96 0.03 0  0.97 0.03 0  0.98 0.03 0  0.99 0.03 0  1 0.03 0  0 0.04 0  0.01 0.04 0  0.02 0.04 0  0.03 0.04 0  0.04 0.04 0  0.05 0.04 0  0.06 0.04 0  0.07000000000000001 0.04 0  0.08 0.04 0  0.09 0.04 0  0.1 0.04 0  0.11 0.04 0  0.12 0.04 0  0.13 0.04 0  0.14 0.04 0  0.15 0.04 0  0.16 0.04 0  0.17 0.04 0  0.18 0.04 0  0.19 0.04 0  0.2 0.04 0  0.21 0.04 0  0.22 0.04 0  0.23 0.04 0  0.24 0.04 0  0.25 0.04 0  0.26 0.04 0  0.27 0.04 0  0.28 0.04 0  0.29 0.04 0  0.3 0.04 0  0.31 0.04 0  0.32 0.04 0  0.33 0.04 0  0.34 0.04 0  0.35 0.04 0  0.36 0.04 0  0.37 0.04 0  0.38 0.04 0  0.39 0.04 0  0.4 0.04 0  0.41 0.04 0  0.42 0.04 0  0.43 0.04 0  0.44 0.04 0  0.45 0.04 0  0.46 0.04 0  0.47 0.04 0  0.48 0.04 0  0.49 0.04 0  0.5 0.04 0  0.51 0.04 0  0.52 0.04 0  0.53 0.04 0  0.54 0.04 0  0.55 0.04 0  0.5600000000000001 0.04 0  0.57 0.04 0  0.58 0.04 0  0.59 0.04 0  0.6 0.04 0  0.61 0.04 0  0.62 0.04 0  0.63 0.04 0  0.64 0.04 0  0.65 0.04 0  0.66 0.04 0  0.67 0.04 0  0.68 0.04 0  0.6899999999999999 0.04 0  0.7 0.04 0  0.71 0.04 0  0.72 0.04 0  0.73 0.04 0  0.74 0.04 0  0.75 0.04 0  0.76 0.04 0  0.77 0.04 0  0.78 0.04 0  0.79 0.04 0  0.8 0.04 0  0.8100000000000001 0.04 0  0.82 0.04 0  0.83 0.04 0  0.84 0.04 0  0.85 0.04 0  0.86 0.04 0  0.87 0.04 0  0.88 0.04 0  0.89 0.04 0  0.9 0.04 0  0.91 0.04 0  0.92 0.04 0  0.93 0.04 0  0.9399999999999999 0.04 0  0.95 0.04 0  0.96 0.04 0  0.97 0.04 0  0.98 0.04 0  0.99 0.04 0  1 0.04 0  0 0.05 0  0.01 0.05 0  0.02 0.05 0  0.03 0.05 0  0.04 0.05 0  0.05 0.05 0  0.06 0.05 0  0.07000000000000001 0.05 0  0.08 0.05 0  0.09 0.05 0  0.1 0.05 0  0.11 0.05 0  0.12 0.05 0  0.13 0.05 0  0.14 0.05 0  0.15 0.05 0  0.16 0.05 0  0.17 0.05 0  0.18 0.05 0  0.19 0.05 0  0.2 0.05 0  0.21 0.05 0  0.22 0.05 0  0.23 0.05 0  0.24 0.05 0  0.25 0.05 0  0.26 0.05 0  0.27 0.05 0  0.28 0.05 0  0.29 0.05 0  0.3 0.05 0  0.31 0.05 0  0.32 0.05 0  0.33 0.05 0  0.34 0.05 0  0.35 0.05 0  0.36 0.05 0  0.37 0.05 0  0.38 0.05 0  0.39 0.05 0  0.4 0.05 0  0.41 0.05 0  0.42 0.05 0  0.43 0.05 0  0.44 0.05 0  0.45 0.05 0  0.46 0.05 0  0.47 0.05 0  0.48 0.05 0  0.49 0.05 0  0.5 0.05 0  0.51 0.05 0  0.52 0.05 0  0.53 0.05 0  0.54 0.05 0  0.55 0.05 0  0.5600000000000001 0.05 0  0.57 0.05 0  0.58 0.05 0  0.59 0.05 0  0.6 0.05 0  0.61 0.05 0  0.62 0.05 0  0.63 0.05 0  0.64 0.05 0  0.65 0.05 0  0.66 0.05 0  0.67 0.05 0  0.68 0.05 0  0.6899999999999999 0.05 0  0.7 0.05 0  0.71 0.05 0  0.72 0.05 0  0.73 0.05 0  0.74 0.05 0  0.75 0.05 0  0.76 0.05 0  0.77 0.05 0  0.78 0.05 0  0.79 0.05 0  0.8 0.05 0  0.8100000000000001 0.05 0  0.82 0.05 0  0.83 0.05 0  0.84 0.05 0  0.85 0.05 0  0.86 0.05 0  0.87 0.05 0  0.88 0.05 0  0.89 0.05 0  0.9 0.05 0  0.91 0.05 0  0.92 0.05 0  0.93 0.05 0  0.9399999999999999 0.05 0  0.95 0.05 0  0.96 0.05 0  0.97 0.05 0  0.98 0.05 0  0.99 0.05 0  1 0.05 0  0 0.06 0  0.01 0.06 0  0.02 0.06 0  0.03 0.06 0  0.04 0.06 0  0.05 0.06 0  0.06 0.06 0  0.07000000000000001 0.06 0  0.08 0.06 0  0.09 0.06 0  0.1 0.06 0  0.11 0.06 0  0.12 0.06 0  0.13 0.06 0  0.14 0.06 0  0.15 0.06 0  0.16 0.06 0  0.17 0.06 0  0.18 0.06 0  0.19 0.06 0  0.2 0.06 0  0.21 0.06 0  0.22 0.06 0  0.23 0.06 0  0.24 0.06 0  0.25 0.06 0  0.26 0.06 0  0.27 0.06 0  0.28 0.06 0  0.29 0.06 0  0.3 0.06 0  0.31 0.06 0  0.32 0.06 0  0.33 0.06 0  0.34 0.06 0  0.35 0.06 0  0.36 0.06 0  0.37 0.06 0  0.38 0.06 0  0.39 0.06 0  0.4 0.06 0  0.41 0.06 0  0.42 0.06 0  0.43 0.06 0  0.44 0.06 0  0.45 0.06 0  0.46 0.06 0  0.47 0.06 0  0.48 0.06 0  0.49 0.06 0  0.5 0.06 0  0.51 0.06 0  0.52 0.06 0  0.53 0.06 0  0.54 0.06 0  0.55 0.06 0  0.5600000000000001 0.06 0  0.57 0.06 0  0.58 0.06 0  0.59 0.06 0  0.6 0.06 0  0.61 0.06 0  0.62 0.06 0  0.63 0.06 0  0.64 0.06 0  0.65 0.06 0  0.66 0.06 0  0.67 0.06 0  0.68 0.06 0  0.6899999999999999 0.06 0  0.7 0.06 0  0.71 0.06 0  0.72 0.06 0  0.73 0.06 0  0.74 0.06 0  0.75 0.06 0  0.76 0.06 0  0.77 0.06 0  0.78 0.06 0  0.79 0.06 0  0.8 0.06 0  0.8100000000000001 0.06 0  0.82 0.06 0  0.83 0.06 0  0.84 0.06 0  0.85 0.06 0  0.86 0.06 0  0.87 0.06 0  0.88 0.06 0  0.89 0.06 0  0.9 0.06 0  0.91 0.06 0  0.92 0.06 0  0.93 0.06 0  0.9399999999999999 0.06 0  0.95 0.06 0  0.96 0.06 0  0.97 0.06 0  0.98 0.06 0  0.99 0.06 0  1 0.06 0  0 0.07000000000000001 0  0.01 0.07000000000000001 0  0.02 0.07000000000000001 0  0.03 0.07000000000000001 0  0.04 0.07000000000000001 0  0.05 0.07000000000000001 0  0.06 0.07000000000000001 0  0.07000000000000001 0.07000000000000001 0  0.08 0.07000000000000001 0  0.09 0.07000000000000001 0  0.1 0.07000000000000001 0  0.11 0.07000000000000001 0  0.12 0.07000000000000001 0  0.13 0.07000000000000001 0  0.14 0.07000000000000001 0  0.15 0.07000000000000001 0  0.16 0.07000000000000001 0  0.17 0.0700
[...]
<PointData  Scalars="u"> 
<DataArray  type="Float64"  Name="u"  format="ascii">0.0000000000000000e+00  0.0000000000000000e+00  0.0000000000000000e+00  0.0000000000000000e+00  0.0000000000000000e+00  0.0000000000000000e+00  0.0000000000000000e+00  0.0000000000000000e+00  0.0000000000000000e+00  0.0000000000000000e+00  0.0000000000000000e+00  0.0000000000000000e+00  0.0000000000000000e+00  0.0000000000000000e+00  0.0000000000000000e+00  0.0000000000000000e+00  0.0000000000000000e+00  0.0000000000000000e+00  0.0000000000000000e+00  0.0000000000000000e+00  0.0000000000000000e+00  0.0000000000000000e+00  0.0000000000000000e+00  0.0000000000000000e+00  0.0000000000000000e+00  0.0000000000000000e+00  0.0000000000000000e+00  0.0000000000000000e+00  0.0000000000000000e+00  0.0000000000000000e+00  0.0000000000000000e+00  0.0000000000000000e+00  0.0000000000000000e+00  0.0000000000000000e+00  0.0000000000000000e+00  0.0000000000000000e+00  0.0000000000000000e+00  0.0000000000000000e+00  0.0000000000000000e+00  0.0000000000000000e+00  0.0000000000000000e+00  0.0000000000000000e+00  0.0000000000000000e+00  0.0000000000000000e+00  0.0000000000000000e+00  0.0000000000000000e+00  0.0000000000000000e+00  0.0000000000000000e+00  0.0000000000000000e+00  0.0000000000000000e+00  0.0000000000000000e+00  0.0000000000000000e+00  0.0000000000000000e+00  0.0000000000000000e+00  0.0000000000000000e+00  0.0000000000000000e+00  0.0000000000000000e+00  0.0000000000000000e+00  0.0000000000000000e+00  0.0000000000000000e+00  0.0000000000000000e+00  0.0000000000000000e+00  0.0000000000000000e+00  0.0000000000000000e+00  0.0000000000000000e+00  0.0000000000000000e+00  0.0000000000000000e+00  0.0000000000000000e+00  0.0000000000000000e+00  0.0000000000000000e+00  0.0000000000000000e+00  0.0000000000000000e+00  0.0000000000000000e+00  0.0000000000000000e+00  0.0000000000000000e+00  0.0000000000000000e+00  0.0000000000000000e+00  0.0000000000000000e+00  0.0000000000000000e+00  0.0000000000000000e+00  0.0000000000000000e+00  0.0000000000000000e+00  0.0000000000000000e+00  0.0000000000000000e+00  0.0000000000000000e+00  0.0000000000000000e+00  0.0000000000000000e+00  0.0000000000000000e+00  0.0000000000000000e+00  0.0000000000000000e+00  0.0000000000000000e+00  0.0000000000000000e+00  0.0000000000000000e+00  0.0000000000000000e+00  0.0000000000000000e+00  0.0000000000000000e+00  0.0000000000000000e+00  0.0000000000000000e+00  0.0000000000000000e+00  0.0000000000000000e+00  0.0000000000000000e+00  0.0000000000000000e+00  5.5164611864046945e-17  1.2762567376479420e-16  2.2845006042504652e-16  3.7354659049842717e-16  5.8605441307280721e-16  8.9966863919248069e-16  1.3633618543099792e-15  2.0480434410027540e-15  3.0558841207753745e-15  4.5332702085696875e-15  6.6886497577250375e-15  9.8168987821170353e-15  1.4332274789745030e-14  2.0812536090752530e-14  3.0057378847621159e-14  4.3164956228688271e-14  6.1630853130101505e-14  8.7474428890133773e-14  1.2339781183258981e-13  1.7298290053727473e-13  2.4093132682730127e-13  3.3335125810919319e-13  4.5809292817311379e-13  6.2513164257653931e-13  8.4699248345739339e-13  1.1392048762897814e-12  1.5207675300076589e-12  2.0145951529924555e-12  2.6479081571636575e-12  3.4525159733791170e-12  4.4649346422281134e-12  5.7262713929967896e-12  7.2818046559397249e-12  9.1801892222174107e-12  1.1472224904794782e-11  1.4209144603373004e-11  1.7440405060956963e-11  2.1211000783332045e-11  2.5558367275771009e-11  3.0508991169141451e-11  3.6074897702425136e-11  4.2250234849728582e-11  4.9008211741730337e-11  5.6298670418326681e-11  6.4046568603011097e-11  7.2151623070829502e-11  8.0489306853132420e-11  8.8913310789128137e-11  9.7259476092584222e-11  1.0535108819215515e-10  1.1300530414236363e-10  1.2004037865926737e-10  1.2628326931011748e-10  1.3157714970787666e-10  1.3578834755868573e-10  1.3881225459809447e-10  1.4057782559979339e-10  1.4105038700532983e-10  1.4023260190933628e-10  1.3816357444452526e-10  1.3491620966716042e-10  1.3059306243308523e-10  1.2532100044645116e-10  1.1924506601958038e-10  1.1252194534278274e-10  1.0531344429213599e-10  9.7780330363505315e-11  9.0076838000334722e-11  8.2346057541128759e-11  7.4716344713222729e-11  6.7298805865856713e-11  6.0185840435425797e-11  5.3450661143028647e-11  4.7147666862349072e-11  4.1313513826439397e-11  3.5968717140523810e-11  3.1119614511982925e-11  2.6760535009956006e-11  2.2876034487618532e-11  1.9443083009474119e-11  1.6433115472461083e-11  1.3813882299428228e-11  1.1551060869428304e-11  9.6096090443209787e-12  7.9548590845383604e-12  6.5533631819304185e-12  5.3735108698386376e-12  4.3859440196372630e-12  3.5637974393533377e-12  2.8827927214261634e-12  2.3212103568143100e-12  1.8597605294598792e-12  1.4813665249451512e-12  1.1708661679227683e-12  9.1462564822593187e-13  7.0004558130221316e-13  5.1491969858151623e-13  3.4657994473116120e-13  1.8072409948446120e-13  0.0000000000000000e+00  0.0000000000000000e+00  1.1439342450713435e-16  2.6483368747885693e-16  4.7441209892887014e-16  7.7644748371316639e-16  1.2194738487150298e-15  1.8742800040198156e-15  2.8439218981105858e-15  4.2778718609789195e-15  6.3918706482653905e-15  9.4955640150584515e-15  1.4030655676960372e-14  2.0623111037343665e-14  3.0153912964760339e-14  4.3854002442386786e-14  6.3430313916279159e-14  9.1231189182103466e-14  1.3046083496642572e-13  1.8545373360030890e-13  2.6202081066720070e-13  3.6787941557365150e-13  5.1317840149707829e-13  7.1112733745646689e-13  9.7873461886551918e-13  1.3376524077195298e-12  1.8151164095498280e-12  2.4449550906398553e-12  3.2686259161783777e-12  4.3362158050931759e-12  5.7073200591599255e-12  7.4516900359327247e-12  9.6495170932372454e-12  1.2391201941975356e-11  1.5776448308606760e-11  1.9912521966209663e-11  2.4911534965738023e-11  3.0886653873103027e-11  3.7947192191379476e-11  4.6192630934904309e-11  5.5705714638197736e-11  6.6544886665147899e-11  7.8736447813300549e-11  9.2266933160922484e-11  1.0707628921042143e-10  1.2305248165845785e-10  1.4002816034442211e-10  1.5777994286281080e-10  1.7603074878790339e-10  1.9445542679654195e-10  2.1268967961406109e-10  2.3034202654617133e-10  2.4700827592875222e-10  2.6228773840671908e-10  2.7580022399295231e-10  2.8720275425666388e-10  2.9620490081497777e-10  3.0258173750969915e-10  3.0618356020736716e-10  3.0694176870907412e-10  3.0487059524928692e-10  3.0006467399111943e-10  2.9269274512889322e-10  2.8298804766526429e-10  2.7123615446397468e-10  2.5776112766114590e-10  2.4291091682656388e-10  2.2704288999694830e-10  2.1051028980534057e-10  1.9365025959529079e-10  1.7677390659294107e-10  1.6015868018731653e-10  1.4404316061837310e-10  1.2862419102876576e-10  1.1405615379615733e-10  1.0045209573944764e-10  8.7886347410848433e-11  7.6398256987928589e-11  6.5996664453236264e-11  5.6664770427518059e-11  4.8365099223535348e-11  4.1044310596517655e-11  3.4637673217420447e-11  2.9073070129714132e-11  2.4274458685210889e-11  2.0164752274185863e-11  1.6668127298413668e-11  1.3711785953582355e-11  1.1227223864371972e-11  9.1510622854363283e-12  7.4255085099680150e-12  5.9985064095937966e-12  4.8236326176951430e-12  3.8597834249621212e-12  3.0706832178648368e-12  2.4242269329637491e-12  1.8916454807181054e-12  1.4464524599817574e-12  1.0630896341568278e-12  7.1513305165680283e-13  3.7284556325181724e-13  0.0000000000000000e+00  0.0000000000000000e+00  1.8494836320113188e-16  4.2849618578944536e-16  7.6843554349131183e-16  1.2594420548999802e-15  1.9813486204944048e-15  3.0508860499466826e-15  4.6384313473313101e-15  6.9917476358295603e-15  1.0469395318652023e-14  1.5587391341748560e-14  2.3083830363511573e-14  3.4007593332943058e-14  4.9838980917777633e-14  7.2652127493756195e-14  1.0533134909841740e-13  1.5185607820203812e-13  2.1767158909269588e-13  3.1016507225866071e-13  4.3926840291673854e-13  6.1820964943085627e-13  8.6443430177415099e-13  1.2007135283384536e-12  1.6564495190037742e-12  2.2691761039938615e-12  3.0862353578078460e-12  4.1665870252510471e-12  5.5826770003891732e-12  7.4222541174862501e-12  9.7899825501022219e-12  1.2808652819690081e-11  1.6619751934611352e-11  2.1383118200576524e-11  2.7275385812552903e-11  3.4486926387889253e-11  4.3217027121048302e-11  5.3667115116440524e-11  6.6031949039192707e-11  8.0488852803818661e-11  9.7185256434963675e-11  1.1622502491856558e-10  1.3765427865890009e-10  1.6144761515116844e-10  1.8749580300060122e-10  2.1559610817361181e-10  2.4544640341232295e-10  2.7664408779798070e-10  3.0869059883203347e-10  3.4100194285494080e-10  3.7292522529393201e-10  4.0376066840367278e-10  4.3278810959867303e-10  4.5929653173623815e-10  4.8261483921729296e-10  5.0214190266752872e-10  5.1737387692175143e-10  5.2792695914037598e-10  5.3355408225361921e-10  5.3415450037040739e-10  5.2977576924562419e-10  5.2060819988180093e-10  5.0697240932799624e-10  4.8930105834760294e-10  4.6811621149654954e-10  4.4400395775485483e-10  4.1758798286418783e-10  3.8950369781135965e-10  3.6037432454851014e-10  3.3079005208704655e-10  3.0129103972760909e-10  2.7235469513970256e-10  2.4438732479099927e-10  2.1771996746494565e-10  1.9260799465002917e-10  1.6923390236162295e-10  1.4771262778827166e-10  1.2809869524958524e-10  1.1039451925731398e-10  9.4559255555363955e-11  8.0517680783758027e-11  6.8168685479046613e-11  5.7393072777172140e-11  4.8060457943022765e-11  4.0035155656236378e-11  3.3181019106067582e-11  2.7365255693038732e-11  2.2461288426739062e-11  1.8350761037896268e-11  1.4924800197692861e-11  1.2084652182449873e-11  9.7418059327578537e-12  7.8177015153264060e-12  6.2431037356721413e-12  4.9571955418071765e-12  3.9064144012077942e-12  3.0430153031390493e-12  2.3232931792859161e-12  1.7053301447544067e-12  1.1460413520197806e-12  5.9716630558917150e-13  0.0000000000000000e+00  0.0000000000000000e+00  2.7475478401221421e-16  6.3714054294172349e-16  1.1442035840084031e-15  1.8787159658749665e-15  2.9618991090610213e-15  4.5715655391669276e-15  6.9680942960981125e-15  1.0531389908030895e-14  1.5813099921681957e-14  2.3609826284849737e-14  3.5064928486499375e-14  5.1808845643235303e-14  7.6150711649406050e-14  1.1133742368510359e-13  1.6190021946658241e-13  2.3411311030391643e-13  3.3659197334656901e-13  4.8106733174002703e-13  6.8336723938560765e-13  9.6464837625603095e-13  1.3529123030191641e-12  1.8848383807262375e-12  2.6079534402161065e-12  3.5831390438158558e-12  4.8874483117833469e-12  6.6171643022898356e-12  8.8909800635082195e-12  1.1853117141768144e-11  1.5676126684980847e-11  2.0563039731984888e-11  2.6748457883544272e-11  3.4498112161503499e-11  4.4106378864825156e-11  5.5891240740566639e-11  7.0186234211796432e-11  8.7329041368083242e-11  1.0764657718759228e-10  1.3143668911187073e-10  1.5894691896429745e-10  1.9035115604971569e-10  2.2572540284779649e-10  2.6502423821115523e-10  3.0805984766267330e-10  3.5448564530763102e-10  4.0378649218921454e-10  4.5527729080723577e-10  5.0811129545214974e-10  5.6129883982960133e-10  6.1373639208603178e-10  6.6424497320142584e-10  7.1161610669977963e-10  7.5466270246031834e-10  7.9227170671069433e-10  8.2345504746951589e-10  8.4739541394478362e-10  8.6348373752510178e-10  8.7134586074657337e-10  8.7085672444737492e-10  8.6214138229115880e-10  8.4556316291180773e-10  8.2170024068233095e-10  7.9131265762275560e-10  7.5530239596908622e-10  7.1466939789388131e-10  6.7046646149426984e-10  6.2375573455857605e-10  5.7556912612952923e-10  5.2687442083623587e-10  4.7854827787555488e-10  4.3135668796028638e-10  3.8594290075286651e-10  3.4282236201198742e-10  3.0238383835848927e-10  2.6489566774024170e-10  2.3051595191265098e-10  1.9930549018728768e-10  1.7124232149391364e-10  1.4623687150428982e-10  1.2414687004003559e-10  1.0479139012514312e-10  8.7963546235175582e-11  7.3441562156235745e-11  6.0998069360014347e-11  5.0407619892472252e-11  4.1452491791928533e-11  3.3926930900100149e-11  2.7640013263688085e-11  2.2417330790240134e-11  1.8101703393131372e-11  1.4553107295488862e-11  1.1647984578771484e-11  9.2780655923066554e-12  7.3487943411748144e-12  5.7773967219699224e-12  4.4905698303700087e-12  3.4216924750929107e-12  2.5073544181548308e-12  1.6828627414874287e-12  8.7619098753162602e-13  0.0000000000000000e+00  0.0000000000000000e+00  3.9329050890556158e-16  9.1296862880119369e-16  1.6422183525772180e-15  2.7021261343086339e-15  4.2706423152354512e-15  6.6097486785180420e-15  1.0104521449419462e-14  1.5318953118843133e-14  2.3075169823567437e-14  3.4564998642297146e-14  5.1505817015678429e-14  7.6356369885933414e-14  1.1261286733759970e-13  1.6521123244657261e-13  2.4106783281605643e-13  3.4979824854248144e-13  5.0466126083588579e-13  7.2378267807425128e-13  1.0317198869972419e-12  1.4614317298934126e-12  2.0567175701294963e-12  2.8751818029809304e-12  3.9917627072455499e-12  5.5028342067411551e-12  7.5308425898796509e-12  1.0229374744542438e-11  1.3788468349107359e-11  1.8439868025775149e-11  2.4461807937163514e-11  3.2182767796667968e-11  4.1983517522661128e-11  5.4296652550692949e-11  6.9602748530932733e-11  8.8422255523920347e-11  1.1130233349045947e-10  1.3879802571878518e-10  1.7144749034493274e-10  2.0974146534801283e-10  2.5408771516558450e-10  3.0477186255377584e-10  3.6191669107870547e-10  4.2544263609015630e-10  4.9503267692712188e-10  5.7010510982746175e-10  6.4979763990155041e-10  7.3296582732634581e-10  8.1819814193346811e-10  9.0384875366162050e-10  9.8808779651208538e-10  1.0689673186743888e-09  1.1444996315251946e-09  1.2127434676225818e-09  1.2718924134699203e-09  1.3203596223316101e-09  1.3568529066324355e-09  1.3804349628460614e-09  1.3905646303549975e-09  1.3871166058820789e-09  1.3703787607778050e-09  1.3410279546369316e-09  1.3000868262896197e-09  1.2488653217253719e-09  1.1888915832374048e-09  1.1218372251996316e-09  1.0494419652059397e-09  9.7344211933172909e-10  8.9550669773344925e-10  8.1718386303675321e-10  7.3985945507698510e-10  6.6472824844440373e-10  5.9277768123341718e-10  5.2478303594928911e-10  4.6131250065502706e-10  4.0274019832030152e-10  3.4926513176019127e-10  3.0093402183796206e-10  2.5766617988327716e-10  2.1927881033059353e-10  1.8551144664390565e-10  1.5604854778915935e-10  1.3053959591989065e-10  1.0861631838358805e-10  8.9906896021876608e-11  7.4047209074130960e-11  6.0689311207163503e-11  4.9507414588452875e-11  4.0201720277431755e-11  3.2500445518400703e-11  2.6160389933796773e-11  2.0966352643951671e-11  1.6729667229891007e-11  1.3286064747501011e-11  1.0493008141264258e-11  8.2265633644830685e-12  6.3777793062764824e-12  4.8484326490966256e-12  3.5458428672326733e-12  2.3762587024075179e-12  1.2360348762684965e-12  0.0000000000000000e+00  0.0000000000000000e+00  5.5245807010069234e-16  1.2839225222831738e-15  2.3136276370820813e-15  3.8157397590376299e-15  6.0471882967095372e-15  9.3877419863273881e-15  1.4397896619979960e-14  2.1901986435594586e-14  3.3106693661565494e-14  4.9768767206832129e-14  7.4430470186542123e-14  1.1074726034841793e-13  1.6393965177333446e-13  2.4141023623819102e-13  3.5357746742411167e-13  5.1498984220826299e-13  7.4579705872913898e-13  1.0736676659996332e-12  1.5362541400089277e-12  2.1843139924846452e-12  3.0855963501672941e-12  4.3295934211777106e-12  6.0332305015283257e-12  8.3475211276366093e-12  1.1465139926249846e-11  1.5628759524134355e-11  2.1139856149164118e-11  2.8367511052159343e-11  3.7756526251279116e-11  4.9833944617496233e-11  6.5212835355218369e-11  8.4592004756110206e-11  1.0875015547815115e-10  1.3853298868408556e-10  1.7483186755466240e-10  2.1855297925832804e-10  2.7057647439726494e-10  3.3170583575407397e-10  4.0260870906451426e-10  4.8375155803989434e-10  5.7533168563977848e-10  6.7721126064886137e-10  7.8885884671362678e-10  9.0930438934361126e-10  1.0371135337386063e-09  1.1703864272907636e-09  1.3067847796243737e-09  1.4435889707115444e-09  1.5777845653695591e-09  1.7061749423879124e-09  1.8255141663574880e-09  1.9326520262126387e-09  2.0246816176954259e-09  2.0990791707055081e-09  2.1538261280450828e-09  2.1875047593554897e-09  2.1993607112328997e-09  2.1893286164287548e-09  2.1580199072377765e-09  2.1066749704638425e-09  2.0370844331769160e-09  1.9514864286074818e-09  1.8524479961381375e-09  1.7427392550481215e-09  1.6252086930431524e-09  1.5026669445478644e-09  1.3777849745859071e-09  1.2530108346336648e-09  1.1305073201691379e-09  1.0121111155008455e-09  8.9931249987461187e-10  7.9325350172705304e-10  6.9474156825127937e-10  6.0427536442593452e-10  5.2207919416715067e-10  4.4814268788708345e-10  3.8226275507080651e-10  3.2408528497614473e-10  2.7314462621659768e-10  2.2889943045406087e-10  1.9076396365275116e-10  1.5813444112804195e-10  1.3041031359999022e-10  1.0701071507723325e-10  8.7386482382974510e-11  7.1028278891453994e-11  5.7471413229669480e-11  4.6297950194254536e-11  3.7136678438275265e-11  2.9661438549059013e-11  2.3588234554101740e-11  1.8671457317264325e-11  1.4699442010660403e-11  1.1489462328702077e-11  8.8821253639150972e-12  6.7349617380551028e-12  4.9147875954883042e-12  3.2881216734534207e-12  1.7085336356888176e-12  0.0000000000000000e+00  0.0000000000000000e+00  7.6758089881158378e-16  1.7860504734162172e-15  3.2246333652961844e-15  5.3314213720993702e-15  8.4738686665650504e-15  1.3197405694570819e-14  2.0310511018325220e-14  3.1007454909789290e-14  4.7044202050281636e-14  7.0988629240879242e-14  1.0657361261430611e-13  1.5919102214131902e-13  2.3657656715075764e-13  3.4975002610525796e-13  5.1429275929210937e-13  7.5206433742863286e-13  1.0934819415361163e-12  1.5805085258138288e-12  2.2705162631099808e-12  3.2412069705798174e-12  4.5967760359335932e-12  6.4754942062142484e-12  9.0588442346099564e-12  1.2582277288614757e-11  1.7347537121318842e-11  2.3736328909437492e-11  3.2224877558412310e-11  4.3398625442478123e-11  5.7965968344190480e-11  7.6769538399221961e-11  1.0079314582934911e-10  1.3116213463338705e-10  1.6913465414214874e-10  2.1608127355324879e-10  2.7345055055350066e-10  3.4271868239932623e-10  4.2532227248766620e-10  5.2257455467114846e-10  6.3556709540411029e-10  7.6506093897066057e-10  9.1137320248519365e-10  1.0742670310765367e-09  1.2528543130382487e-09  1.4455213441089088e-09  1.6498874686534245e-09  1.8628054453739121e-09  2.0804098446278596e-09  2.2982162977422705e-09  2.5112701634609514e-09  2.7143385737962309e-09  2.9021353880627554e-09  3.0695648636703609e-09  3.2119673360914270e-09  3.3253492487436422e-09  3.4065806567175911e-09  3.4535457957975017e-09  3.4652361929481566e-09  3.4417806515290941e-09  3.3844117175805059e-09  3.2953733359814118e-09  3.1777788020726638e-09  3.0354313907030029e-09  2.8726219513961809e-09  2.6939182285949972e-09  2.5039598039472356e-09  2.3072706046462274e-09  2.1080982078401399e-09  1.9102860613182685e-09  1.7171815861777900e-09  1.5315802258937005e-09  1.3557030778959760e-09  1.1912039197460029e-09  1.0392002681553678e-09  9.0032255853119966e-10  7.7477552452545145e-10  6.6240627693726335e-10  5.6277430128916454e-10  4.7521948812223222e-10  3.9892526870520753e-10  3.3297486231175441e-10  2.7639948501510078e-10  2.2821808377742035e-10  1.8746872449422401e-10  1.5323217673002100e-10  1.2464851169869000e-10  1.0092768200357859e-10  8.1355104034978103e-11  6.5293239681665588e-11  5.2180094418562273e-11  4.1525431858233797e-11  3.2905364164610298e-11  2.5955822062217794e-11  2.0365240909788425e-11  1.5866617973656474e-11  1.2228891565113536e-11  9.2473481836467487e-12  6.7324525196726502e-12  4.4960777271544475e-12  2.3335334566868300e-12  0.0000000000000000e+00  0.0000000000000000e+00  1.0585882322332160e-15  2.4663306170881092e-15  4.4617812607704373e-15  7.3959976490969025e-15  1.1791107307627691e-14  1.8425525826622996e-14  2.8458257466738621e-14  4.3609154343525837e-14  6.6418588700019830e-14  1.0061878595696616e-13  1.5166063650092566e-13  2.2745476316851181e-13  3.3940457743628118e-13  5.0383252461529723e-13  7.4392897395474951e-13  1.0923860845654440e-12  1.5949155714460630e-12  2.3148876066917279e-12  3.3393645778118775e-12  4.7868325234931459e-12  6.8169467265428095e-12  9