<?xml version="1.0"?>
<VTKFile type="UnstructuredGrid"  version="0.1"  >
<UnstructuredGrid>
<Piece  NumberOfPoints="10201" NumberOfCells="20000">
<Points>
<DataArray  type="Float64"  NumberOfComponents="3"  format="ascii">0 0 0  0.01 0 0  0.02 0 0  0.03 0 0  0.04 0 0  0.05 0 0  0.06 0 0  0.07000000000000001 0 0  0.08 0 0  0.09 0 0  0.1 0 0  0.11 0 0  0.12 0 0  0.13 0 0  0.14 0 0  0.15 0 0  0.16 0 0  0.17 0 0  0.18 0 0  0.19 0 0  0.2 0 0  0.21 0 0  0.22 0 0  0.23 0 0  0.24 0 0  0.25 0 0  0.26 0 0  0.27 0 0  0.28 0 0  0.29 0 0  0.3 0 0  0.31 0 0  0.32 0 0  0.33 0 0  0.34 0 0  0.35 0 0  0.36 0 0  0.37 0 0  0.38 0 0  0.39 0 0  0.4 0 0  0.41 0 0  0.42 0 0  0.43 0 0  0.44 0 0  0.45 0 0  0.46 0 0  0.47 0 0  0.48 0 0  0.49 0 0  0.5 0 0  0.51 0 0  0.52 0 0  0.53 0 0  0.54 0 0  0.55 0 0  0.5600000000000001 0 0  0.57 0 0  0.58 0 0  0.59 0 0  0.6 0 0  0.61 0 0  0.62 0 0  0.63 0 0  0.64 0 0  0.65 0 0  0.66 0 0  0.67 0 0  0.68 0 0  0.6899999999999999 0 0  0.7 0 0  0.71 0 0  0.72 0 0  0.73 0 0  0.74 0 0  0.75 0 0  0.76 0 0  0.77 0 0  0.78 0 0  0.79 0 0  0.8 0 0  0.8100000000000001 0 0  0.82 0 0  0.83 0 0  0.84 0 0  0.85 0 0  0.86 0 0  0.87 0 0  0.88 0 0  0.89 0 0  0.9 0 0  0.91 0 0  0.92 0 0  0.93 0 0  0.9399999999999999 0 0  0.95 0 0  0.96 0 0  0.97 0 0  0.98 0 0  0.99 0 0  1 0 0  0 0.01 0  0.01 0.01 0  0.02 0.01 0  0.03 0.01 0  0.04 0.01 0  0.05 0.01 0  0.06 0.01 0  0.07000000000000001 0.01 0  0.08 0.01 0  0.09 0.01 0  0.1 0.01 0  0.11 0.01 0  0.12 0.01 0  0.13 0.01 0  0.14 0.01 0  0.15 0.01 0  0.16 0.01 0  0.17 0.01 0  0.18 0.01 0  0.19 0.01 0  0.2 0.01 0  0.21 0.01 0  0.22 0.01 0  0.23 0.01 0  0.24 0.01 0  0.25 0.01 0  0.26 0.01 0  0.27 0.01 0  0.28 0.01 0  0.29 0.01 0  0.3 0.01 0  0.31 0.01 0  0.32 0.01 0  0.33 0.01 0  0.34 0.01 0  0.35 0.01 0  0.36 0.01 0  0.37 0.01 0  0.38 0.01 0  0.39 0.01 0  0.4 0.01 0  0.41 0.01 0  0.42 0.01 0  0.43 0.01 0  0.44 0.01 0  0.45 0.01 0  0.46 0.01 0  0.47 0.01 0  0.48 0.01 0  0.49 0.01 0  0.5 0.01 0  0.51 0.01 0  0.52 0.01 0  0.53 0.01 0  0.54 0.01 0  0.55 0.01 0  0.5600000000000001 0.01 0  0.57 0.01 0  0.58 0.01 0  0.59 0.01 0  0.6 0.01 0  0.61 0.01 0  0.62 0.01 0  0.63 0.01 0  0.64 0.01 0  0.65 0.01 0  0.66 0.01 0  0.67 0.01 0  0.68 0.01 0  0.6899999999999999 0.01 0  0.7 0.01 0  0.71 0.01 0  0.72 0.01 0  0.73 0.01 0  0.74 0.01 0  0.75 0.01 0  0.76 0.01 0  0.77 0.01 0  0.78 0.01 0  0.79 0.01 0  0.8 0.01 0  0.8100000000000001 0.01 0  0.82 0.01 0  0.83 0.01 0  0.84 0.01 0  0.85 0.01 0  0.86 0.01 0  0.87 0.01 0  0.88 0.01 0  0.89 0.01 0  0.9 0.01 0  0.91 0.01 0  0.92 0.01 0  0.93 0.01 0  0.9399999999999999 0.01 0  0.95 0.01 0  0.96 0.01 0  0.97 0.01 0  0.98 0.01 0  0.99 0.01 0  1 0.01 0  0 0.02 0  0.01 0.02 0  0.02 0.02 0  0.03 0.02 0  0.04 0.02 0  0.05 0.02 0  0.06 0.02 0  0.07000000000000001 0.02 0  0.08 0.02 0  0.09 0.02 0  0.1 0.02 0  0.11 0.02 0  0.12 0.02 0  0.13 0.02 0  0.14 0.02 0  0.15 0.02 0  0.16 0.02 0  0.17 0.02 0  0.18 0.02 0  0.19 0.02 0  0.2 0.02 0  0.21 0.02 0  0.22 0.02 0  0.23 0.02 0  0.24 0.02 0  0.25 0.02 0  0.26 0.02 0  0.27 0.02 0  0.28 0.02 0  0.29 0.02 0  0.3 0.02 0  0.31 0.02 0  0.32 0.02 0  0.33 0.02 0  0.34 0.02 0  0.35 0.02 0  0.36 0.02 0  0.37 0.02 0  0.38 0.02 0  0.39 0.02 0  0.4 0.02 0  0.41 0.02 0  0.42 0.02 0  0.43 0.02 0  0.44 0.02 0  0.45 0.02 0  0.46 0.02 0  0.47 0.02 0  0.48 0.02 0  0.49 0.02 0  0.5 0.02 0  0.51 0.02 0  0.52 0.02 0  0.53 0.02 0  0.54 0.02 0  0.55 0.02 0  0.5600000000000001 0.02 0  0.57 0.02 0  0.58 0.02 0  0.59 0.02 0  0.6 0.02 0  0.61 0.02 0  0.62 0.02 0  0.63 0.02 0  0.64 0.02 0  0.65 0.02 0  0.66 0.02 0  0.67 0.02 0  0.68 0.02 0  0.6899999999999999 0.02 0  0.7 0.02 0  0.71 0.02 0  0.72 0.02 0  0.73 0.02 0  0.74 0.02 0  0.75 0.02 0  0.76 0.02 0  0.77 0.02 0  0.78 0.02 0  0.79 0.02 0  0.8 0.02 0  0.8100000000000001 0.02 0  0.82 0.02 0  0.83 0.02 0  0.84 0.02 0  0.85 0.02 0  0.86 0.02 0  0.87 0.02 0  0.88 0.02 0  0.89 0.02 0  0.9 0.02 0  0.91 0.02 0  0.92 0.02 0  0.93 0.02 0  0.9399999999999999 0.02 0  0.95 0.02 0  0.96 0.02 0  0.97 0.02 0  0.98 0.02 0  0.99 0.02 0  1 0.02 0  0 0.03 0  0.01 0.03 0  0.02 0.03 0  0.03 0.03 0  0.04 0.03 0  0.05 0.03 0  0.06 0.03 0  0.07000000000000001 0.03 0  0.08 0.03 0  0.09 0.03 0  0.1 0.03 0  0.11 0.03 0  0.12 0.03 0  0.13 0.03 0  0.14 0.03 0  0.15 0.03 0  0.16 0.03 0  0.17 0.03 0  0.18 0.03 0  0.19 0.03 0  0.2 0.03 0  0.21 0.03 0  0.22 0.03 0  0.23 0.03 0  0.24 0.03 0  0.25 0.03 0  0.26 0.03 0  0.27 0.03 0  0.28 0.03 0  0.29 0.03 0  0.3 0.03 0  0.31 0.03 0  0.32 0.03 0  0.33 0.03 0  0.34 0.03 0  0.35 0.03 0  0.36 0.03 0  0.37 0.03 0  0.38 0.03 0  0.39 0.03 0  0.4 0.03 0  0.41 0.03 0  0.42 0.03 0  0.43 0.03 0  0.44 0.03 0  0.45 0.03 0  0.46 0.03 0  0.47 0.03 0  0.48 0.03 0  0.49 0.03 0  0.5 0.03 0  0.51 0.03 0  0.52 0.03 0  0.53 0.03 0  0.54 0.03 0  0.55 0.03 0  0.5600000000000001 0.03 0  0.57 0.03 0  0.58 0.03 0  0.59 0.03 0  0.6 0.03 0  0.61 0.03 0  0.62 0.03 0  0.63 0.03 0  0.64 0.03 0  0.65 0.03 0  0.66 0.03 0  0.67 0.03 0  0.68 0.03 0  0.6899999999999999 0.03 0  0.7 0.03 0  0.71 0.03 0  0.72 0.03 0  0.73 0.03 0  0.74 0.03 0  0.75 0.03 0  0.76 0.03 0  0.77 0.03 0  0.78 0.03 0  0.79 0.03 0  0.8 0.03 0  0.8100000000000001 0.03 0  0.82 0.03 0  0.83 0.03 0  0.84 0.03 0  0.85 0.03 0  0.86 0.03 0  0.87 0.03 0  0.88 0.03 0  0.89 0.03 0  0.9 0.03 0  0.91 0.03 0  0.92 0.03 0  0.93 0.03 0  0.9399999999999999 0.03 0  0.95 0.03 0  0.96 0.03 0  0.97 0.03 0  0.98 0.03 0  0.99 0.03 0  1 0.03 0  0 0.04 0  0.01 0.04 0  0.02 0.04 0  0.03 0.04 0  0.04 0.04 0  0.05 0.04 0  0.06 0.04 0  0.07000000000000001 0.04 0  0.08 0.04 0  0.09 0.04 0  0.1 0.04 0  0.11 0.04 0  0.12 0.04 0  0.13 0.04 0  0.14 0.04 0  0.15 0.04 0  0.16 0.04 0  0.17 0.04 0  0.18 0.04 0  0.19 0.04 0  0.2 0.04 0  0.21 0.04 0  0.22 0.04 0  0.23 0.04 0  0.24 0.04 0  0.25 0.04 0  0.26 0.04 0  0.27 0.04 0  0.28 0.04 0  0.29 0.04 0  0.3 0.04 0  0.31 0.04 0  0.32 0.04 0  0.33 0.04 0  0.34 0.04 0  0.35 0.04 0  0.36 0.04 0  0.37 0.04 0  0.38 0.04 0  0.39 0.04 0  0.4 0.04 0  0.41 0.04 0  0.42 0.04 0  0.43 0.04 0  0.44 0.04 0  0.45 0.04 0  0.46 0.04 0  0.47 0.04 0  0.48 0.04 0  0.49 0.04 0  0.5 0.04 0  0.51 0.04 0  0.52 0.04 0  0.53 0.04 0  0.54 0.04 0  0.55 0.04 0  0.5600000000000001 0.04 0  0.57 0.04 0  0.58 0.04 0  0.59 0.04 0  0.6 0.04 0  0.61 0.04 0  0.62 0.04 0  0.63 0.04 0  0.64 0.04 0  0.65 0.04 0  0.66 0.04 0  0.67 0.04 0  0.68 0.04 0  0.6899999999999999 0.04 0  0.7 0.04 0  0.71 0.04 0  0.72 0.04 0  0.73 0.04 0  0.74 0.04 0  0.75 0.04 0  0.76 0.04 0  0.77 0.04 0  0.78 0.04 0  0.79 0.04 0  0.8 0.04 0  0.8100000000000001 0.04 0  0.82 0.04 0  0.83 0.04 0  0.84 0.04 0  0.85 0.04 0  0.86 0.04 0  0.87 0.04 0  0.88 0.04 0  0.89 0.04 0  0.9 0.04 0  0.91 0.04 0  0.92 0.04 0  0.93 0.04 0  0.9399999999999999 0.04 0  0.95 0.04 0  0.96 0.04 0  0.97 0.04 0  0.98 0.04 0  0.99 0.04 0  1 0.04 0  0 0.05 0  0.01 0.05 0  0.02 0.05 0  0.03 0.05 0  0.04 0.05 0  0.05 0.05 0  0.06 0.05 0  0.07000000000000001 0.05 0  0.08 0.05 0  0.09 0.05 0  0.1 0.05 0  0.11 0.05 0  0.12 0.05 0  0.13 0.05 0  0.14 0.05 0  0.15 0.05 0  0.16 0.05 0  0.17 0.05 0  0.18 0.05 0  0.19 0.05 0  0.2 0.05 0  0.21 0.05 0  0.22 0.05 0  0.23 0.05 0  0.24 0.05 0  0.25 0.05 0  0.26 0.05 0  0.27 0.05 0  0.28 0.05 0  0.29 0.05 0  0.3 0.05 0  0.31 0.05 0  0.32 0.05 0  0.33 0.05 0  0.34 0.05 0  0.35 0.05 0  0.36 0.05 0  0.37 0.05 0  0.38 0.05 0  0.39 0.05 0  0.4 0.05 0  0.41 0.05 0  0.42 0.05 0  0.43 0.05 0  0.44 0.05 0  0.45 0.05 0  0.46 0.05 0  0.47 0.05 0  0.48 0.05 0  0.49 0.05 0  0.5 0.05 0  0.51 0.05 0  0.52 0.05 0  0.53 0.05 0  0.54 0.05 0  0.55 0.05 0  0.5600000000000001 0.05 0  0.57 0.05 0  0.58 0.05 0  0.59 0.05 0  0.6 0.05 0  0.61 0.05 0  0.62 0.05 0  0.63 0.05 0  0.64 0.05 0  0.65 0.05 0  0.66 0.05 0  0.67 0.05 0  0.68 0.05 0  0.6899999999999999 0.05 0  0.7 0.05 0  0.71 0.05 0  0.72 0.05 0  0.73 0.05 0  0.74 0.05 0  0.75 0.05 0  0.76 0.05 0  0.77 0.05 0  0.78 0.05 0  0.79 0.05 0  0.8 0.05 0  0.8100000000000001 0.05 0  0.82 0.05 0  0.83 0.05 0  0.84 0.05 0  0.85 0.05 0  0.86 0.05 0  0.87 0.05 0  0.88 0.05 0  0.89 0.05 0  0.9 0.05 0  0.91 0.05 0  0.92 0.05 0  0.93 0.05 0  0.9399999999999999 0.05 0  0.95 0.05 0  0.96 0.05 0  0.97 0.05 0  0.98 0.05 0  0.99 0.05 0  1 0.05 0  0 0.06 0  0.01 0.06 0  0.02 0.06 0  0.03 0.06 0  0.04 0.06 0  0.05 0.06 0  0.06 0.06 0  0.07000000000000001 0.06 0  0.08 0.06 0  0.09 0.06 0  0.1 0.06 0  0.11 0.06 0  0.12 0.06 0  0.13 0.06 0  0.14 0.06 0  0.15 0.06 0  0.16 0.06 0  0.17 0.06 0  0.18 0.06 0  0.19 0.06 0  0.2 0.06 0  0.21 0.06 0  0.22 0.06 0  0.23 0.06 0  0.24 0.06 0  0.25 0.06 0  0.26 0.06 0  0.27 0.06 0  0.28 0.06 0  0.29 0.06 0  0.3 0.06 0  0.31 0.06 0  0.32 0.06 0  0.33 0.06 0  0.34 0.06 0  0.35 0.06 0  0.36 0.06 0  0.37 0.06 0  0.38 0.06 0  0.39 0.06 0  0.4 0.06 0  0.41 0.06 0  0.42 0.06 0  0.43 0.06 0  0.44 0.06 0  0.45 0.06 0  0.46 0.06 0  0.47 0.06 0  0.48 0.06 0  0.49 0.06 0  0.5 0.06 0  0.51 0.06 0  0.52 0.06 0  0.53 0.06 0  0.54 0.06 0  0.55 0.06 0  0.5600000000000001 0.06 0  0.57 0.06 0  0.58 0.06 0  0.59 0.06 0  0.6 0.06 0  0.61 0.06 0  0.62 0.06 0  0.63 0.06 0  0.64 0.06 0  0.65 0.06 0  0.66 0.06 0  0.67 0.06 0  0.68 0.06 0  0.6899999999999999 0.06 0  0.7 0.06 0  0.71 0.06 0  0.72 0.06 0  0.73 0.06 0  0.74 0.06 0  0.75 0.06 0  0.76 0.06 0  0.77 0.06 0  0.78 0.06 0  0.79 0.06 0  0.8 0.06 0  0.8100000000000001 0.06 0  0.82 0.06 0  0.83 0.06 0  0.84 0.06 0  0.85 0.06 0  0.86 0.06 0  0.87 0.06 0  0.88 0.06 0  0.89 0.06 0  0.9 0.06 0  0.91 0.06 0  0.92 0.06 0  0.93 0.06 0  0.9399999999999999 0.06 0  0.95 0.06 0  0.96 0.06 0  0.97 0.06 0  0.98 0.06 0  0.99 0.06 0  1 0.06 0  0 0.07000000000000001 0  0.01 0.07000000000000001 0  0.02 0.07000000000000001 0  0.03 0.07000000000000001 0  0.04 0.07000000000000001 0  0.05 0.07000000000000001 0  0.06 0.07000000000000001 0  0.07000000000000001 0.07000000000000001 0  0.08 0.07000000000000001 0  0.09 0.07000000000000001 0  0.1 0.07000000000000001 0  0.11 0.07000000000000001 0  0.12 0.07000000000000001 0  0.13 0.07000000000000001 0  0.14 0.07000000000000001 0  0.15 0.07000000000000001 0  0.16 0.07000000000000001 0  0.17 0.0700
[...]
<PointData  Scalars="u"> 
<DataArray  type="Float64"  Name="u"  format="ascii">0.0000000000000000e+00  0.0000000000000000e+00  0.0000000000000000e+00  0.0000000000000000e+00  0.0000000000000000e+00  0.0000000000000000e+00  0.0000000000000000e+00  0.0000000000000000e+00  0.0000000000000000e+00  0.0000000000000000e+00  0.0000000000000000e+00  0.0000000000000000e+00  0.0000000000000000e+00  0.0000000000000000e+00  0.0000000000000000e+00  0.0000000000000000e+00  0.0000000000000000e+00  0.0000000000000000e+00  0.0000000000000000e+00  0.0000000000000000e+00  0.0000000000000000e+00  0.0000000000000000e+00  0.0000000000000000e+00  0.0000000000000000e+00  0.0000000000000000e+00  0.0000000000000000e+00  0.0000000000000000e+00  0.0000000000000000e+00  0.0000000000000000e+00  0.0000000000000000e+00  0.0000000000000000e+00  0.0000000000000000e+00  0.0000000000000000e+00  0.0000000000000000e+00  0.0000000000000000e+00  0.0000000000000000e+00  0.0000000000000000e+00  0.0000000000000000e+00  0.0000000000000000e+00  0.0000000000000000e+00  0.0000000000000000e+00  0.0000000000000000e+00  0.0000000000000000e+00  0.0000000000000000e+00  0.0000000000000000e+00  0.0000000000000000e+00  0.0000000000000000e+00  0.0000000000000000e+00  0.0000000000000000e+00  0.0000000000000000e+00  0.0000000000000000e+00  0.0000000000000000e+00  0.0000000000000000e+00  0.0000000000000000e+00  0.0000000000000000e+00  0.0000000000000000e+00  0.0000000000000000e+00  0.0000000000000000e+00  0.0000000000000000e+00  0.0000000000000000e+00  0.0000000000000000e+00  0.0000000000000000e+00  0.0000000000000000e+00  0.0000000000000000e+00  0.0000000000000000e+00  0.0000000000000000e+00  0.0000000000000000e+00  0.0000000000000000e+00  0.0000000000000000e+00  0.0000000000000000e+00  0.0000000000000000e+00  0.0000000000000000e+00  0.0000000000000000e+00  0.0000000000000000e+00  0.0000000000000000e+00  0.0000000000000000e+00  0.0000000000000000e+00  0.0000000000000000e+00  0.0000000000000000e+00  0.0000000000000000e+00  0.0000000000000000e+00  0.0000000000000000e+00  0.0000000000000000e+00  0.0000000000000000e+00  0.0000000000000000e+00  0.0000000000000000e+00  0.0000000000000000e+00  0.0000000000000000e+00  0.0000000000000000e+00  0.0000000000000000e+00  0.0000000000000000e+00  0.0000000000000000e+00  0.0000000000000000e+00  0.0000000000000000e+00  0.0000000000000000e+00  0.0000000000000000e+00  0.0000000000000000e+00  0.0000000000000000e+00  0.0000000000000000e+00  0.0000000000000000e+00  0.0000000000000000e+00  0.0000000000000000e+00  1.0642485953660062e-15  2.3015172956729631e-15  3.8935391817022253e-15  6.0682694446362969e-15  9.1292814958058013e-15  1.3491813356228446e-14  1.9730089090499131e-14  2.8639962481324768e-14  4.1321860188498995e-14  5.9290092467020665e-14  8.4615830874584466e-14  1.2011237153327208e-13  1.6957261825391148e-13  2.3806989137487861e-13  3.3233399317631580e-13  4.6121466504174152e-13  6.3624380309538528e-13  8.7230562957346630e-13  1.1884199559007023e-12  1.6086371975067816e-12  2.1630344068324327e-12  2.8887888733675918e-12  3.8312895909687299e-12  5.0452272313564370e-12  6.5955807721306842e-12  8.5583947951678627e-12  1.1021217601049341e-11  1.4083049354897718e-11  1.7853634904302408e-11  2.2451931681087272e-11  2.8003593460659962e-11  3.4637339718114462e-11  4.2480131027751777e-11  5.1651144920779788e-11  6.2254642979639999e-11  7.4371934801163006e-11  8.8052770456570926e-11  1.0330661942858364e-10  1.2009440702798105e-10  1.3832136352947773e-10  1.5783168119833562e-10  1.7840565654350169e-10  1.9975991042449989e-10  2.2155112442147701e-10  2.4338351352236641e-10  2.6481998666443097e-10  2.8539664996345690e-10  3.0464001064875728e-10  3.2208597392667859e-10  3.3729952056816818e-10  3.4989383544273213e-10  3.5954764343989551e-10  3.6601960495288249e-10  3.6915882168324090e-10  3.6891078647110309e-10  3.6531845009638537e-10  3.5851843946992617e-10  3.4873280964314115e-10  3.3625701372498424e-10  3.2144500389709180e-10  3.0469251646813634e-10  2.8641963821764419e-10  2.6705370453915895e-10  2.4701345541673829e-10  2.2669519277142724e-10  2.0646146529418104e-10  1.8663257799569321e-10  1.6748100454323108e-10  1.4922858801096045e-10  1.3204626162587368e-10  1.1605591153240814e-10  1.0133393942703253e-10  8.7916060765936850e-11  7.5802887700111756e-11  6.4965886737780534e-11  5.5353360574470637e-11  4.6896173143799348e-11  3.9513009382495514e-11  3.3115030619578310e-11  2.7609848692446088e-11  2.2904794267933353e-11  1.8909496224743482e-11  1.5537819295424573e-11  1.2709227265590544e-11  1.0349650217473375e-11  8.3919381945095778e-12  6.7759819348591571e-12  5.4485755769425356e-12  4.3630879086887025e-12  3.4789990269591541e-12  2.7613491904117397e-12  2.1801370043432777e-12  1.7096955786597446e-12  1.3280686579176889e-12  1.0164047872280799e-12  7.5838753234250814e-13  5.3972534365661250e-13  3.4773823760295822e-13  1.7110203514423921e-13  0.0000000000000000e+00  0.0000000000000000e+00  2.0839612290958769e-15  4.5108178796884747e-15  7.6386072628958084e-15  1.1919184657346884e-14  1.7955519172412489e-14  2.6574159089308738e-14  3.8920568002252140e-14  5.6585661492081550e-14  8.1773793282227491e-14  1.1752473511260092e-13  1.6800480796273897e-13  2.3888514986597456e-13  3.3782796615108704e-13  4.7510421681606251e-13  6.6436813810750626e-13  9.2361470264907926e-13  1.2763448566224229e-12  1.7529592261098997e-12  2.3923929056580545e-12  3.2439907937287042e-12  4.3696036065842906e-12  5.8458582503985093e-12  7.7665221266504442e-12  1.0244839324529691e-11  1.3415668630347555e-11  1.7437201260014832e-11  2.2491984149449170e-11  2.8786928170885442e-11  3.6551947084446648e-11  4.6036861018939826e-11  5.7506217105949795e-11  7.1231738497742987e-11  8.7482218551227427e-11  1.0651083322201692e-10  1.2854005033789821e-10  1.5374456145075353e-10  1.8223293486547197e-10  2.1402896402164140e-10  2.4905393390224446e-10  2.8711121566867904e-10  3.2787469195720537e-10  3.7088248218489745e-10  4.1553725817857666e-10  4.6111410900611006e-10  5.0677644129009492e-10  5.5159981786236787e-10  5.9460299155284246e-10  6.3478474403516133e-10  6.7116456068588879e-10  7.0282472836122900e-10  7.2895119002363894e-10  7.4887046534859358e-10  7.6208016188139326e-10  7.6827104150238267e-10  7.6733923020835298e-10  7.5938790279484627e-10  7.4471856228038649e-10  7.2381278809588071e-10  6.9730597523791007e-10  6.6595507216708076e-10  6.3060261290048071e-10  5.9213941706292906e-10  5.5146821228960538e-10  5.0947014735151962e-10  4.6697575631216962e-10  4.2474145529308296e-10  3.8343215546066146e-10  3.4361010442832531e-10  3.0572965942734175e-10  2.7013737339448627e-10  2.3707655123908415e-10  2.0669530841523627e-10  1.7905712889450864e-10  1.5415295974204521e-10  1.3191397629657833e-10  1.1222428608997980e-10  9.4932992924671419e-11  7.9865199369381321e-11  6.6831674159178838e-11  5.5637042083253576e-11  4.6086462886910555e-11  3.7990850485981007e-11  3.1170744750714690e-11  2.5458987314126292e-11  2.0702373398006779e-11  1.6762457127214719e-11  1.3515681884370607e-11  1.0852993369843010e-11  8.6790741820822466e-12  6.9113174288166532e-12  5.4786351423232281e-12  4.3201767259903674e-12  3.3840146874093007e-12  2.6258408829763384e-12  2.0077080708148133e-12  1.4968511041230632e-12  1.0646331886006507e-12  6.8569077901907281e-13  3.3740428329444929e-13  0.0000000000000000e+00  0.0000000000000000e+00  3.2080368888921227e-15  6.9507482511914181e-15  1.1787045607095580e-14  1.8424991849732416e-14  2.7812575111115944e-14  4.1253611806708032e-14  6.0560865796802335e-14  8.8260096775199124e-14  1.2786203074796979e-13  1.8422318167000239e-13  2.6402098079375863e-13  3.7637363537897888e-13  5.3364025809788845e-13  7.5244162448515661e-13  1.0549457459134366e-12  1.4704643379361331e-12  2.0374049631435290e-12  2.8056175662463096e-12  3.8391614489479155e-12  5.2194974173395077e-12  7.0490778236566175e-12  9.4552627204949306e-12  1.2594432184036965e-11  1.6656092990201419e-11  2.1866693858742292e-11  2.8492771276877821e-11  3.6842954097980692e-11  4.7268269392214587e-11  6.0160127198985125e-11  7.5945333284487763e-11  9.5077503614830110e-11  1.1802434856609731e-10  1.4525047265003583e-10  1.7719560467521819e-10  2.1424853273515500e-10  2.5671745528982791e-10  3.0479794712144336e-10  3.5854023611061782e-10  4.1781794014841268e-10  4.8230076142636704e-10  5.5143381470606071e-10  6.2442622101665036e-10  7.0025128936253346e-10  7.7766002299230298e-10  8.5520884263836876e-10  9.3130137133214996e-10  1.0042429616091626e-09  1.0723054793876648e-09  1.1337988157321660e-09  1.1871448012042292e-09  1.2309487504508988e-09  1.2640638343507775e-09  1.2856438840473942e-09  1.2951810449517976e-09  1.2925258403484800e-09  1.2778885562877017e-09  1.2518222818504365e-09  1.2151892871607300e-09  1.1691135654070481e-09  1.1149232041361360e-09  1.0540867250313557e-09  9.8814762460918778e-10  9.1866108737614102e-10  8.4713628926635485e-10  7.7498694729894530e-10  7.0349189656323640e-10  6.3376658123842352e-10  5.6674551369114892e-10  5.0317504695999719e-10  4.4361526072374699e-10  3.8844939604669391e-10  3.3789908657256723e-10  2.9204360445930263e-10  2.5084143880882134e-10  2.1415271803711509e-10  1.8176124033442048e-10  1.5339515582835677e-10  1.2874562335522238e-10  1.0748302346442290e-10  8.9270533767774100e-11  7.3775055553917114e-11  6.0675619487836877e-11  4.9669494961689047e-11  4.0476286736173588e-11  3.2840329966995412e-11  2.6531697224349284e-11  2.1346115259366480e-11  1.7104061036170365e-11  1.3649271055476572e-11  1.0846859414086118e-11  8.5812016415700731e-12  6.7537056717578941e-12  5.2805604375446711e-12  4.0905285632763986e-12  3.1228349793144109e-12  2.3252016831296114e-12  1.6520961372796850e-12  1.0633061678794456e-12  5.2304171600993922e-13  0.0000000000000000e+00  0.0000000000000000e+00  4.5669066140754366e-15  9.9064971997564677e-15  1.6829006810477235e-14  2.6364950600831086e-14  3.9899689329316080e-14  5.9346450505059210e-14  8.7376040342625612e-14  1.2772447168392458e-13  1.8560499809401070e-13  2.6825742416505294e-13  3.8567498679571030e-13  5.5155736818071619e-13  7.8454710278469017e-13  1.1098150926938697e-12  1.5610680992976284e-12  2.1830554373516709e-12  3.0346516472446609e-12  4.1925841016999404e-12  5.7558562362866286e-12  7.8508849121596626e-12  1.0637320729366189e-11  1.4314449613658694e-11  1.9127980317709061e-11  2.5376904947921692e-11  3.3419980270102808e-11  4.3681222091939069e-11  5.6653643869456078e-11  7.2900319595025793e-11  9.3051731259417995e-11  1.1779829884890060e-10  1.4787701516253130e-10  1.8405124807440497e-10  2.2708305449638436e-10  2.7769778918055209e-10  3.3654138858562139e-10  4.0413144593001928e-10  4.8080402469350505e-10  5.6665901528296312e-10  6.6150763167403759e-10  7.6482626424900328e-10  8.7572124039489612e-10  9.9290899556221254e-10  1.1147156526614568e-09  1.2390990199276407e-09  1.3636945770735233e-09  1.4858852200440738e-09  1.6028925288882564e-09  1.7118853101727366e-09  1.8100993674779386e-09  1.8949610879570561e-09  1.9642066805382240e-09  2.0159888788986998e-09  2.0489636629176258e-09  2.0623509974944235e-09  2.0559655932871064e-09  2.0302160490023371e-09  1.9860731899132324e-09  1.9250107181495974e-09  1.8489232113230407e-09  1.7600278774271958e-09  1.6607571994992940e-09  1.5536496666641974e-09  1.4412452463999091e-09  1.3259912227136261e-09  1.2101626608708121e-09  1.0958002304496732e-09  9.8466658665525795e-10  8.7822111221429733e-10  7.7761165994228442e-10  6.8368106951411542e-10  5.9698568158046816e-10  5.1782282452864100e-10  4.4626426463912720e-10  3.8219283387421568e-10  3.2533981901492173e-10  2.7532115033063158e-10  2.3167091322001072e-10  1.9387117847818693e-10  1.6137757411547152e-10  1.3364038386367681e-10  1.1012124504052472e-10  9.0305730186592365e-11  7.3712237965090881e-11  5.9897698368887150e-11  4.8460626540634856e-11  3.9042050241848298e-11  3.1324799375637773e-11  2.5031591841451909e-11  1.9922286581077163e-11  1.5790608432556172e-11  1.2460585232683743e-11  9.7828791395015484e-12  7.6311442527778762e-12  5.8985040245262996e-12  4.4942180993189694e-12  3.3406043434682489e-12  2.3703065064742552e-12  1.5240653283870765e-12  7.4928344360326893e-13  0.0000000000000000e+00  0.0000000000000000e+00  6.2925511443272616e-15  1.3667652429064689e-14  2.3265054012909888e-14  3.6540539981437868e-14  5.5460232957998995e-14  8.2752046241122163e-14  1.2224136913815226e-13  1.7930308313121527e-13  2.6147028082196130e-13  3.7925018791043212e-13  5.4720972114239241e-13  7.8540660548256687e-13  1.1212564688237061e-12  1.5919408453173448e-12  2.2474739832337431e-12  3.1545554767971707e-12  4.4013378707600667e-12  6.1032294266887943e-12  8.4098271663532237e-12  1.1513028328719070e-11  1.5656293312034635e-11  2.1144924106562735e-11  2.8357074489644727e-11  3.7755019757954262e-11  4.9895986614356954e-11  6.5441586112628169e-11  8.5164620155049407e-11  1.0995176992861242e-10  1.4080045752335567e-10  1.7880804335913314e-10  2.2515153179873954e-10  2.8105615679422831e-10  3.4775165440482255e-10  4.2641573081576652e-10  5.1810520976348037e-10  6.2367656442278899e-10  7.4369893650907847e-10  8.7836420559796987e-10  1.0274000393898786e-09  1.1899929462278817e-09  1.3647289702230861e-09  1.5495596393564843e-09  1.7417999677816131e-09  1.9381636720860063e-09  2.1348383343851126e-09  2.3276001908247097e-09  2.5119648061651690e-09  2.6833664598057018e-09  2.8373560044358518e-09  2.9698046447775721e-09  3.0770998353319003e-09  3.1563195132142942e-09  3.2053722166349726e-09  3.2230931808732488e-09  3.2092899908058223e-09  3.1647354257365065e-09  3.0911093187463196e-09  2.9908951268047337e-09  2.8672400835377941e-09  2.7237900017418866e-09  2.5645108584354457e-09  2.3935092232915524e-09  2.2148625015593623e-09  2.0324680737353499e-09  1.8499180046353648e-09  1.6704033603601584e-09  1.4966495891201621e-09  1.3308821180146733e-09  1.1748194528064682e-09  1.0296897288459418e-09  8.9626586742441161e-10  7.7491420513361457e-10  6.6565160584825458e-10  5.6820653398560041e-10  4.8208025460492164e-10  4.0660512708704452e-10  3.4099778554265247e-10  2.8440578135948439e-10  2.3594695330694852e-10  1.9474136044831470e-10  1.5993605213550817e-10  1.3072326040887205e-10  1.0635279541324076e-10  8.6139521793168045e-11  6.9466813679975792e-11  5.5786848043687245e-11  4.4618519368518277e-11  3.5543658656984110e-11  2.8202129424540298e-11  2.2286262315302307e-11  1.7534985266784684e-11  1.3727912714007017e-11  1.0679578804889317e-11  8.2339393733959663e-12  6.2592298528743396e-12  4.6432584662714457e-12  3.2892479989571870e-12  2.1124357525242812e-12  1.0378334135534636e-12  0.0000000000000000e+00  0.0000000000000000e+00  8.5328823699214305e-15  1.8559959674516949e-14  3.1661473324409746e-14  4.9864921240903712e-14  7.5922143908379750e-14  1.1367020562011249e-13  1.6851599455972625e-13  2.4809256069764935e-13  3.6314808088079697e-13  5.2874425611004437e-13  7.6585992769776282e-13  1.1035174838294637e-12  1.5815734970729264e-12  2.2543396032343954e-12  3.1952226121335567e-12  4.5025907732037476e-12  6.3070811308856006e-12  8.7805545274438699e-12  1.2146871932300466e-11  1.6694598827224893e-11  2.2791632853337971e-11  3.0901583377135637e-11  4.1601501197563318e-11  5.5600257172862673e-11  7.3756501432751999e-11  9.7094710977850271e-11  1.2681737652718755e-10  1.6431092855399997e-10  2.1114261349095954e-10  2.6904527614782235e-10  3.3988696786756260e-10  4.2562257103330812e-10  5.2822529154897733e-10  6.4959698199181907e-10  7.9145783958288639e-10  9.5521803783462716e-10  1.1418361900369595e-09  1.3516720196075064e-09  1.5843429658228497e-09  1.8385963672407532e-09  2.1122100009414954e-09  2.4019337996863457e-09  2.7034842857346412e-09  3.0116005456454789e-09  3.3201664954345481e-09  3.6223990161100401e-09  3.9110957298426732e-09  4.1789303380369954e-09  4.4187782319400261e-09  4.6240511759516034e-09  4.7890178004959070e-09  4.9090867687896573e-09  4.9810318788490069e-09  5.0031428206497709e-09  4.9752913569212527e-09  4.8989096643390451e-09  4.7768846864409034e-09  4.6133788431304988e-09  4.4135926571964340e-09  4.1834883311302470e-09  3.9294948127958402e-09  3.6582144495626614e-09  3.3761491907268619e-09  3.0894608643940288e-09  2.8037758260319462e-09  2.5240397672424891e-09  2.2544241523583004e-09  1.9982819885212040e-09  1.7581476804099728e-09  1.5357736937049385e-09  1.3321956549468685e-09  1.1478172601044705e-09  9.8250679755295466e-10  8.3569802878575483e-10  7.0648942248774663e-10  5.9373713093898865e-10  4.9613848807679298e-10  4.1230408832042438e-10  3.4081760420124819e-10  2.8028338266765101e-10  2.2936251635225740e-10  1.8679852961792841e-10  1.5143407601569600e-10  1.2222014736768117e-10  9.8219280684271160e-11  7.8604151637159342e-11  6.2652792485352652e-11  4.9741493133347948e-11  3.9336255784438833e-11  3.0983490603397423e-11  2.4300471632659828e-11  1.8965925252456234e-11  1.4711002017365016e-11  1.1310790520390101e-11  8.5764742295279775e-12  6.3482181282422119e-12  4.4889179684237270e-12  2.8790798872633199e-12  1.4133702438674671e-12  0.0000000000000000e+00  0.0000000000000000e+00  1.1464097585803651e-14  2.4972756689344476e-14  4.2698559815802523e-14  6.7442031995105025e-14  1.0302386656514557e-13  1.5479906552403077e-13  2.3035153811582097e-13  3.4044052480282785e-13  5.0029009440618398e-13  7.3133779658803107e-13  1.0635885278843082e-12  1.5387545757464151e-12  2.2144017617303150e-12  3.1693627284292300e-12  4.5107184150702593e-12  6.3826824997552319e-12  8.9777436052254863e-12  1.2550416247431245e-11  1.7433910871843041e-11  2.4059940195622408e-11  3.2981715780588870e-11  4.4899937071255494e-11  6.0691218634914594e-11  8.1437928896666367e-11  1.0845782390913738e-10  1.4333116639677153e-10  1.8792225801338689e-10  2.4439154185820118e-10  3.1519374232137319e-10  4.0305701872467533e-10  5.1093796013648646e-10  6.4194759526751350e-10  7.9924458047704959e-10  9.8589347455051074e-10  1.2046885610735558e-09  1.4579469923703087e-09  1.7472789351960564e-09  2.0733465926938534e-09  2.4356280219094253e-09  2.8322050203900200e-09  3.2595964309377546e-09  3.7126584556019804e-09  4.1845715525329791e-09  4.6669290115143436e-09  5.1499354683164331e-09  5.6227148716039486e-09  6.0737175399267827e-09  6.4912059848482444e-09  6.8637903120827774e-09  7.1809774015199189e-09  7.4336946609015812e-09  7.6147495356777427e-09  7.7191902566830384e-09  7.7445411274862524e-09  7.6908961421251132e-09  7.5608666876578643e-09  7.3593911640786907e-09  7.0934252164547128e-09  6.7715398049814222e-09  6.4034597776028926e-09  5.9995776281491897e-09  5.5704758283949720e-09  5.1264869991827658e-09  4.6773149863676828e-09  4.2317325207290372e-09  3.7973634603033196e-09  3.3805504246045804e-09  2.9863025336014867e-09  2.6183133371938028e-09  2.2790360153202191e-09  1.9698014998614332e-09  1.6909651225141482e-09  1.4420684385402608e-09  1.2220046846201887e-09  1.0291785744367824e-09  8.6165353048245963e-10  7.1728176538524152e-10  5.9381469739620830e-10  4.8899291374074908e-10  4.0061623982328306e-10  3.2659543376103908e-10  2.6498763778712210e-10  2.1401803314985809e-10  1.7209022427531871e-10  1.3778778272203199e-10  1.0986916840549138e-10  8.7257962991563867e-11  6.9030036847989906e-11  5.4398955388362879e-11  4.2700633159323383e-11  3.3377977495039001e-11  2.5966035547022156e-11  2.0077973353084826e-11  1.5392076908411995e-11  1.1639878567003223e-11  8.5954888363946592e-12  6.0662757103997341e-12  3.8852209951813737e-12  1.9056636024994565e-12  0.0000000000000000e+00  0.0000000000000000e+00  1.5302445274367192e-14  3.3385299446560783e-14  5.7217495642772800e-14  9.0644469515160568e-14  1.3894031188856700e-13  2.0953626648507568e-13  3.1301104160203631e-13  4.6444845451595188e-13  6.8529845439986317e-13  1.0059160857039328e-12  1.4689999922481485e-12  2.1342076086901583e-12  3.0842872636254229e-12  4.4331355535049542e-12  6.3362569092159368e-12  9.0041637231891207e-12  1.2719298477788998e-11  1.7857068324563262e-11  2.4911536913952091e-11  3.4526192502370653e-11  4.7529975994298866e-11  6