<?xml version="1.0"?>
<VTKFile type="UnstructuredGrid"  version="0.1"  >
<UnstructuredGrid>
<Piece  NumberOfPoints="10201" NumberOfCells="20000">
<Points>
<DataArray  type="Float64"  NumberOfComponents="3"  format="ascii">0 0 0  0.01 0 0  0.02 0 0  0.03 0 0  0.04 0 0  0.05 0 0  0.06 0 0  0.07000000000000001 0 0  0.08 0 0  0.09 0 0  0.1 0 0  0.11 0 0  0.12 0 0  0.13 0 0  0.14 0 0  0.15 0 0  0.16 0 0  0.17 0 0  0.18 0 0  0.19 0 0  0.2 0 0  0.21 0 0  0.22 0 0  0.23 0 0  0.24 0 0  0.25 0 0  0.26 0 0  0.27 0 0  0.28 0 0  0.29 0 0  0.3 0 0  0.31 0 0  0.32 0 0  0.33 0 0  0.34 0 0  0.35 0 0  0.36 0 0  0.37 0 0  0.38 0 0  0.39 0 0  0.4 0 0  0.41 0 0  0.42 0 0  0.43 0 0  0.44 0 0  0.45 0 0  0.46 0 0  0.47 0 0  0.48 0 0  0.49 0 0  0.5 0 0  0.51 0 0  0.52 0 0  0.53 0 0  0.54 0 0  0.55 0 0  0.5600000000000001 0 0  0.57 0 0  0.58 0 0  0.59 0 0  0.6 0 0  0.61 0 0  0.62 0 0  0.63 0 0  0.64 0 0  0.65 0 0  0.66 0 0  0.67 0 0  0.68 0 0  0.6899999999999999 0 0  0.7 0 0  0.71 0 0  0.72 0 0  0.73 0 0  0.74 0 0  0.75 0 0  0.76 0 0  0.77 0 0  0.78 0 0  0.79 0 0  0.8 0 0  0.8100000000000001 0 0  0.82 0 0  0.83 0 0  0.84 0 0  0.85 0 0  0.86 0 0  0.87 0 0  0.88 0 0  0.89 0 0  0.9 0 0  0.91 0 0  0.92 0 0  0.93 0 0  0.9399999999999999 0 0  0.95 0 0  0.96 0 0  0.97 0 0  0.98 0 0  0.99 0 0  1 0 0  0 0.01 0  0.01 0.01 0  0.02 0.01 0  0.03 0.01 0  0.04 0.01 0  0.05 0.01 0  0.06 0.01 0  0.07000000000000001 0.01 0  0.08 0.01 0  0.09 0.01 0  0.1 0.01 0  0.11 0.01 0  0.12 0.01 0  0.13 0.01 0  0.14 0.01 0  0.15 0.01 0  0.16 0.01 0  0.17 0.01 0  0.18 0.01 0  0.19 0.01 0  0.2 0.01 0  0.21 0.01 0  0.22 0.01 0  0.23 0.01 0  0.24 0.01 0  0.25 0.01 0  0.26 0.01 0  0.27 0.01 0  0.28 0.01 0  0.29 0.01 0  0.3 0.01 0  0.31 0.01 0  0.32 0.01 0  0.33 0.01 0  0.34 0.01 0  0.35 0.01 0  0.36 0.01 0  0.37 0.01 0  0.38 0.01 0  0.39 0.01 0  0.4 0.01 0  0.41 0.01 0  0.42 0.01 0  0.43 0.01 0  0.44 0.01 0  0.45 0.01 0  0.46 0.01 0  0.47 0.01 0  0.48 0.01 0  0.49 0.01 0  0.5 0.01 0  0.51 0.01 0  0.52 0.01 0  0.53 0.01 0  0.54 0.01 0  0.55 0.01 0  0.5600000000000001 0.01 0  0.57 0.01 0  0.58 0.01 0  0.59 0.01 0  0.6 0.01 0  0.61 0.01 0  0.62 0.01 0  0.63 0.01 0  0.64 0.01 0  0.65 0.01 0  0.66 0.01 0  0.67 0.01 0  0.68 0.01 0  0.6899999999999999 0.01 0  0.7 0.01 0  0.71 0.01 0  0.72 0.01 0  0.73 0.01 0  0.74 0.01 0  0.75 0.01 0  0.76 0.01 0  0.77 0.01 0  0.78 0.01 0  0.79 0.01 0  0.8 0.01 0  0.8100000000000001 0.01 0  0.82 0.01 0  0.83 0.01 0  0.84 0.01 0  0.85 0.01 0  0.86 0.01 0  0.87 0.01 0  0.88 0.01 0  0.89 0.01 0  0.9 0.01 0  0.91 0.01 0  0.92 0.01 0  0.93 0.01 0  0.9399999999999999 0.01 0  0.95 0.01 0  0.96 0.01 0  0.97 0.01 0  0.98 0.01 0  0.99 0.01 0  1 0.01 0  0 0.02 0  0.01 0.02 0  0.02 0.02 0  0.03 0.02 0  0.04 0.02 0  0.05 0.02 0  0.06 0.02 0  0.07000000000000001 0.02 0  0.08 0.02 0  0.09 0.02 0  0.1 0.02 0  0.11 0.02 0  0.12 0.02 0  0.13 0.02 0  0.14 0.02 0  0.15 0.02 0  0.16 0.02 0  0.17 0.02 0  0.18 0.02 0  0.19 0.02 0  0.2 0.02 0  0.21 0.02 0  0.22 0.02 0  0.23 0.02 0  0.24 0.02 0  0.25 0.02 0  0.26 0.02 0  0.27 0.02 0  0.28 0.02 0  0.29 0.02 0  0.3 0.02 0  0.31 0.02 0  0.32 0.02 0  0.33 0.02 0  0.34 0.02 0  0.35 0.02 0  0.36 0.02 0  0.37 0.02 0  0.38 0.02 0  0.39 0.02 0  0.4 0.02 0  0.41 0.02 0  0.42 0.02 0  0.43 0.02 0  0.44 0.02 0  0.45 0.02 0  0.46 0.02 0  0.47 0.02 0  0.48 0.02 0  0.49 0.02 0  0.5 0.02 0  0.51 0.02 0  0.52 0.02 0  0.53 0.02 0  0.54 0.02 0  0.55 0.02 0  0.5600000000000001 0.02 0  0.57 0.02 0  0.58 0.02 0  0.59 0.02 0  0.6 0.02 0  0.61 0.02 0  0.62 0.02 0  0.63 0.02 0  0.64 0.02 0  0.65 0.02 0  0.66 0.02 0  0.67 0.02 0  0.68 0.02 0  0.6899999999999999 0.02 0  0.7 0.02 0  0.71 0.02 0  0.72 0.02 0  0.73 0.02 0  0.74 0.02 0  0.75 0.02 0  0.76 0.02 0  0.77 0.02 0  0.78 0.02 0  0.79 0.02 0  0.8 0.02 0  0.8100000000000001 0.02 0  0.82 0.02 0  0.83 0.02 0  0.84 0.02 0  0.85 0.02 0  0.86 0.02 0  0.87 0.02 0  0.88 0.02 0  0.89 0.02 0  0.9 0.02 0  0.91 0.02 0  0.92 0.02 0  0.93 0.02 0  0.9399999999999999 0.02 0  0.95 0.02 0  0.96 0.02 0  0.97 0.02 0  0.98 0.02 0  0.99 0.02 0  1 0.02 0  0 0.03 0  0.01 0.03 0  0.02 0.03 0  0.03 0.03 0  0.04 0.03 0  0.05 0.03 0  0.06 0.03 0  0.07000000000000001 0.03 0  0.08 0.03 0  0.09 0.03 0  0.1 0.03 0  0.11 0.03 0  0.12 0.03 0  0.13 0.03 0  0.14 0.03 0  0.15 0.03 0  0.16 0.03 0  0.17 0.03 0  0.18 0.03 0  0.19 0.03 0  0.2 0.03 0  0.21 0.03 0  0.22 0.03 0  0.23 0.03 0  0.24 0.03 0  0.25 0.03 0  0.26 0.03 0  0.27 0.03 0  0.28 0.03 0  0.29 0.03 0  0.3 0.03 0  0.31 0.03 0  0.32 0.03 0  0.33 0.03 0  0.34 0.03 0  0.35 0.03 0  0.36 0.03 0  0.37 0.03 0  0.38 0.03 0  0.39 0.03 0  0.4 0.03 0  0.41 0.03 0  0.42 0.03 0  0.43 0.03 0  0.44 0.03 0  0.45 0.03 0  0.46 0.03 0  0.47 0.03 0  0.48 0.03 0  0.49 0.03 0  0.5 0.03 0  0.51 0.03 0  0.52 0.03 0  0.53 0.03 0  0.54 0.03 0  0.55 0.03 0  0.5600000000000001 0.03 0  0.57 0.03 0  0.58 0.03 0  0.59 0.03 0  0.6 0.03 0  0.61 0.03 0  0.62 0.03 0  0.63 0.03 0  0.64 0.03 0  0.65 0.03 0  0.66 0.03 0  0.67 0.03 0  0.68 0.03 0  0.6899999999999999 0.03 0  0.7 0.03 0  0.71 0.03 0  0.72 0.03 0  0.73 0.03 0  0.74 0.03 0  0.75 0.03 0  0.76 0.03 0  0.77 0.03 0  0.78 0.03 0  0.79 0.03 0  0.8 0.03 0  0.8100000000000001 0.03 0  0.82 0.03 0  0.83 0.03 0  0.84 0.03 0  0.85 0.03 0  0.86 0.03 0  0.87 0.03 0  0.88 0.03 0  0.89 0.03 0  0.9 0.03 0  0.91 0.03 0  0.92 0.03 0  0.93 0.03 0  0.9399999999999999 0.03 0  0.95 0.03 0  0.96 0.03 0  0.97 0.03 0  0.98 0.03 0  0.99 0.03 0  1 0.03 0  0 0.04 0  0.01 0.04 0  0.02 0.04 0  0.03 0.04 0  0.04 0.04 0  0.05 0.04 0  0.06 0.04 0  0.07000000000000001 0.04 0  0.08 0.04 0  0.09 0.04 0  0.1 0.04 0  0.11 0.04 0  0.12 0.04 0  0.13 0.04 0  0.14 0.04 0  0.15 0.04 0  0.16 0.04 0  0.17 0.04 0  0.18 0.04 0  0.19 0.04 0  0.2 0.04 0  0.21 0.04 0  0.22 0.04 0  0.23 0.04 0  0.24 0.04 0  0.25 0.04 0  0.26 0.04 0  0.27 0.04 0  0.28 0.04 0  0.29 0.04 0  0.3 0.04 0  0.31 0.04 0  0.32 0.04 0  0.33 0.04 0  0.34 0.04 0  0.35 0.04 0  0.36 0.04 0  0.37 0.04 0  0.38 0.04 0  0.39 0.04 0  0.4 0.04 0  0.41 0.04 0  0.42 0.04 0  0.43 0.04 0  0.44 0.04 0  0.45 0.04 0  0.46 0.04 0  0.47 0.04 0  0.48 0.04 0  0.49 0.04 0  0.5 0.04 0  0.51 0.04 0  0.52 0.04 0  0.53 0.04 0  0.54 0.04 0  0.55 0.04 0  0.5600000000000001 0.04 0  0.57 0.04 0  0.58 0.04 0  0.59 0.04 0  0.6 0.04 0  0.61 0.04 0  0.62 0.04 0  0.63 0.04 0  0.64 0.04 0  0.65 0.04 0  0.66 0.04 0  0.67 0.04 0  0.68 0.04 0  0.6899999999999999 0.04 0  0.7 0.04 0  0.71 0.04 0  0.72 0.04 0  0.73 0.04 0  0.74 0.04 0  0.75 0.04 0  0.76 0.04 0  0.77 0.04 0  0.78 0.04 0  0.79 0.04 0  0.8 0.04 0  0.8100000000000001 0.04 0  0.82 0.04 0  0.83 0.04 0  0.84 0.04 0  0.85 0.04 0  0.86 0.04 0  0.87 0.04 0  0.88 0.04 0  0.89 0.04 0  0.9 0.04 0  0.91 0.04 0  0.92 0.04 0  0.93 0.04 0  0.9399999999999999 0.04 0  0.95 0.04 0  0.96 0.04 0  0.97 0.04 0  0.98 0.04 0  0.99 0.04 0  1 0.04 0  0 0.05 0  0.01 0.05 0  0.02 0.05 0  0.03 0.05 0  0.04 0.05 0  0.05 0.05 0  0.06 0.05 0  0.07000000000000001 0.05 0  0.08 0.05 0  0.09 0.05 0  0.1 0.05 0  0.11 0.05 0  0.12 0.05 0  0.13 0.05 0  0.14 0.05 0  0.15 0.05 0  0.16 0.05 0  0.17 0.05 0  0.18 0.05 0  0.19 0.05 0  0.2 0.05 0  0.21 0.05 0  0.22 0.05 0  0.23 0.05 0  0.24 0.05 0  0.25 0.05 0  0.26 0.05 0  0.27 0.05 0  0.28 0.05 0  0.29 0.05 0  0.3 0.05 0  0.31 0.05 0  0.32 0.05 0  0.33 0.05 0  0.34 0.05 0  0.35 0.05 0  0.36 0.05 0  0.37 0.05 0  0.38 0.05 0  0.39 0.05 0  0.4 0.05 0  0.41 0.05 0  0.42 0.05 0  0.43 0.05 0  0.44 0.05 0  0.45 0.05 0  0.46 0.05 0  0.47 0.05 0  0.48 0.05 0  0.49 0.05 0  0.5 0.05 0  0.51 0.05 0  0.52 0.05 0  0.53 0.05 0  0.54 0.05 0  0.55 0.05 0  0.5600000000000001 0.05 0  0.57 0.05 0  0.58 0.05 0  0.59 0.05 0  0.6 0.05 0  0.61 0.05 0  0.62 0.05 0  0.63 0.05 0  0.64 0.05 0  0.65 0.05 0  0.66 0.05 0  0.67 0.05 0  0.68 0.05 0  0.6899999999999999 0.05 0  0.7 0.05 0  0.71 0.05 0  0.72 0.05 0  0.73 0.05 0  0.74 0.05 0  0.75 0.05 0  0.76 0.05 0  0.77 0.05 0  0.78 0.05 0  0.79 0.05 0  0.8 0.05 0  0.8100000000000001 0.05 0  0.82 0.05 0  0.83 0.05 0  0.84 0.05 0  0.85 0.05 0  0.86 0.05 0  0.87 0.05 0  0.88 0.05 0  0.89 0.05 0  0.9 0.05 0  0.91 0.05 0  0.92 0.05 0  0.93 0.05 0  0.9399999999999999 0.05 0  0.95 0.05 0  0.96 0.05 0  0.97 0.05 0  0.98 0.05 0  0.99 0.05 0  1 0.05 0  0 0.06 0  0.01 0.06 0  0.02 0.06 0  0.03 0.06 0  0.04 0.06 0  0.05 0.06 0  0.06 0.06 0  0.07000000000000001 0.06 0  0.08 0.06 0  0.09 0.06 0  0.1 0.06 0  0.11 0.06 0  0.12 0.06 0  0.13 0.06 0  0.14 0.06 0  0.15 0.06 0  0.16 0.06 0  0.17 0.06 0  0.18 0.06 0  0.19 0.06 0  0.2 0.06 0  0.21 0.06 0  0.22 0.06 0  0.23 0.06 0  0.24 0.06 0  0.25 0.06 0  0.26 0.06 0  0.27 0.06 0  0.28 0.06 0  0.29 0.06 0  0.3 0.06 0  0.31 0.06 0  0.32 0.06 0  0.33 0.06 0  0.34 0.06 0  0.35 0.06 0  0.36 0.06 0  0.37 0.06 0  0.38 0.06 0  0.39 0.06 0  0.4 0.06 0  0.41 0.06 0  0.42 0.06 0  0.43 0.06 0  0.44 0.06 0  0.45 0.06 0  0.46 0.06 0  0.47 0.06 0  0.48 0.06 0  0.49 0.06 0  0.5 0.06 0  0.51 0.06 0  0.52 0.06 0  0.53 0.06 0  0.54 0.06 0  0.55 0.06 0  0.5600000000000001 0.06 0  0.57 0.06 0  0.58 0.06 0  0.59 0.06 0  0.6 0.06 0  0.61 0.06 0  0.62 0.06 0  0.63 0.06 0  0.64 0.06 0  0.65 0.06 0  0.66 0.06 0  0.67 0.06 0  0.68 0.06 0  0.6899999999999999 0.06 0  0.7 0.06 0  0.71 0.06 0  0.72 0.06 0  0.73 0.06 0  0.74 0.06 0  0.75 0.06 0  0.76 0.06 0  0.77 0.06 0  0.78 0.06 0  0.79 0.06 0  0.8 0.06 0  0.8100000000000001 0.06 0  0.82 0.06 0  0.83 0.06 0  0.84 0.06 0  0.85 0.06 0  0.86 0.06 0  0.87 0.06 0  0.88 0.06 0  0.89 0.06 0  0.9 0.06 0  0.91 0.06 0  0.92 0.06 0  0.93 0.06 0  0.9399999999999999 0.06 0  0.95 0.06 0  0.96 0.06 0  0.97 0.06 0  0.98 0.06 0  0.99 0.06 0  1 0.06 0  0 0.07000000000000001 0  0.01 0.07000000000000001 0  0.02 0.07000000000000001 0  0.03 0.07000000000000001 0  0.04 0.07000000000000001 0  0.05 0.07000000000000001 0  0.06 0.07000000000000001 0  0.07000000000000001 0.07000000000000001 0  0.08 0.07000000000000001 0  0.09 0.07000000000000001 0  0.1 0.07000000000000001 0  0.11 0.07000000000000001 0  0.12 0.07000000000000001 0  0.13 0.07000000000000001 0  0.14 0.07000000000000001 0  0.15 0.07000000000000001 0  0.16 0.07000000000000001 0  0.17 0.0700
[...]
<PointData  Scalars="u"> 
<DataArray  type="Float64"  Name="u"  format="ascii">0.0000000000000000e+00  0.0000000000000000e+00  0.0000000000000000e+00  0.0000000000000000e+00  0.0000000000000000e+00  0.0000000000000000e+00  0.0000000000000000e+00  0.0000000000000000e+00  0.0000000000000000e+00  0.0000000000000000e+00  0.0000000000000000e+00  0.0000000000000000e+00  0.0000000000000000e+00  0.0000000000000000e+00  0.0000000000000000e+00  0.0000000000000000e+00  0.0000000000000000e+00  0.0000000000000000e+00  0.0000000000000000e+00  0.0000000000000000e+00  0.0000000000000000e+00  0.0000000000000000e+00  0.0000000000000000e+00  0.0000000000000000e+00  0.0000000000000000e+00  0.0000000000000000e+00  0.0000000000000000e+00  0.0000000000000000e+00  0.0000000000000000e+00  0.0000000000000000e+00  0.0000000000000000e+00  0.0000000000000000e+00  0.0000000000000000e+00  0.0000000000000000e+00  0.0000000000000000e+00  0.0000000000000000e+00  0.0000000000000000e+00  0.0000000000000000e+00  0.0000000000000000e+00  0.0000000000000000e+00  0.0000000000000000e+00  0.0000000000000000e+00  0.0000000000000000e+00  0.0000000000000000e+00  0.0000000000000000e+00  0.0000000000000000e+00  0.0000000000000000e+00  0.0000000000000000e+00  0.0000000000000000e+00  0.0000000000000000e+00  0.0000000000000000e+00  0.0000000000000000e+00  0.0000000000000000e+00  0.0000000000000000e+00  0.0000000000000000e+00  0.0000000000000000e+00  0.0000000000000000e+00  0.0000000000000000e+00  0.0000000000000000e+00  0.0000000000000000e+00  0.0000000000000000e+00  0.0000000000000000e+00  0.0000000000000000e+00  0.0000000000000000e+00  0.0000000000000000e+00  0.0000000000000000e+00  0.0000000000000000e+00  0.0000000000000000e+00  0.0000000000000000e+00  0.0000000000000000e+00  0.0000000000000000e+00  0.0000000000000000e+00  0.0000000000000000e+00  0.0000000000000000e+00  0.0000000000000000e+00  0.0000000000000000e+00  0.0000000000000000e+00  0.0000000000000000e+00  0.0000000000000000e+00  0.0000000000000000e+00  0.0000000000000000e+00  0.0000000000000000e+00  0.0000000000000000e+00  0.0000000000000000e+00  0.0000000000000000e+00  0.0000000000000000e+00  0.0000000000000000e+00  0.0000000000000000e+00  0.0000000000000000e+00  0.0000000000000000e+00  0.0000000000000000e+00  0.0000000000000000e+00  0.0000000000000000e+00  0.0000000000000000e+00  0.0000000000000000e+00  0.0000000000000000e+00  0.0000000000000000e+00  0.0000000000000000e+00  0.0000000000000000e+00  0.0000000000000000e+00  0.0000000000000000e+00  0.0000000000000000e+00  8.6309799338925581e-10  1.8937112297578139e-09  3.1267785823107734e-09  4.6036606624411889e-09  6.3736006120196479e-09  8.4950532989374052e-09  1.1037204200900600e-08  1.4081695234414433e-08  1.7724575744992888e-08  2.2078496439448264e-08  2.7275162744164237e-08  3.3468061897944050e-08  4.0835474889852157e-08  4.9583779961611777e-08  5.9951048636472687e-08  7.2210927944240391e-08  8.6676793534755358e-08  1.0370614758895141e-07  1.2370522277229107e-07  1.4713373891684453e-07  1.7450974273378277e-07  2.0641444281682428e-07  2.4349693278899686e-07  2.8647867509811333e-07  3.3615759726159340e-07  3.9341163204129256e-07  4.5920151399895939e-07  5.3457262820123836e-07  6.2065569369951787e-07  7.1866605608944171e-07  8.2990136128621767e-07  9.5573738794026015e-07  1.0976218298637834e-06  1.2570658434460675e-06  1.4356332090102302e-06  1.6349269997186725e-06  1.8565737067916828e-06  2.1022048347254553e-06  2.3734360535321237e-06  2.6718440747999222e-06  2.9989415020132698e-06  3.3561499899836690e-06  3.7447721299237027e-06  4.1659625519119138e-06  4.6206988014724562e-06  5.1097525981432680e-06  5.6336621180599970e-06  6.1927059572050204e-06  6.7868794253487552e-06  7.4158737920954320e-06  8.0790590561267102e-06  8.7754707380508648e-06  9.5038011085256387e-06  1.0262395159683410e-05  1.1049251513141435e-05  1.1862028336221132e-05  1.2698054213752681e-05  1.3554343800187510e-05  1.4427617959466907e-05  1.5314327991365434e-05  1.6210683445209649e-05  1.7112682936410584e-05  1.8016147308601455e-05  1.8916754423792948e-05  1.9810074813332489e-05  2.0691607381159516e-05  2.1556814314647879e-05  2.2401154323262974e-05  2.3220113286747612e-05  2.4009231347459344e-05  2.4764125420189217e-05  2.5480506011221077e-05  2.6154187130009399e-05  2.6781087934652774e-05  2.7357224568792113e-05  2.7878690414560232e-05  2.8341622695003737e-05  2.8742153000548039e-05  2.9076338877413836e-05  2.9340073090534490e-05  2.9528966547942112e-05  2.9638200135774920e-05  2.9662339850784801e-05  2.9595108618477758e-05  2.9429107038601614e-05  2.9155473996074010e-05  2.8763476607865454e-05  2.8240017342348092e-05  2.7569044350870293e-05  2.6730849104076201e-05  2.5701233351549350e-05  2.4450525261733995e-05  2.2942422408447164e-05  2.1132637134044153e-05  1.8967317849896180e-05  1.6381218167229438e-05  1.3295584454927328e-05  9.6157308001131264e-06  5.2282636158369213e-06  0.0000000000000000e+00  0.0000000000000000e+00  1.8140761019563667e-09  3.9806592901402015e-09  6.5729357760363028e-09  9.6779464587950700e-09  1.3399325577580295e-08  1.7860108202135602e-08  2.3205933905816396e-08  2.9608686793029134e-08  3.7270611186955089e-08  4.6428940825462981e-08  5.7361076617960991e-08  7.0390343434996401e-08  8.5892349666963081e-08  1.0430196402622723e-07  1.2612091190447252e-07  1.5192597817434607e-07  1.8237778431774080e-07  2.1823008491167313e-07  2.6033950164149908e-07  3.0967558210731274e-07  3.6733103588279080e-07  4.3453196193187392e-07  5.1264784020042629e-07  6.0320101688675359e-07  7.0787536879356954e-07  8.2852378885918892e-07  9.6717409439185488e-07  1.1260329239533265e-06  1.3074871608055889e-06  1.5141024031042452e-06  1.7486179964459863e-06  2.0139381557595649e-06  2.3131187334492447e-06  2.6493492413120042e-06  3.0259298065703365e-06  3.4462428380518912e-06  3.9137192967121184e-06  4.4317996037268890e-06  5.0038893763468262e-06  5.6333103523206589e-06  6.3232470423878183e-06  7.0766898304121833e-06  7.8963754146199827e-06  8.7847256430599825e-06  9.7437859337065935e-06  1.0775164576890703e-05  1.1879974288210342e-05  1.3058777408388160e-05  1.4311536129156499e-05  1.5637569059715046e-05  1.7035515337433255e-05  1.8503307332332285e-05  2.0038152802650816e-05  2.1636527135431650e-05  2.3294176059861152e-05  2.5006128961158983e-05  2.6766722658480180e-05  2.8569635250520291e-05  3.0407929385350043e-05  3.2274104083110535e-05  3.4160154036464903e-05  3.6057635137021824e-05  3.7957734827076875e-05  3.9851345753569013e-05  4.1729141101682035e-05  4.3581649903684642e-05  4.5399330547358118e-05  4.7172640639183414e-05  4.8892101300548169e-05  5.0548353879686674e-05  5.2132206935998341e-05  5.3634671183992135e-05  5.5046979857666524e-05  5.6360591657952424e-05  5.7567173060167975e-05  5.8658556268279974e-05  5.9626668489831939e-05  6.0463427449896890e-05  6.1160597143027588e-05  6.1709596716062008e-05  6.2101254057565710e-05  6.2325494116384172e-05  6.2370950156458003e-05  6.2224484052351349e-05  6.1870599316151843e-05  6.1290727801235014e-05  6.0462367937369969e-05  5.9358048909190442e-05  5.7944091403458796e-05  5.6179131444988241e-05  5.4012369465909659e-05  5.1381502189382880e-05  4.8210290279375136e-05  4.4405710188108096e-05  3.9854634464950950e-05  3.4419981308253159e-05  2.7936271849444904e-05  2.0204533847719681e-05  1.0986504008067709e-05  0.0000000000000000e+00  0.0000000000000000e+00  2.8638988399874804e-09  6.2845943040992154e-09  1.0377660013304351e-08  1.5280736819081589e-08  2.1157742639179596e-08  2.8203323149718495e-08  3.6647935013714404e-08  4.6763623851858226e-08  5.8870559656340632e-08  7.3344390347278026e-08  9.0624469824929026e-08  1.1122300965719659e-07  1.3573519288374476e-07  1.6485027371460618e-07  1.9936366754581545e-07  2.4019001112140144e-07  2.8837714230975577e-07  3.4512091240237123e-07  4.1178070080551446e-07  4.8989545241391989e-07  5.8120000204158799e-07  6.8764138859786528e-07  8.1139479521459267e-07  9.5487868171177896e-07  1.1207686046295585e-06  1.3120091501166699e-06  1.5318233393885969e-06  1.7837188089355081e-06  2.0714900223252662e-06  2.3992157418091922e-06  2.7712509806600874e-06  3.1922126758411516e-06  3.6669583694431891e-06  4.2005572698625040e-06  4.7982531823953222e-06  5.4654189548574355e-06  6.2075022763172745e-06  7.0299628933627541e-06  7.9382015636237029e-06  8.9374813434275333e-06  1.0032842096234205e-05  1.1229009399790015e-05  1.2530299310277052e-05  1.3940520697854275e-05  1.5462877086580419e-05  1.7099870100252370e-05  1.8853206723268244e-05  2.0723712623716050e-05  2.2711253749033619e-05  2.4814668290859388e-05  2.7031710926927434e-05  2.9359010989633260e-05  3.1792045892199949e-05  3.4325130776083763e-05  3.6951424941339284e-05  3.9662955200280513e-05  4.2450655869283880e-05  4.5304424698577743e-05  4.8213193648266978e-05  5.1165013061150694e-05  5.4147147466600605e-05  5.7146180979030662e-05  6.0148130029928089e-05  6.3138560991191940e-05  6.6102710103497771e-05  6.9025603007458037e-05  7.1892171075729994e-05  7.4687361646944798e-05  7.7396239151495579e-05  8.0004073977326586e-05  8.2496415731966909e-05  8.4859147294893766e-05  8.7078515700255660e-05  8.9141135420990088e-05  9.1033959016696589e-05  9.2744209332706271e-05  9.4259266467903142e-05  9.5566501532975563e-05  9.6653047765379797e-05  9.7505497816417126e-05  9.8109513941210680e-05  9.8449335364036135e-05  9.8507164218534140e-05  9.8262408134447058e-05  9.7690753721788644e-05  9.6763040857163635e-05  9.5443902781656412e-05  9.3690131565512451e-05  9.1448722492036544e-05  8.8654544400039529e-05  8.5227576076886622e-05  8.1069641538832765e-05  7.6060569662688590e-05  7.0053696416795449e-05  6.2870621259951455e-05  5.4295123655426537e-05  4.4066141808822702e-05  3.1869714661021255e-05  1.7329792059531006e-05  0.0000000000000000e+00  0.0000000000000000e+00  4.0245838323042436e-09  8.8319716187835480e-09  1.4584813841045172e-08  2.1476979163208668e-08  2.9739414817974882e-08  3.9646442126133018e-08  5.1522950179952336e-08  6.5752576986056839e-08  8.2786967860217238e-08  1.0315619825801181e-07  1.2748044224478126e-07  1.5648295771895676e-07  1.9100444448448747e-07  2.3201881045220678e-07  2.8065035375256339e-07  3.3819233350390904e-07  4.0612685861800454e-07  4.8614597169367614e-07  5.8017374332247625e-07  6.9038912088245736e-07  8.1924919540490523e-07  9.6951246114622159e-07  1.1442615464745350e-06  1.3469247936857361e-06  1.5812959622815620e-06  1.8515512287986173e-06  2.1622625610510783e-06  2.5184064610334277e-06  2.9253670048216983e-06  3.3889320662333338e-06  3.9152816006321421e-06  4.5109668928714269e-06  5.1828797451970153e-06  5.9382107021922776e-06  6.7843955841799859e-06  7.7290498294301871e-06  8.7798904279783092e-06  9.9446455617350180e-06  1.1230952439489313e-05  1.2646244220648337e-05  1.4197627344225995e-05  1.5891751003062151e-05  1.7734670908861043e-05  1.9731709861635057e-05  2.1887317947825832e-05  2.4204935426351640e-05  2.6686861505270308e-05  2.9334132251571864e-05  3.2146410805472451e-05  3.5121892886518911e-05  3.8257230285575328e-05  4.1547474643678853e-05  4.4986043340188249e-05  4.8564708767103694e-05  5.2273611675302158e-05  5.6101298664587958e-05  6.0034783275737824e-05  6.4059629550482089e-05  6.8160056373141315e-05  7.2319060410093862e-05  7.6518555030393920e-05  8.0739522227610914e-05  8.4962174269023302e-05  8.9166121568304204e-05  9.3330543101748784e-05  9.7434355551712410e-05  1.0145637724650067e-04  1.0537548285276252e-04  1.0917074464134884e-04  1.1282155596545088e-04  1.1630773233372546e-04  1.1960958510250026e-04  1.2270796231979148e-04  1.2558425059760713e-04  1.2822033103352634e-04  1.3059848111087843e-04  1.3270121313910984e-04  1.3451103810886868e-04  1.3601014178316224e-04  1.3717995737626864e-04  1.3800061623219051e-04  1.3845025444796799e-04  1.3850414933631392e-04  1.3813365492943593e-04  1.3730490033747429e-04  1.3597720864364667e-04  1.3410118710923760e-04  1.3161643175927062e-04  1.2844878093621427e-04  1.2450704319533714e-04  1.1967911507489417e-04  1.1382739398020558e-04  1.0678338093583500e-04  9.8341357662106975e-05  8.8251012842423298e-05  7.6208884263123241e-05  6.1848477616509935e-05  4.4728920144450376e-05  2.4322012221609021e-05  0.0000000000000000e+00  0.0000000000000000e+00  5.3096436046929155e-09  1.1652525562169756e-08  1.9243710747034968e-08  2.8339719139531354e-08  3.9246243525576394e-08  5.2326525239725564e-08  6.8010930510751242e-08  8.6807848256693358e-08  1.0931603089625974e-07  1.3623849650923552e-07  1.6839810296632853e-07  2.0675489142056340e-07  2.5242527668023681e-07  3.0670313427284027e-07  3.7108279723783567e-07  4.4728392865725323e-07  5.3727817754589384e-07  6.4331745505939697e-07  7.6796358440873102e-07  9.1411898117429491e-07  1.0850579112195947e-06  1.2844577521346835e-06  1.5164295529563216e-06  1.7855470486602674e-06  2.0968731445467892e-06  2.4559827462708229e-06  2.8689806802370614e-06  3.3425133338788697e-06  3.8837725544718560e-06  4.5004902878602470e-06  5.2009224244402975e-06  5.9938203584736537e-06  6.8883888670799094e-06  7.8942290844131359e-06  9.0212655896668317e-06  1.0279656946770185e-05  1.1679689427298216e-05  1.3231654110261938e-05  1.4945708072415024e-05  1.6831720945077365e-05  1.8899108698280401e-05  2.1156657096474843e-05  2.3612337825482239e-05  2.6273120789780387e-05  2.9144786494815832e-05  3.2231742735167352e-05  3.5536849984320572e-05  3.9061259909480647e-05  4.2804271306172724e-05  4.6763207461210421e-05  5.0933318516026409e-05  5.5307711830402800e-05  5.9877312661370687e-05  6.4630856701126566e-05  6.9554915192579495e-05  7.4633952494515811e-05  7.9850415132621383e-05  8.5184850577281165e-05  9.0616053259179904e-05  9.6121234688294701e-05  1.0167621399301717e-04  1.0725562474863704e-04  1.1283313361566509e-04  1.1838166604894178e-04  1.2387363415238318e-04  1.2928116162042060e-04  1.3457630060012329e-04  1.3973123519857422e-04  1.4471846621643414e-04  1.4951097147675811e-04  1.5408233580210823e-04  1.5840684423519172e-04  1.6245953145905398e-04  1.6621617951045168e-04  1.6965325474982396e-04  1.7274777360534523e-04  1.7547708479497876e-04  1.7781855349291285e-04  1.7974913018400308e-04  1.8124478367570544e-04  1.8227977384061326e-04  1.8282573506947917e-04  1.8285053604757352e-04  1.8231687524970775e-04  1.8118056440830893e-04  1.7938844408051457e-04  1.7687586627588452e-04  1.7356366888209476e-04  1.6935455535387140e-04  1.6412878087291715e-04  1.5773903307455056e-04  1.5000438169165148e-04  1.4070315742696792e-04  1.2956460651860588e-04  1.1625915448375680e-04  1.0038710130990790e-04  8.1465562066887072e-05  5.8913462993441447e-05  3.2034409275418913e-05  0.0000000000000000e+00  0.0000000000000000e+00  6.7341635578948658e-09  1.4779454327411674e-08  2.4409424102606027e-08  3.5950566933729770e-08  4.9792135564733681e-08  6.6396872698274554e-08  8.6313289610123010e-08  1.1018964988285083e-07  1.3878981731569544e-07  1.7301112334088995e-07  2.1390439978666901e-07  2.6269630619681148e-07  3.2081405564591717e-07  3.8991260748405631e-07  4.7190434806307635e-07  5.6899121962120178e-07  6.8369918162767366e-07  8.1891479673917971e-07  9.7792362418869917e-07  1.1644499765439722e-06  1.3826974516869027e-06  1.6373894918485111e-06  1.9338090479864723e-06  2.2778362444386468e-06  2.6759827508470607e-06  3.1354213826595938e-06  3.6640092765811808e-06  4.2703028332687161e-06  4.9635624978696589e-06  5.7537453722973606e-06  6.6514836345848867e-06  7.6680467933049267e-06  8.8152859409398690e-06  1.0105558399297632e-05  1.1551631479580352e-05  1.3166564512325042e-05  1.4963568835737163e-05  1.6955846056476447e-05  1.9156405599700752e-05  2.1577863323422683e-05  2.4232223757996701e-05  2.7130649311529731e-05  3.0283220519103071e-05  3.3698692069075687e-05  3.7384249875254351e-05  4.1345274844547476e-05  4.5585119186999467e-05  5.0104901108302261e-05  5.4903323503657964e-05  5.9976521837240963e-05  6.5317945756138685e-05  7.0918278175228404e-05  7.6765394613173018e-05  8.2844364500039020e-05  8.9137495058802218e-05  9.5624417232343528e-05  1.0228221202871095e-04  1.0908557462992030e-04  1.1600701268569896e-04  1.2301707441667498e-04  1.3008460149490294e-04  1.3717700115626391e-04  1.4426053162212000e-04  1.5130059465044528e-04  1.5826202887530845e-04  1.6510939749738861e-04  1.7180726382135856e-04  1.7832044805891084e-04  1.8461425868659731e-04  1.9065469142120326e-04  1.9640858850610829e-04  2.0184375044247089e-04  2.0692899149959076e-04  2.1163412924750369e-04  2.1592989691640449e-04  2.1978776554251272e-04  2.2317966054384060e-04  2.2607755451171501e-04  2.2845291452791138e-04  2.3027597813947529e-04  2.3151482715386550e-04  2.3213422256083876e-04  2.3209415704588941e-04  2.3134807363411368e-04  2.2984068989823759e-04  2.2750535679580067e-04  2.2426086950265095e-04  2.2000763454759419e-04  2.1462308313536469e-04  2.0795620484395178e-04  1.9982105905497807e-04  1.8998910379297554e-04  1.7818016352874020e-04  1.6405183954849116e-04  1.4718714954346096e-04  1.2708016826074424e-04  1.0311942985319395e-04  7.4568846894284540e-05  4.0545907596981584e-05  0.0000000000000000e+00  0.0000000000000000e+00  8.3148790792536483e-09  1.8249593704176626e-08  3.0143080857406593e-08  4.4400143027363687e-08  6.1503644341787626e-08  8.2027918883684426e-08  1.0665412587853581e-07  1.3618775313672581e-07  1.7157847236827287e-07  2.1394254599529290e-07  2.6458797384304429e-07  3.2504254781625609e-07  3.9708495141336528e-07  4.8277899661081208e-07  5.8451103110024324e-07  7.0503047193157586e-07  8.4749332527976341e-07  1.0155084345651994e-06  1.2131860592306388e-06  1.4451882235047655e-06  1.7167800887863282e-06  2.0338813963858959e-06  2.4031168022702044e-06  2.8318636869291961e-06  3.3282957782894351e-06  3.9014206826685012e-06  4.5611091893009445e-06  5.3181140113666993e-06  6.1840754660840083e-06  7.1715114951778174e-06  8.2937894026197202e-06  9.5650767565688479e-06  1.1000269083246280e-05  1.2614892285696923e-05  1.4424978159486017e-05  1.6446911954056411e-05  1.8697251639266577e-05  2.1192519369713035e-05  2.3948966573893002e-05  2.6982315100929643e-05  3.0307477895672403e-05  3.3938263697471356e-05  3.7887071217763388e-05  4.2164579093692614e-05  4.6779438587625020e-05  5.1737976459122092e-05  5.7043915639117738e-05  6.2698121260305238e-05  6.8698379232375644e-05  7.5039213901170618e-05  8.1711750418685407e-05  8.8703626312906737e-05  9.5998955432025662e-05  1.0357834600502795e-04  1.1141897307331543e-04  1.1949470406943710e-04  1.2777627490870587e-04  1.3623151266889429e-04  1.4482559980261498e-04  1.5352137388344609e-04  1.6227965614304269e-04  1.7105960151087276e-04  1.7981906250594566e-04  1.8851495912437181e-04  1.9710364678154999e-04  2.0554127435946438e-04  2.1378412442888737e-04  2.2178892771054955e-04  2.2951314375376666e-04  2.3691519958952848e-04  2.4395467770068125e-04  2.5059244398654675e-04  2.5679070542340774e-04  2.6251298577341234e-04  2.6772400590647426e-04  2.7238945300141025e-04  2.7647562000611067e-04  2.7994889317678370e-04  2.8277506118953258e-04  2.8491841412129959e-04  2.8634059442064638e-04  2.8699915471364632e-04  2.8684576879307541e-04  2.8582403229535861e-04  2.8386677825878285e-04  2.8089281986943610e-04  2.7680301815139873e-04  2.7147555609392690e-04  2.6476028273310294e-04  2.5647197109681497e-04  2.4638231286166817e-04  2.3421045037821535e-04  2.1961182389597467e-04  2.0216508909094618e-04  1.8135683838331284e-04  1.5656384040760256e-04  1.2703249717910630e-04  9.1855210355132748e-05  4.9943354238765036e-05  0.0000000000000000e+00  0.0000000000000000e+00  1.0070246684319904e-08  2.2103576289970908e-08  3.6512132006846824e-08  5.3788491617232848e-08  7.4520569290283810e-08  9.9408075523732601e-08  1.2928138614796993e-07  1.6512307363287251e-07  2.0809235761595884e-07  2.5955272765581156e-07  3.2110297833149184e-07  3.9461187269533858e-07  4.8225661224241593e-07  5.8656523728982156e-07  7.1046300814700456e-07  8.5732272187407773e-07  1.0310187990717023e-06  1.2359848276501133e-06  1.4772740740750592e-06  1.7606222662212105e-06  2.0925117158926771e-06  2