<?xml version="1.0"?>
<VTKFile type="UnstructuredGrid"  version="0.1"  >
<UnstructuredGrid>
<Piece  NumberOfPoints="10201" NumberOfCells="20000">
<Points>
<DataArray  type="Float64"  NumberOfComponents="3"  format="ascii">0 0 0  0.01 0 0  0.02 0 0  0.03 0 0  0.04 0 0  0.05 0 0  0.06 0 0  0.07000000000000001 0 0  0.08 0 0  0.09 0 0  0.1 0 0  0.11 0 0  0.12 0 0  0.13 0 0  0.14 0 0  0.15 0 0  0.16 0 0  0.17 0 0  0.18 0 0  0.19 0 0  0.2 0 0  0.21 0 0  0.22 0 0  0.23 0 0  0.24 0 0  0.25 0 0  0.26 0 0  0.27 0 0  0.28 0 0  0.29 0 0  0.3 0 0  0.31 0 0  0.32 0 0  0.33 0 0  0.34 0 0  0.35 0 0  0.36 0 0  0.37 0 0  0.38 0 0  0.39 0 0  0.4 0 0  0.41 0 0  0.42 0 0  0.43 0 0  0.44 0 0  0.45 0 0  0.46 0 0  0.47 0 0  0.48 0 0  0.49 0 0  0.5 0 0  0.51 0 0  0.52 0 0  0.53 0 0  0.54 0 0  0.55 0 0  0.5600000000000001 0 0  0.57 0 0  0.58 0 0  0.59 0 0  0.6 0 0  0.61 0 0  0.62 0 0  0.63 0 0  0.64 0 0  0.65 0 0  0.66 0 0  0.67 0 0  0.68 0 0  0.6899999999999999 0 0  0.7 0 0  0.71 0 0  0.72 0 0  0.73 0 0  0.74 0 0  0.75 0 0  0.76 0 0  0.77 0 0  0.78 0 0  0.79 0 0  0.8 0 0  0.8100000000000001 0 0  0.82 0 0  0.83 0 0  0.84 0 0  0.85 0 0  0.86 0 0  0.87 0 0  0.88 0 0  0.89 0 0  0.9 0 0  0.91 0 0  0.92 0 0  0.93 0 0  0.9399999999999999 0 0  0.95 0 0  0.96 0 0  0.97 0 0  0.98 0 0  0.99 0 0  1 0 0  0 0.01 0  0.01 0.01 0  0.02 0.01 0  0.03 0.01 0  0.04 0.01 0  0.05 0.01 0  0.06 0.01 0  0.07000000000000001 0.01 0  0.08 0.01 0  0.09 0.01 0  0.1 0.01 0  0.11 0.01 0  0.12 0.01 0  0.13 0.01 0  0.14 0.01 0  0.15 0.01 0  0.16 0.01 0  0.17 0.01 0  0.18 0.01 0  0.19 0.01 0  0.2 0.01 0  0.21 0.01 0  0.22 0.01 0  0.23 0.01 0  0.24 0.01 0  0.25 0.01 0  0.26 0.01 0  0.27 0.01 0  0.28 0.01 0  0.29 0.01 0  0.3 0.01 0  0.31 0.01 0  0.32 0.01 0  0.33 0.01 0  0.34 0.01 0  0.35 0.01 0  0.36 0.01 0  0.37 0.01 0  0.38 0.01 0  0.39 0.01 0  0.4 0.01 0  0.41 0.01 0  0.42 0.01 0  0.43 0.01 0  0.44 0.01 0  0.45 0.01 0  0.46 0.01 0  0.47 0.01 0  0.48 0.01 0  0.49 0.01 0  0.5 0.01 0  0.51 0.01 0  0.52 0.01 0  0.53 0.01 0  0.54 0.01 0  0.55 0.01 0  0.5600000000000001 0.01 0  0.57 0.01 0  0.58 0.01 0  0.59 0.01 0  0.6 0.01 0  0.61 0.01 0  0.62 0.01 0  0.63 0.01 0  0.64 0.01 0  0.65 0.01 0  0.66 0.01 0  0.67 0.01 0  0.68 0.01 0  0.6899999999999999 0.01 0  0.7 0.01 0  0.71 0.01 0  0.72 0.01 0  0.73 0.01 0  0.74 0.01 0  0.75 0.01 0  0.76 0.01 0  0.77 0.01 0  0.78 0.01 0  0.79 0.01 0  0.8 0.01 0  0.8100000000000001 0.01 0  0.82 0.01 0  0.83 0.01 0  0.84 0.01 0  0.85 0.01 0  0.86 0.01 0  0.87 0.01 0  0.88 0.01 0  0.89 0.01 0  0.9 0.01 0  0.91 0.01 0  0.92 0.01 0  0.93 0.01 0  0.9399999999999999 0.01 0  0.95 0.01 0  0.96 0.01 0  0.97 0.01 0  0.98 0.01 0  0.99 0.01 0  1 0.01 0  0 0.02 0  0.01 0.02 0  0.02 0.02 0  0.03 0.02 0  0.04 0.02 0  0.05 0.02 0  0.06 0.02 0  0.07000000000000001 0.02 0  0.08 0.02 0  0.09 0.02 0  0.1 0.02 0  0.11 0.02 0  0.12 0.02 0  0.13 0.02 0  0.14 0.02 0  0.15 0.02 0  0.16 0.02 0  0.17 0.02 0  0.18 0.02 0  0.19 0.02 0  0.2 0.02 0  0.21 0.02 0  0.22 0.02 0  0.23 0.02 0  0.24 0.02 0  0.25 0.02 0  0.26 0.02 0  0.27 0.02 0  0.28 0.02 0  0.29 0.02 0  0.3 0.02 0  0.31 0.02 0  0.32 0.02 0  0.33 0.02 0  0.34 0.02 0  0.35 0.02 0  0.36 0.02 0  0.37 0.02 0  0.38 0.02 0  0.39 0.02 0  0.4 0.02 0  0.41 0.02 0  0.42 0.02 0  0.43 0.02 0  0.44 0.02 0  0.45 0.02 0  0.46 0.02 0  0.47 0.02 0  0.48 0.02 0  0.49 0.02 0  0.5 0.02 0  0.51 0.02 0  0.52 0.02 0  0.53 0.02 0  0.54 0.02 0  0.55 0.02 0  0.5600000000000001 0.02 0  0.57 0.02 0  0.58 0.02 0  0.59 0.02 0  0.6 0.02 0  0.61 0.02 0  0.62 0.02 0  0.63 0.02 0  0.64 0.02 0  0.65 0.02 0  0.66 0.02 0  0.67 0.02 0  0.68 0.02 0  0.6899999999999999 0.02 0  0.7 0.02 0  0.71 0.02 0  0.72 0.02 0  0.73 0.02 0  0.74 0.02 0  0.75 0.02 0  0.76 0.02 0  0.77 0.02 0  0.78 0.02 0  0.79 0.02 0  0.8 0.02 0  0.8100000000000001 0.02 0  0.82 0.02 0  0.83 0.02 0  0.84 0.02 0  0.85 0.02 0  0.86 0.02 0  0.87 0.02 0  0.88 0.02 0  0.89 0.02 0  0.9 0.02 0  0.91 0.02 0  0.92 0.02 0  0.93 0.02 0  0.9399999999999999 0.02 0  0.95 0.02 0  0.96 0.02 0  0.97 0.02 0  0.98 0.02 0  0.99 0.02 0  1 0.02 0  0 0.03 0  0.01 0.03 0  0.02 0.03 0  0.03 0.03 0  0.04 0.03 0  0.05 0.03 0  0.06 0.03 0  0.07000000000000001 0.03 0  0.08 0.03 0  0.09 0.03 0  0.1 0.03 0  0.11 0.03 0  0.12 0.03 0  0.13 0.03 0  0.14 0.03 0  0.15 0.03 0  0.16 0.03 0  0.17 0.03 0  0.18 0.03 0  0.19 0.03 0  0.2 0.03 0  0.21 0.03 0  0.22 0.03 0  0.23 0.03 0  0.24 0.03 0  0.25 0.03 0  0.26 0.03 0  0.27 0.03 0  0.28 0.03 0  0.29 0.03 0  0.3 0.03 0  0.31 0.03 0  0.32 0.03 0  0.33 0.03 0  0.34 0.03 0  0.35 0.03 0  0.36 0.03 0  0.37 0.03 0  0.38 0.03 0  0.39 0.03 0  0.4 0.03 0  0.41 0.03 0  0.42 0.03 0  0.43 0.03 0  0.44 0.03 0  0.45 0.03 0  0.46 0.03 0  0.47 0.03 0  0.48 0.03 0  0.49 0.03 0  0.5 0.03 0  0.51 0.03 0  0.52 0.03 0  0.53 0.03 0  0.54 0.03 0  0.55 0.03 0  0.5600000000000001 0.03 0  0.57 0.03 0  0.58 0.03 0  0.59 0.03 0  0.6 0.03 0  0.61 0.03 0  0.62 0.03 0  0.63 0.03 0  0.64 0.03 0  0.65 0.03 0  0.66 0.03 0  0.67 0.03 0  0.68 0.03 0  0.6899999999999999 0.03 0  0.7 0.03 0  0.71 0.03 0  0.72 0.03 0  0.73 0.03 0  0.74 0.03 0  0.75 0.03 0  0.76 0.03 0  0.77 0.03 0  0.78 0.03 0  0.79 0.03 0  0.8 0.03 0  0.8100000000000001 0.03 0  0.82 0.03 0  0.83 0.03 0  0.84 0.03 0  0.85 0.03 0  0.86 0.03 0  0.87 0.03 0  0.88 0.03 0  0.89 0.03 0  0.9 0.03 0  0.91 0.03 0  0.92 0.03 0  0.93 0.03 0  0.9399999999999999 0.03 0  0.95 0.03 0  0.96 0.03 0  0.97 0.03 0  0.98 0.03 0  0.99 0.03 0  1 0.03 0  0 0.04 0  0.01 0.04 0  0.02 0.04 0  0.03 0.04 0  0.04 0.04 0  0.05 0.04 0  0.06 0.04 0  0.07000000000000001 0.04 0  0.08 0.04 0  0.09 0.04 0  0.1 0.04 0  0.11 0.04 0  0.12 0.04 0  0.13 0.04 0  0.14 0.04 0  0.15 0.04 0  0.16 0.04 0  0.17 0.04 0  0.18 0.04 0  0.19 0.04 0  0.2 0.04 0  0.21 0.04 0  0.22 0.04 0  0.23 0.04 0  0.24 0.04 0  0.25 0.04 0  0.26 0.04 0  0.27 0.04 0  0.28 0.04 0  0.29 0.04 0  0.3 0.04 0  0.31 0.04 0  0.32 0.04 0  0.33 0.04 0  0.34 0.04 0  0.35 0.04 0  0.36 0.04 0  0.37 0.04 0  0.38 0.04 0  0.39 0.04 0  0.4 0.04 0  0.41 0.04 0  0.42 0.04 0  0.43 0.04 0  0.44 0.04 0  0.45 0.04 0  0.46 0.04 0  0.47 0.04 0  0.48 0.04 0  0.49 0.04 0  0.5 0.04 0  0.51 0.04 0  0.52 0.04 0  0.53 0.04 0  0.54 0.04 0  0.55 0.04 0  0.5600000000000001 0.04 0  0.57 0.04 0  0.58 0.04 0  0.59 0.04 0  0.6 0.04 0  0.61 0.04 0  0.62 0.04 0  0.63 0.04 0  0.64 0.04 0  0.65 0.04 0  0.66 0.04 0  0.67 0.04 0  0.68 0.04 0  0.6899999999999999 0.04 0  0.7 0.04 0  0.71 0.04 0  0.72 0.04 0  0.73 0.04 0  0.74 0.04 0  0.75 0.04 0  0.76 0.04 0  0.77 0.04 0  0.78 0.04 0  0.79 0.04 0  0.8 0.04 0  0.8100000000000001 0.04 0  0.82 0.04 0  0.83 0.04 0  0.84 0.04 0  0.85 0.04 0  0.86 0.04 0  0.87 0.04 0  0.88 0.04 0  0.89 0.04 0  0.9 0.04 0  0.91 0.04 0  0.92 0.04 0  0.93 0.04 0  0.9399999999999999 0.04 0  0.95 0.04 0  0.96 0.04 0  0.97 0.04 0  0.98 0.04 0  0.99 0.04 0  1 0.04 0  0 0.05 0  0.01 0.05 0  0.02 0.05 0  0.03 0.05 0  0.04 0.05 0  0.05 0.05 0  0.06 0.05 0  0.07000000000000001 0.05 0  0.08 0.05 0  0.09 0.05 0  0.1 0.05 0  0.11 0.05 0  0.12 0.05 0  0.13 0.05 0  0.14 0.05 0  0.15 0.05 0  0.16 0.05 0  0.17 0.05 0  0.18 0.05 0  0.19 0.05 0  0.2 0.05 0  0.21 0.05 0  0.22 0.05 0  0.23 0.05 0  0.24 0.05 0  0.25 0.05 0  0.26 0.05 0  0.27 0.05 0  0.28 0.05 0  0.29 0.05 0  0.3 0.05 0  0.31 0.05 0  0.32 0.05 0  0.33 0.05 0  0.34 0.05 0  0.35 0.05 0  0.36 0.05 0  0.37 0.05 0  0.38 0.05 0  0.39 0.05 0  0.4 0.05 0  0.41 0.05 0  0.42 0.05 0  0.43 0.05 0  0.44 0.05 0  0.45 0.05 0  0.46 0.05 0  0.47 0.05 0  0.48 0.05 0  0.49 0.05 0  0.5 0.05 0  0.51 0.05 0  0.52 0.05 0  0.53 0.05 0  0.54 0.05 0  0.55 0.05 0  0.5600000000000001 0.05 0  0.57 0.05 0  0.58 0.05 0  0.59 0.05 0  0.6 0.05 0  0.61 0.05 0  0.62 0.05 0  0.63 0.05 0  0.64 0.05 0  0.65 0.05 0  0.66 0.05 0  0.67 0.05 0  0.68 0.05 0  0.6899999999999999 0.05 0  0.7 0.05 0  0.71 0.05 0  0.72 0.05 0  0.73 0.05 0  0.74 0.05 0  0.75 0.05 0  0.76 0.05 0  0.77 0.05 0  0.78 0.05 0  0.79 0.05 0  0.8 0.05 0  0.8100000000000001 0.05 0  0.82 0.05 0  0.83 0.05 0  0.84 0.05 0  0.85 0.05 0  0.86 0.05 0  0.87 0.05 0  0.88 0.05 0  0.89 0.05 0  0.9 0.05 0  0.91 0.05 0  0.92 0.05 0  0.93 0.05 0  0.9399999999999999 0.05 0  0.95 0.05 0  0.96 0.05 0  0.97 0.05 0  0.98 0.05 0  0.99 0.05 0  1 0.05 0  0 0.06 0  0.01 0.06 0  0.02 0.06 0  0.03 0.06 0  0.04 0.06 0  0.05 0.06 0  0.06 0.06 0  0.07000000000000001 0.06 0  0.08 0.06 0  0.09 0.06 0  0.1 0.06 0  0.11 0.06 0  0.12 0.06 0  0.13 0.06 0  0.14 0.06 0  0.15 0.06 0  0.16 0.06 0  0.17 0.06 0  0.18 0.06 0  0.19 0.06 0  0.2 0.06 0  0.21 0.06 0  0.22 0.06 0  0.23 0.06 0  0.24 0.06 0  0.25 0.06 0  0.26 0.06 0  0.27 0.06 0  0.28 0.06 0  0.29 0.06 0  0.3 0.06 0  0.31 0.06 0  0.32 0.06 0  0.33 0.06 0  0.34 0.06 0  0.35 0.06 0  0.36 0.06 0  0.37 0.06 0  0.38 0.06 0  0.39 0.06 0  0.4 0.06 0  0.41 0.06 0  0.42 0.06 0  0.43 0.06 0  0.44 0.06 0  0.45 0.06 0  0.46 0.06 0  0.47 0.06 0  0.48 0.06 0  0.49 0.06 0  0.5 0.06 0  0.51 0.06 0  0.52 0.06 0  0.53 0.06 0  0.54 0.06 0  0.55 0.06 0  0.5600000000000001 0.06 0  0.57 0.06 0  0.58 0.06 0  0.59 0.06 0  0.6 0.06 0  0.61 0.06 0  0.62 0.06 0  0.63 0.06 0  0.64 0.06 0  0.65 0.06 0  0.66 0.06 0  0.67 0.06 0  0.68 0.06 0  0.6899999999999999 0.06 0  0.7 0.06 0  0.71 0.06 0  0.72 0.06 0  0.73 0.06 0  0.74 0.06 0  0.75 0.06 0  0.76 0.06 0  0.77 0.06 0  0.78 0.06 0  0.79 0.06 0  0.8 0.06 0  0.8100000000000001 0.06 0  0.82 0.06 0  0.83 0.06 0  0.84 0.06 0  0.85 0.06 0  0.86 0.06 0  0.87 0.06 0  0.88 0.06 0  0.89 0.06 0  0.9 0.06 0  0.91 0.06 0  0.92 0.06 0  0.93 0.06 0  0.9399999999999999 0.06 0  0.95 0.06 0  0.96 0.06 0  0.97 0.06 0  0.98 0.06 0  0.99 0.06 0  1 0.06 0  0 0.07000000000000001 0  0.01 0.07000000000000001 0  0.02 0.07000000000000001 0  0.03 0.07000000000000001 0  0.04 0.07000000000000001 0  0.05 0.07000000000000001 0  0.06 0.07000000000000001 0  0.07000000000000001 0.07000000000000001 0  0.08 0.07000000000000001 0  0.09 0.07000000000000001 0  0.1 0.07000000000000001 0  0.11 0.07000000000000001 0  0.12 0.07000000000000001 0  0.13 0.07000000000000001 0  0.14 0.07000000000000001 0  0.15 0.07000000000000001 0  0.16 0.07000000000000001 0  0.17 0.0700
[...]
<PointData  Scalars="u"> 
<DataArray  type="Float64"  Name="u"  format="ascii">0.0000000000000000e+00  0.0000000000000000e+00  0.0000000000000000e+00  0.0000000000000000e+00  0.0000000000000000e+00  0.0000000000000000e+00  0.0000000000000000e+00  0.0000000000000000e+00  0.0000000000000000e+00  0.0000000000000000e+00  0.0000000000000000e+00  0.0000000000000000e+00  0.0000000000000000e+00  0.0000000000000000e+00  0.0000000000000000e+00  0.0000000000000000e+00  0.0000000000000000e+00  0.0000000000000000e+00  0.0000000000000000e+00  0.0000000000000000e+00  0.0000000000000000e+00  0.0000000000000000e+00  0.0000000000000000e+00  0.0000000000000000e+00  0.0000000000000000e+00  0.0000000000000000e+00  0.0000000000000000e+00  0.0000000000000000e+00  0.0000000000000000e+00  0.0000000000000000e+00  0.0000000000000000e+00  0.0000000000000000e+00  0.0000000000000000e+00  0.0000000000000000e+00  0.0000000000000000e+00  0.0000000000000000e+00  0.0000000000000000e+00  0.0000000000000000e+00  0.0000000000000000e+00  0.0000000000000000e+00  0.0000000000000000e+00  0.0000000000000000e+00  0.0000000000000000e+00  0.0000000000000000e+00  0.0000000000000000e+00  0.0000000000000000e+00  0.0000000000000000e+00  0.0000000000000000e+00  0.0000000000000000e+00  0.0000000000000000e+00  0.0000000000000000e+00  0.0000000000000000e+00  0.0000000000000000e+00  0.0000000000000000e+00  0.0000000000000000e+00  0.0000000000000000e+00  0.0000000000000000e+00  0.0000000000000000e+00  0.0000000000000000e+00  0.0000000000000000e+00  0.0000000000000000e+00  0.0000000000000000e+00  0.0000000000000000e+00  0.0000000000000000e+00  0.0000000000000000e+00  0.0000000000000000e+00  0.0000000000000000e+00  0.0000000000000000e+00  0.0000000000000000e+00  0.0000000000000000e+00  0.0000000000000000e+00  0.0000000000000000e+00  0.0000000000000000e+00  0.0000000000000000e+00  0.0000000000000000e+00  0.0000000000000000e+00  0.0000000000000000e+00  0.0000000000000000e+00  0.0000000000000000e+00  0.0000000000000000e+00  0.0000000000000000e+00  0.0000000000000000e+00  0.0000000000000000e+00  0.0000000000000000e+00  0.0000000000000000e+00  0.0000000000000000e+00  0.0000000000000000e+00  0.0000000000000000e+00  0.0000000000000000e+00  0.0000000000000000e+00  0.0000000000000000e+00  0.0000000000000000e+00  0.0000000000000000e+00  0.0000000000000000e+00  0.0000000000000000e+00  0.0000000000000000e+00  0.0000000000000000e+00  0.0000000000000000e+00  0.0000000000000000e+00  0.0000000000000000e+00  0.0000000000000000e+00  0.0000000000000000e+00  1.3460113196991259e-16  3.0627351774315666e-16  5.4167416610808119e-16  8.7819029594390523e-16  1.3694647079431360e-15  2.0929767046276606e-15  3.1607067133941926e-15  4.7340677737608948e-15  7.0446764282505343e-15  1.0423026787184362e-14  1.5337739227906432e-14  2.2448789238983050e-14  3.2678983636374944e-14  4.7308927840538419e-14  6.8101784612503719e-14  9.7465196579658673e-14  1.3865872636403760e-13  1.9605590243438599e-13  2.7547022904714711e-13  3.8455404224750409e-13  5.3327752385211212e-13  7.3449212202645932e-13  1.0045776450535851e-12  1.3641649885361810e-12  1.8389165071961829e-12  2.4603333090575923e-12  3.2665433754129169e-12  4.3030069401860720e-12  5.6230570561116898e-12  7.2881753870838978e-12  9.3678882711213943e-12  1.1939158829217530e-11  1.5085150563012071e-11  1.8893249765260254e-11  2.3452261056100339e-11  2.8848734412397388e-11  3.5162443590537506e-11  4.2461113156370763e-11  5.0794580201423372e-11  6.0188670340832529e-11  7.0639156421221815e-11  8.2106241440174828e-11  9.4510052822332762e-11  1.0772764266071956e-10  1.2159194969707733e-10  1.3589308984553648e-10  1.5038220470320532e-10  1.6477791972005361e-10  1.7877525953943760e-10  1.9205665638607429e-10  2.0430449006145722e-10  2.1521443711490875e-10  2.2450880139550411e-10  2.3194896233228382e-10  2.3734611730880380e-10  2.4056960818866962e-10  2.4155229876295395e-10  2.4029269186361248e-10  2.3685371954976031e-10  2.3135838267470124e-10  2.2398263401916078e-10  2.1494607271154549e-10  2.0450113352425828e-10  1.9292150660775800e-10  1.8049051225219426e-10  1.6749008863607752e-10  1.5419094030713639e-10  1.4084425625896657e-10  1.2767525465040059e-10  1.1487866118581456e-10  1.0261609223337837e-10  9.1015200888669763e-11  8.0170359711636858e-11  7.0144599560232551e-11  6.0972498565791634e-11  5.2663715293735837e-11  4.5206880482333823e-11  3.8573596749020850e-11  3.2722339606017349e-11  2.7602100877683034e-11  2.3155662881997262e-11  1.9322435295795924e-11  1.6040824305991474e-11  1.3250134277959237e-11  1.0892025393184903e-11  8.9115667976120244e-12  7.2579344672361112e-12  5.8848071914362252e-12  4.7505138389800405e-12  3.8179814140806140e-12  3.0545272165579012e-12  2.4315304031833457e-12  1.9240089240691389e-12  1.5101175129512422e-12  1.1705713436142506e-12  8.8798828925208613e-13  6.4613072015168845e-13  4.2901602913881617e-13  2.1985358130333575e-13  0.0000000000000000e+00  0.0000000000000000e+00  2.7088299124095623e-16  6.1684356333844883e-16  1.0918820430458536e-15  1.7720538405237308e-15  2.7666611048715881e-15  4.2338546612919608e-15  6.4026232793604974e-15  9.6036456271292387e-15  1.4312301096893141e-14  2.1208177638360881e-14  3.1256709348736874e-14  4.5820147568482766e-14  6.6806923062631971e-14  9.6870570498532558e-14  1.3967169144988612e-13  2.0021879521956099e-13  2.8530605718780448e-13  4.0406774068882990e-13  5.6866977717648396e-13  7.9515818136870191e-13  1.1044808382197130e-12  1.5236928593116909e-12  2.0873452225480081e-12  2.8390408655087880e-12  3.8331210596288338e-12  5.1364173814210405e-12  6.8299711619054895e-12  9.0105840557185654e-12  1.1792022576909975e-11  1.5305659674059605e-11  1.9700302634419852e-11  2.5140935061054334e-11  3.1806098497351837e-11  3.9883663827370473e-11  4.9564800422017396e-11  6.1036046664783069e-11  7.4469520109779181e-11  9.0011475530731954e-11  1.0776961527222275e-10  1.2779976334413212e-10  1.5009271181629398e-10  1.7456221050035290e-10  2.0103517247543562e-10  2.2924518457961874e-10  2.5883032532068378e-10  2.8933609419694885e-10  3.2022395021708246e-10  3.5088556161689282e-10  3.8066241515331308e-10  4.0886996463451211e-10  4.3482506355626819e-10  4.5787507512161577e-10  4.7742682737087365e-10  4.9297351193046597e-10  5.0411772511851979e-10  5.1058911350300790e-10  5.1225548723891580e-10  5.0912676264131934e-10  5.0135163920134367e-10  4.8920745075456545e-10  4.7308410426399927e-10  4.5346339066626959e-10  4.3089519235366045e-10  4.0597220917702184e-10  3.7930478345442708e-10  3.5149724234398520e-10  3.2312692128154330e-10  2.9472671891612937e-10  2.6677169718415056e-10  2.3966991208791075e-10  2.1375736776001598e-10  1.8929674720602029e-10  1.6647939816911090e-10  1.4542994451246119e-10  1.2621284849505654e-10  1.0884025863787494e-10  9.3280529906042812e-11  7.9466884855698629e-11  6.7305783698860071e-11  5.6684676808219271e-11  4.7478915977714903e-11  3.9557694115235898e-11  3.2788962679956906e-11  2.7043339925055294e-11  2.2197070450141398e-11  1.8134128593811731e-11  1.4747576553153994e-11  1.1940295011959563e-11  9.6252018290444027e-12  7.7250651932266251e-12  6.1720035028796180e-12  4.9067465849494325e-12  3.8777128049228330e-12  3.0399348061388865e-12  2.3538434288070301e-12  1.7838950848702009e-12  1.2970030752082653e-12  8.6070953852995175e-13  4.4101564350248769e-13  0.0000000000000000e+00  0.0000000000000000e+00  4.2793507184940399e-16  9.7529876021800222e-16  1.7285172870753130e-15  2.8096659904059862e-15  4.3946415009719371e-15  6.7386434161913902e-15  1.0212202254454176e-14  1.5351891371149406e-14  2.2931257342515574e-14  3.4059284832283588e-14  5.0315938773409297e-14  7.3937046946625829e-14  1.0806402026524458e-13  1.5707762824996828e-13  2.2703914881017470e-13  3.2626647874872363e-13  4.6607685658744735e-13  6.6173114900227044e-13  9.3361638645762515e-13  1.3087023364691177e-12  1.8223030360138086e-12  2.5201637906475456e-12  3.4608764610666063e-12  4.7185991898240072e-12  6.3860196368231321e-12  8.5774524824008946e-12  1.1431902674428223e-11  1.5115857448287516e-11  1.9825496382529641e-11  2.5787935942427806e-11  3.3261061982637436e-11  4.2531461827063215e-11  5.3909959888417343e-11  6.7724300950613797e-11  8.4308625571748343e-11  1.0398955136258881e-10  1.2706891479667736e-10  1.5380353472941258e-10  1.8438271444501039e-10  2.1890457603516977e-10  2.5735268105254467e-10  2.9957468889400140e-10  3.4526499068937222e-10  3.9395328670973220e-10  4.4500091558362328e-10  4.9760637815518324e-10  5.5082093555210469e-10  6.0357443430966114e-10  6.5471068100834096e-10  7.0303083489831158e-10  7.4734250081637505e-10  7.8651157748164585e-10  8.1951352625732920e-10  8.4548062661521361e-10  8.6374199800465236e-10  8.7385367818913423e-10  8.7561680486082506e-10  8.6908287149599732e-10  8.5454602316626413e-10  8.3252332163439468e-10  8.0372474791550698e-10  7.6901535024908638e-10  7.2937233883166624e-10  6.8584005893409407e-10  6.3948565395634727e-10  5.9135789717370900e-10  5.4245118048894130e-10  4.9367606438282828e-10  4.4583717980881213e-10  3.9961868757201999e-10  3.5557698937160527e-10  3.1413997798462694e-10  2.7561182750440729e-10  2.4018215958043083e-10  2.0793836834858127e-10  1.7887992730394030e-10  1.5293361337138212e-10  1.2996874317662128e-10  1.0981170157326549e-10  9.2259233467795494e-11  7.7090151639781868e-11  6.4075274778271826e-11  5.2985544826682426e-11  4.3598378152315924e-11  3.5702381197811792e-11  2.9100610420356400e-11  2.3612582092997015e-11  1.9075244166804423e-11  1.5343114170676250e-11  1.2287768004709533e-11  9.7968377901265650e-12  7.7726452361747275e-12  6.1305620378680575e-12  4.7971516696855804e-12  3.7081080992872023e-12  2.8059667464293401e-12  2.0375222300846946e-12  1.3508483316095524e-12  6.9178295981488974e-13  0.0000000000000000e+00  0.0000000000000000e+00  6.2434310802971215e-16  1.4243648802039484e-15  2.5282924922320104e-15  4.1178065810124631e-15  6.4555416932643164e-15  9.9238403198361519e-15  1.5079759550900202e-14  2.2732806746141905e-14  3.4054111363198568e-14  5.0728604479467640e-14  7.5165383887317955e-14  1.1078588314906002e-13  1.6241478969329395e-13  2.3680484769889232e-13  3.4333359358433175e-13  4.9491738375544412e-13  7.0919521505568750e-13  1.0100409110292795e-12  1.4294659528067574e-12  2.0099748118766921e-12  2.8074278482836122e-12  3.8944509826563349e-12  5.3644034364785951e-12  7.3358718220016090e-12  9.9575980920500657e-12  1.3413668649561053e-11  1.7928692323105065e-11  2.3772578603126469e-11  3.1264400663494763e-11  4.0774700658966789e-11  5.2725482610562629e-11  6.7587060304401643e-11  8.5870906845506362e-11  1.0811771294553181e-10  1.3488002496629744e-10  1.6669911755297099e-10  2.0407616517628507e-10  2.4743830277226698e-10  2.9710077998815756e-10  3.5322706817963159e-10  4.1578940728191168e-10  4.8453280010204043e-10  5.5894578822370365e-10  6.3824139665688275e-10  7.2135135329010345e-10  8.0693604632987271e-10  8.9341169308414674e-10  9.7899491905763898e-10  1.0617634953026857e-09  1.1397304981333928e-09  1.2109278018329503e-09  1.2734937530459196e-09  1.3257592414817606e-09  1.3663262662907097e-09  1.3941335319135606e-09  1.4085045562706625e-09  1.4091751406459771e-09  1.3962986883666266e-09  1.3704295933819321e-09  1.3324865700339417e-09  1.2836991999279885e-09  1.2255420068277265e-09  1.1596609623132971e-09  1.0877974550239699e-09  1.0117144578985729e-09  9.3312897609352941e-10  8.5365395616732719e-10  7.7475179967239842e-10  6.9770056358444924e-10  6.2357294304740463e-10  5.5322729245800481e-10  4.8730929552880375e-10  4.2626246316472714e-10  3.7034541549083188e-10  3.1965386844508956e-10  2.7414536107378465e-10  2.3366498612074114e-10  1.9797068217971694e-10  1.6675697264580680e-10  1.3967636333145502e-10  1.1635791297224276e-10  9.6422752924506787e-11  7.9496545427966911e-11  6.5219031255554799e-11  5.3250929439745018e-11  4.3278519257704807e-11  3.5016264787075285e-11  2.8207842780906394e-11  2.2625912806879800e-11  1.8070931174415081e-11  1.4369262551821420e-11  1.1370789399350940e-11  8.9461620847781771e-12  6.9837732584332050e-12  5.3864793005301673e-12  4.0680296356753791e-12  2.9491022679029484e-12  1.9527840555500370e-12  9.9928435444322151e-13  0.0000000000000000e+00  0.0000000000000000e+00  8.8071774631094577e-16  2.0115497134103938e-15  3.5768830744589922e-15  5.8388583651956689e-15  9.1778282195542035e-15  1.4149655070378561e-14  2.1567395513164276e-14  3.2617257727123015e-14  4.9022199652215969e-14  7.3271038833562260e-14  1.0893665945496475e-13  1.6111399927838477e-13  2.3701709475122971e-13  3.4678456288573427e-13  5.0455432629639526e-13  7.2988068490989627e-13  1.0495791471995311e-12  1.5000953653626023e-12  2.1305020135757429e-12  3.0062286619624245e-12  4.2136209393459764e-12  5.8654020437091824e-12  8.1070668333539853e-12  1.1124170992679170e-11  1.5150380273499525e-11  2.0476014198774987e-11  2.7456654281321434e-11  3.6521192447321236e-11  4.8178480536675560e-11  6.3021523328988354e-11  8.1727960474553631e-11  1.0505543989913475e-10  1.3383043594091132e-10  1.6892915182968985e-10  2.1124940784274277e-10  2.6167288369306866e-10  3.2101776871468467e-10  3.8998276244581857e-10  4.6908441486637819e-10  5.5859091761416606e-10  6.5845653901960404e-10  7.6826179549582801e-10  8.8716501827451561e-10  1.0138710668748752e-09  1.1466224527361138e-09  1.2832170196250920e-09  1.4210546092019248e-09  1.5572129326087360e-09  1.6885503649555192e-09  1.8118308347488622e-09  1.9238636827346598e-09  2.0216495960332229e-09  2.1025227180587676e-09  2.1642789428818387e-09  2.2052812659052100e-09  2.2245348048068969e-09  2.2217265410184358e-09  2.1972276951798461e-09  2.1520596276899343e-09  2.0878269335114963e-09  2.0066237042373752e-09  1.9109205581198531e-09  1.8034408810508125e-09  1.6870347669981819e-09  1.5645584728083078e-09  1.4387659562564556e-09  1.3122174368571668e-09  1.1872081093271086e-09  1.0657183410159289e-09  9.4938505657545663e-10  8.3949267086573567e-10  7.3698094095379252e-10  6.4246648974290465e-10  5.5627448765051602e-10  4.7847701625665540e-10  4.0893491282755863e-10  3.4734033408860868e-10  2.9325781063701411e-10  2.4616212752711231e-10  2.0547191182693627e-10  1.7057829831344707e-10  1.4086845760073602e-10  1.1574409659181135e-10  9.4635278600931681e-11  7.7010066222659366e-11  6.2380574887565047e-11  5.0306052103184313e-11  4.0393580091659348e-11  3.2296950446194423e-11  2.5714189307944106e-11  2.0384128945567409e-11  1.6082332643613114e-11  1.2616588320432386e-11  9.8220941591699128e-12  7.5563671463540326e-12  5.6938125694057111e-12  4.1197998247764029e-12  2.7240010927041575e-12  1.3926747454591410e-12  0.0000000000000000e+00  0.0000000000000000e+00  1.2218051844496992e-15  2.7940492179075948e-15  4.9778753890886578e-15  8.1458964578090279e-15  1.2840922981441424e-14  1.9859556244565717e-14  3.0371921497748445e-14  4.6092460471163490e-14  6.9522078200794807e-14  1.0428894705708809e-13  1.5562423736051926e-13  2.3102027961297263e-13  3.4113240611935929e-13  5.0100205102853008e-13  7.3169741363761490e-13  1.0624884827931024e-12  1.5336942220606473e-12  2.2003591072483147e-12  3.1369307681145321e-12  4.4431156694723664e-12  6.2510795612387541e-12  8.7341263635613604e-12  1.2116924568478266e-11  1.6687244898225822e-11  2.2809018145304913e-11  3.0936311265993434e-11  4.1627550681728337e-11  5.5558999115419209e-11  7.3536130723579757e-11  9.6501175765739991e-11  1.2553476170478257e-10  1.6184931779403060e-10  2.0677180202914563e-10  2.6171342620649610e-10  3.2812446723554813e-10  4.0743301602590470e-10  5.0096765454406857e-10  6.0986554760967903e-10  7.3496921229579574e-10  8.7671714474897172e-10  1.0350353417876867e-09  1.2092383067403990e-09  1.3979491102609615e-09  1.5990482395698613e-09  1.8096601265136514e-09  2.0261843112643825e-09  2.2443752247888785e-09  2.4594707603712201e-09  2.6663654962488310e-09  2.8598200813209711e-09  3.0346944114672985e-09  3.1861892963540823e-09  3.3100797463853454e-09  3.4029230427827633e-09  3.4622264398267009e-09  3.4865625270969851e-09  3.4756246026890519e-09  3.4302193890054453e-09  3.3521995059742631e-09  3.2443427577685056e-09  3.1101890264765063e-09  2.9538480762339888e-09  2.7797926997300016e-09  2.5926514040487507e-09  2.3970134041751847e-09  2.1972563514755140e-09  1.9974043144017086e-09  1.8010204043664426e-09  1.6111354235139136e-09  1.4302112606690685e-09  1.2601356521847114e-09  1.1022434441401303e-09  9.5735865058116932e-10  8.2585134472764095e-10  7.0770364776690752e-10  6.0257967070586194e-10  5.0989509088831920e-10  4.2888298705083528e-10  3.5865351446705455e-10  2.9824589768191119e-10  2.4667200025389885e-10  2.0295136961728624e-10  1.6613814095752548e-10  1.3534052210605130e-10  1.0973378735016537e-10  8.8567803025036524e-11  7.1170115356660706e-11  5.6945574297471020e-11  4.5373366682972115e-11  3.6002205059283458e-11  2.8444278083746530e-11  2.2368423521228424e-11  1.7492840836104292e-11  1.3577519334705766e-11  1.0416419561708285e-11  7.8293089933069106e-12  5.6530178066523917e-12  3.7317508410485081e-12  1.9059811942823768e-12  0.0000000000000000e+00  0.0000000000000000e+00  1.6786021613786272e-15  3.8436852725003988e-15  6.8618467876217452e-15  1.1258154953034286e-14  1.7800731534902035e-14  2.7621769837546983e-14  4.2391727262445555e-14  6.4569054325116428e-14  9.7756071898799665e-14  1.4720244730405311e-13  2.2051170501512533e-13  3.2862389176378021e-13  4.8716936269989868e-13  7.1831491120174326e-13  1.0532539707142664e-12  1.5355265526013195e-12  2.2253901417853474e-12  3.2054967666333276e-12  4.5881589016375881e-12  6.5245005474827672e-12  9.2157800405412997e-12  1.2927125558069563e-11  1.8003828325526011e-11  2.4890176271432580e-11  3.4150566752623493e-11  4.6492298458916451e-11  6.2789003872738512e-11  8.4103150128353869e-11  1.1170542949622717e-10  1.4708822380364776e-10  1.9196972724602816e-10  2.4828484193166964e-10  3.1815873471552490e-10  4.0385908987194517e-10  5.0772373489757764e-10  6.3206155722305677e-10  7.7902651902576317e-10  9.5046709023166495e-10  1.1477564313936049e-09  1.3716119317934294e-09  1.6219158990371405e-09  1.8975518761417736e-09  2.1962727652659685e-09  2.5146172274290995e-09  2.8478893744723080e-09  3.1902134244923921e-09  3.5346698470204182e-09  3.8735129393973866e-09  4.1984623642503945e-09  4.5010537445993649e-09  4.7730268524918339e-09  5.0067250950796930e-09  5.1954775830558441e-09  5.3339354599889165e-09  5.4183374208140746e-09  5.4466851256991256e-09  5.4188168673010416e-09  5.3363764909238334e-09  5.2026832153554784e-09  5.0225157166885442e-09  4.8018298470051100e-09  4.5474331547588917e-09  4.2666407511591124e-09  3.9669361264604064e-09  3.6556576162991579e-09  3.3397268828054734e-09  3.0254306256353241e-09  2.7182613884279245e-09  2.4228183134546899e-09  2.1427644307813493e-09  1.8808338057400300e-09  1.6388797158598783e-09  1.4179539591019733e-09  1.2184072816252530e-09  1.0400015630513767e-09  8.8202558883295487e-10  7.4340775246195537e-10  6.2282066797828002e-10  5.1877427607186434e-10  4.2969547901580965e-10  3.5399356787707261e-10  2.9011167539435025e-10  2.3656519591132948e-10  1.9196857852223867e-10  1.5505215402223719e-10  1.2467074028390706e-10  9.9805725591057793e-11  7.9562193828083907e-11  6.3162462521906290e-11  4.9937181195084963e-11  3.9314902914557985e-11  3.0810809173409513e-11  2.4015044189724330e-11  1.8580901282068303e-11  1.4212899579066663e-11  1.0654590700158692e-11  7.6757402204982217e-12  5.0583417318133112e-12  2.5807590020950092e-12  0.0000000000000000e+00  0.0000000000000000e+00  2.2906621276545355e-15  5.2523167624267285e-15  9.3963936307210825e-15  1.5458272906302127e-14  2.4518414645901356e-14  3.8176581484349575e-14  5.8803885534722070e-14  8.9906007815515150e-14  1.3664353602808679e-13  2.0657204989726238e-13  3.1068629297135111e-13  4.6488047320613950e-13  6.9197130341341277e-13  1.0244724059075290e-12  1.5083581570743887e-12  2.2081109361382148e-12  3.2134055363731070e-12  4.6478434769320674e-12  6.6802004699599546e-12  9.5386810233921003e-12  1.3528669473893590e-11  1