<?xml version="1.0"?>
<VTKFile type="UnstructuredGrid"  version="0.1"  >
<UnstructuredGrid>
<Piece  NumberOfPoints="10201" NumberOfCells="20000">
<Points>
<DataArray  type="Float64"  NumberOfComponents="3"  format="ascii">0 0 0  0.01 0 0  0.02 0 0  0.03 0 0  0.04 0 0  0.05 0 0  0.06 0 0  0.07000000000000001 0 0  0.08 0 0  0.09 0 0  0.1 0 0  0.11 0 0  0.12 0 0  0.13 0 0  0.14 0 0  0.15 0 0  0.16 0 0  0.17 0 0  0.18 0 0  0.19 0 0  0.2 0 0  0.21 0 0  0.22 0 0  0.23 0 0  0.24 0 0  0.25 0 0  0.26 0 0  0.27 0 0  0.28 0 0  0.29 0 0  0.3 0 0  0.31 0 0  0.32 0 0  0.33 0 0  0.34 0 0  0.35 0 0  0.36 0 0  0.37 0 0  0.38 0 0  0.39 0 0  0.4 0 0  0.41 0 0  0.42 0 0  0.43 0 0  0.44 0 0  0.45 0 0  0.46 0 0  0.47 0 0  0.48 0 0  0.49 0 0  0.5 0 0  0.51 0 0  0.52 0 0  0.53 0 0  0.54 0 0  0.55 0 0  0.5600000000000001 0 0  0.57 0 0  0.58 0 0  0.59 0 0  0.6 0 0  0.61 0 0  0.62 0 0  0.63 0 0  0.64 0 0  0.65 0 0  0.66 0 0  0.67 0 0  0.68 0 0  0.6899999999999999 0 0  0.7 0 0  0.71 0 0  0.72 0 0  0.73 0 0  0.74 0 0  0.75 0 0  0.76 0 0  0.77 0 0  0.78 0 0  0.79 0 0  0.8 0 0  0.8100000000000001 0 0  0.82 0 0  0.83 0 0  0.84 0 0  0.85 0 0  0.86 0 0  0.87 0 0  0.88 0 0  0.89 0 0  0.9 0 0  0.91 0 0  0.92 0 0  0.93 0 0  0.9399999999999999 0 0  0.95 0 0  0.96 0 0  0.97 0 0  0.98 0 0  0.99 0 0  1 0 0  0 0.01 0  0.01 0.01 0  0.02 0.01 0  0.03 0.01 0  0.04 0.01 0  0.05 0.01 0  0.06 0.01 0  0.07000000000000001 0.01 0  0.08 0.01 0  0.09 0.01 0  0.1 0.01 0  0.11 0.01 0  0.12 0.01 0  0.13 0.01 0  0.14 0.01 0  0.15 0.01 0  0.16 0.01 0  0.17 0.01 0  0.18 0.01 0  0.19 0.01 0  0.2 0.01 0  0.21 0.01 0  0.22 0.01 0  0.23 0.01 0  0.24 0.01 0  0.25 0.01 0  0.26 0.01 0  0.27 0.01 0  0.28 0.01 0  0.29 0.01 0  0.3 0.01 0  0.31 0.01 0  0.32 0.01 0  0.33 0.01 0  0.34 0.01 0  0.35 0.01 0  0.36 0.01 0  0.37 0.01 0  0.38 0.01 0  0.39 0.01 0  0.4 0.01 0  0.41 0.01 0  0.42 0.01 0  0.43 0.01 0  0.44 0.01 0  0.45 0.01 0  0.46 0.01 0  0.47 0.01 0  0.48 0.01 0  0.49 0.01 0  0.5 0.01 0  0.51 0.01 0  0.52 0.01 0  0.53 0.01 0  0.54 0.01 0  0.55 0.01 0  0.5600000000000001 0.01 0  0.57 0.01 0  0.58 0.01 0  0.59 0.01 0  0.6 0.01 0  0.61 0.01 0  0.62 0.01 0  0.63 0.01 0  0.64 0.01 0  0.65 0.01 0  0.66 0.01 0  0.67 0.01 0  0.68 0.01 0  0.6899999999999999 0.01 0  0.7 0.01 0  0.71 0.01 0  0.72 0.01 0  0.73 0.01 0  0.74 0.01 0  0.75 0.01 0  0.76 0.01 0  0.77 0.01 0  0.78 0.01 0  0.79 0.01 0  0.8 0.01 0  0.8100000000000001 0.01 0  0.82 0.01 0  0.83 0.01 0  0.84 0.01 0  0.85 0.01 0  0.86 0.01 0  0.87 0.01 0  0.88 0.01 0  0.89 0.01 0  0.9 0.01 0  0.91 0.01 0  0.92 0.01 0  0.93 0.01 0  0.9399999999999999 0.01 0  0.95 0.01 0  0.96 0.01 0  0.97 0.01 0  0.98 0.01 0  0.99 0.01 0  1 0.01 0  0 0.02 0  0.01 0.02 0  0.02 0.02 0  0.03 0.02 0  0.04 0.02 0  0.05 0.02 0  0.06 0.02 0  0.07000000000000001 0.02 0  0.08 0.02 0  0.09 0.02 0  0.1 0.02 0  0.11 0.02 0  0.12 0.02 0  0.13 0.02 0  0.14 0.02 0  0.15 0.02 0  0.16 0.02 0  0.17 0.02 0  0.18 0.02 0  0.19 0.02 0  0.2 0.02 0  0.21 0.02 0  0.22 0.02 0  0.23 0.02 0  0.24 0.02 0  0.25 0.02 0  0.26 0.02 0  0.27 0.02 0  0.28 0.02 0  0.29 0.02 0  0.3 0.02 0  0.31 0.02 0  0.32 0.02 0  0.33 0.02 0  0.34 0.02 0  0.35 0.02 0  0.36 0.02 0  0.37 0.02 0  0.38 0.02 0  0.39 0.02 0  0.4 0.02 0  0.41 0.02 0  0.42 0.02 0  0.43 0.02 0  0.44 0.02 0  0.45 0.02 0  0.46 0.02 0  0.47 0.02 0  0.48 0.02 0  0.49 0.02 0  0.5 0.02 0  0.51 0.02 0  0.52 0.02 0  0.53 0.02 0  0.54 0.02 0  0.55 0.02 0  0.5600000000000001 0.02 0  0.57 0.02 0  0.58 0.02 0  0.59 0.02 0  0.6 0.02 0  0.61 0.02 0  0.62 0.02 0  0.63 0.02 0  0.64 0.02 0  0.65 0.02 0  0.66 0.02 0  0.67 0.02 0  0.68 0.02 0  0.6899999999999999 0.02 0  0.7 0.02 0  0.71 0.02 0  0.72 0.02 0  0.73 0.02 0  0.74 0.02 0  0.75 0.02 0  0.76 0.02 0  0.77 0.02 0  0.78 0.02 0  0.79 0.02 0  0.8 0.02 0  0.8100000000000001 0.02 0  0.82 0.02 0  0.83 0.02 0  0.84 0.02 0  0.85 0.02 0  0.86 0.02 0  0.87 0.02 0  0.88 0.02 0  0.89 0.02 0  0.9 0.02 0  0.91 0.02 0  0.92 0.02 0  0.93 0.02 0  0.9399999999999999 0.02 0  0.95 0.02 0  0.96 0.02 0  0.97 0.02 0  0.98 0.02 0  0.99 0.02 0  1 0.02 0  0 0.03 0  0.01 0.03 0  0.02 0.03 0  0.03 0.03 0  0.04 0.03 0  0.05 0.03 0  0.06 0.03 0  0.07000000000000001 0.03 0  0.08 0.03 0  0.09 0.03 0  0.1 0.03 0  0.11 0.03 0  0.12 0.03 0  0.13 0.03 0  0.14 0.03 0  0.15 0.03 0  0.16 0.03 0  0.17 0.03 0  0.18 0.03 0  0.19 0.03 0  0.2 0.03 0  0.21 0.03 0  0.22 0.03 0  0.23 0.03 0  0.24 0.03 0  0.25 0.03 0  0.26 0.03 0  0.27 0.03 0  0.28 0.03 0  0.29 0.03 0  0.3 0.03 0  0.31 0.03 0  0.32 0.03 0  0.33 0.03 0  0.34 0.03 0  0.35 0.03 0  0.36 0.03 0  0.37 0.03 0  0.38 0.03 0  0.39 0.03 0  0.4 0.03 0  0.41 0.03 0  0.42 0.03 0  0.43 0.03 0  0.44 0.03 0  0.45 0.03 0  0.46 0.03 0  0.47 0.03 0  0.48 0.03 0  0.49 0.03 0  0.5 0.03 0  0.51 0.03 0  0.52 0.03 0  0.53 0.03 0  0.54 0.03 0  0.55 0.03 0  0.5600000000000001 0.03 0  0.57 0.03 0  0.58 0.03 0  0.59 0.03 0  0.6 0.03 0  0.61 0.03 0  0.62 0.03 0  0.63 0.03 0  0.64 0.03 0  0.65 0.03 0  0.66 0.03 0  0.67 0.03 0  0.68 0.03 0  0.6899999999999999 0.03 0  0.7 0.03 0  0.71 0.03 0  0.72 0.03 0  0.73 0.03 0  0.74 0.03 0  0.75 0.03 0  0.76 0.03 0  0.77 0.03 0  0.78 0.03 0  0.79 0.03 0  0.8 0.03 0  0.8100000000000001 0.03 0  0.82 0.03 0  0.83 0.03 0  0.84 0.03 0  0.85 0.03 0  0.86 0.03 0  0.87 0.03 0  0.88 0.03 0  0.89 0.03 0  0.9 0.03 0  0.91 0.03 0  0.92 0.03 0  0.93 0.03 0  0.9399999999999999 0.03 0  0.95 0.03 0  0.96 0.03 0  0.97 0.03 0  0.98 0.03 0  0.99 0.03 0  1 0.03 0  0 0.04 0  0.01 0.04 0  0.02 0.04 0  0.03 0.04 0  0.04 0.04 0  0.05 0.04 0  0.06 0.04 0  0.07000000000000001 0.04 0  0.08 0.04 0  0.09 0.04 0  0.1 0.04 0  0.11 0.04 0  0.12 0.04 0  0.13 0.04 0  0.14 0.04 0  0.15 0.04 0  0.16 0.04 0  0.17 0.04 0  0.18 0.04 0  0.19 0.04 0  0.2 0.04 0  0.21 0.04 0  0.22 0.04 0  0.23 0.04 0  0.24 0.04 0  0.25 0.04 0  0.26 0.04 0  0.27 0.04 0  0.28 0.04 0  0.29 0.04 0  0.3 0.04 0  0.31 0.04 0  0.32 0.04 0  0.33 0.04 0  0.34 0.04 0  0.35 0.04 0  0.36 0.04 0  0.37 0.04 0  0.38 0.04 0  0.39 0.04 0  0.4 0.04 0  0.41 0.04 0  0.42 0.04 0  0.43 0.04 0  0.44 0.04 0  0.45 0.04 0  0.46 0.04 0  0.47 0.04 0  0.48 0.04 0  0.49 0.04 0  0.5 0.04 0  0.51 0.04 0  0.52 0.04 0  0.53 0.04 0  0.54 0.04 0  0.55 0.04 0  0.5600000000000001 0.04 0  0.57 0.04 0  0.58 0.04 0  0.59 0.04 0  0.6 0.04 0  0.61 0.04 0  0.62 0.04 0  0.63 0.04 0  0.64 0.04 0  0.65 0.04 0  0.66 0.04 0  0.67 0.04 0  0.68 0.04 0  0.6899999999999999 0.04 0  0.7 0.04 0  0.71 0.04 0  0.72 0.04 0  0.73 0.04 0  0.74 0.04 0  0.75 0.04 0  0.76 0.04 0  0.77 0.04 0  0.78 0.04 0  0.79 0.04 0  0.8 0.04 0  0.8100000000000001 0.04 0  0.82 0.04 0  0.83 0.04 0  0.84 0.04 0  0.85 0.04 0  0.86 0.04 0  0.87 0.04 0  0.88 0.04 0  0.89 0.04 0  0.9 0.04 0  0.91 0.04 0  0.92 0.04 0  0.93 0.04 0  0.9399999999999999 0.04 0  0.95 0.04 0  0.96 0.04 0  0.97 0.04 0  0.98 0.04 0  0.99 0.04 0  1 0.04 0  0 0.05 0  0.01 0.05 0  0.02 0.05 0  0.03 0.05 0  0.04 0.05 0  0.05 0.05 0  0.06 0.05 0  0.07000000000000001 0.05 0  0.08 0.05 0  0.09 0.05 0  0.1 0.05 0  0.11 0.05 0  0.12 0.05 0  0.13 0.05 0  0.14 0.05 0  0.15 0.05 0  0.16 0.05 0  0.17 0.05 0  0.18 0.05 0  0.19 0.05 0  0.2 0.05 0  0.21 0.05 0  0.22 0.05 0  0.23 0.05 0  0.24 0.05 0  0.25 0.05 0  0.26 0.05 0  0.27 0.05 0  0.28 0.05 0  0.29 0.05 0  0.3 0.05 0  0.31 0.05 0  0.32 0.05 0  0.33 0.05 0  0.34 0.05 0  0.35 0.05 0  0.36 0.05 0  0.37 0.05 0  0.38 0.05 0  0.39 0.05 0  0.4 0.05 0  0.41 0.05 0  0.42 0.05 0  0.43 0.05 0  0.44 0.05 0  0.45 0.05 0  0.46 0.05 0  0.47 0.05 0  0.48 0.05 0  0.49 0.05 0  0.5 0.05 0  0.51 0.05 0  0.52 0.05 0  0.53 0.05 0  0.54 0.05 0  0.55 0.05 0  0.5600000000000001 0.05 0  0.57 0.05 0  0.58 0.05 0  0.59 0.05 0  0.6 0.05 0  0.61 0.05 0  0.62 0.05 0  0.63 0.05 0  0.64 0.05 0  0.65 0.05 0  0.66 0.05 0  0.67 0.05 0  0.68 0.05 0  0.6899999999999999 0.05 0  0.7 0.05 0  0.71 0.05 0  0.72 0.05 0  0.73 0.05 0  0.74 0.05 0  0.75 0.05 0  0.76 0.05 0  0.77 0.05 0  0.78 0.05 0  0.79 0.05 0  0.8 0.05 0  0.8100000000000001 0.05 0  0.82 0.05 0  0.83 0.05 0  0.84 0.05 0  0.85 0.05 0  0.86 0.05 0  0.87 0.05 0  0.88 0.05 0  0.89 0.05 0  0.9 0.05 0  0.91 0.05 0  0.92 0.05 0  0.93 0.05 0  0.9399999999999999 0.05 0  0.95 0.05 0  0.96 0.05 0  0.97 0.05 0  0.98 0.05 0  0.99 0.05 0  1 0.05 0  0 0.06 0  0.01 0.06 0  0.02 0.06 0  0.03 0.06 0  0.04 0.06 0  0.05 0.06 0  0.06 0.06 0  0.07000000000000001 0.06 0  0.08 0.06 0  0.09 0.06 0  0.1 0.06 0  0.11 0.06 0  0.12 0.06 0  0.13 0.06 0  0.14 0.06 0  0.15 0.06 0  0.16 0.06 0  0.17 0.06 0  0.18 0.06 0  0.19 0.06 0  0.2 0.06 0  0.21 0.06 0  0.22 0.06 0  0.23 0.06 0  0.24 0.06 0  0.25 0.06 0  0.26 0.06 0  0.27 0.06 0  0.28 0.06 0  0.29 0.06 0  0.3 0.06 0  0.31 0.06 0  0.32 0.06 0  0.33 0.06 0  0.34 0.06 0  0.35 0.06 0  0.36 0.06 0  0.37 0.06 0  0.38 0.06 0  0.39 0.06 0  0.4 0.06 0  0.41 0.06 0  0.42 0.06 0  0.43 0.06 0  0.44 0.06 0  0.45 0.06 0  0.46 0.06 0  0.47 0.06 0  0.48 0.06 0  0.49 0.06 0  0.5 0.06 0  0.51 0.06 0  0.52 0.06 0  0.53 0.06 0  0.54 0.06 0  0.55 0.06 0  0.5600000000000001 0.06 0  0.57 0.06 0  0.58 0.06 0  0.59 0.06 0  0.6 0.06 0  0.61 0.06 0  0.62 0.06 0  0.63 0.06 0  0.64 0.06 0  0.65 0.06 0  0.66 0.06 0  0.67 0.06 0  0.68 0.06 0  0.6899999999999999 0.06 0  0.7 0.06 0  0.71 0.06 0  0.72 0.06 0  0.73 0.06 0  0.74 0.06 0  0.75 0.06 0  0.76 0.06 0  0.77 0.06 0  0.78 0.06 0  0.79 0.06 0  0.8 0.06 0  0.8100000000000001 0.06 0  0.82 0.06 0  0.83 0.06 0  0.84 0.06 0  0.85 0.06 0  0.86 0.06 0  0.87 0.06 0  0.88 0.06 0  0.89 0.06 0  0.9 0.06 0  0.91 0.06 0  0.92 0.06 0  0.93 0.06 0  0.9399999999999999 0.06 0  0.95 0.06 0  0.96 0.06 0  0.97 0.06 0  0.98 0.06 0  0.99 0.06 0  1 0.06 0  0 0.07000000000000001 0  0.01 0.07000000000000001 0  0.02 0.07000000000000001 0  0.03 0.07000000000000001 0  0.04 0.07000000000000001 0  0.05 0.07000000000000001 0  0.06 0.07000000000000001 0  0.07000000000000001 0.07000000000000001 0  0.08 0.07000000000000001 0  0.09 0.07000000000000001 0  0.1 0.07000000000000001 0  0.11 0.07000000000000001 0  0.12 0.07000000000000001 0  0.13 0.07000000000000001 0  0.14 0.07000000000000001 0  0.15 0.07000000000000001 0  0.16 0.07000000000000001 0  0.17 0.0700
[...]
<PointData  Scalars="u"> 
<DataArray  type="Float64"  Name="u"  format="ascii">0.0000000000000000e+00  0.0000000000000000e+00  0.0000000000000000e+00  0.0000000000000000e+00  0.0000000000000000e+00  0.0000000000000000e+00  0.0000000000000000e+00  0.0000000000000000e+00  0.0000000000000000e+00  0.0000000000000000e+00  0.0000000000000000e+00  0.0000000000000000e+00  0.0000000000000000e+00  0.0000000000000000e+00  0.0000000000000000e+00  0.0000000000000000e+00  0.0000000000000000e+00  0.0000000000000000e+00  0.0000000000000000e+00  0.0000000000000000e+00  0.0000000000000000e+00  0.0000000000000000e+00  0.0000000000000000e+00  0.0000000000000000e+00  0.0000000000000000e+00  0.0000000000000000e+00  0.0000000000000000e+00  0.0000000000000000e+00  0.0000000000000000e+00  0.0000000000000000e+00  0.0000000000000000e+00  0.0000000000000000e+00  0.0000000000000000e+00  0.0000000000000000e+00  0.0000000000000000e+00  0.0000000000000000e+00  0.0000000000000000e+00  0.0000000000000000e+00  0.0000000000000000e+00  0.0000000000000000e+00  0.0000000000000000e+00  0.0000000000000000e+00  0.0000000000000000e+00  0.0000000000000000e+00  0.0000000000000000e+00  0.0000000000000000e+00  0.0000000000000000e+00  0.0000000000000000e+00  0.0000000000000000e+00  0.0000000000000000e+00  0.0000000000000000e+00  0.0000000000000000e+00  0.0000000000000000e+00  0.0000000000000000e+00  0.0000000000000000e+00  0.0000000000000000e+00  0.0000000000000000e+00  0.0000000000000000e+00  0.0000000000000000e+00  0.0000000000000000e+00  0.0000000000000000e+00  0.0000000000000000e+00  0.0000000000000000e+00  0.0000000000000000e+00  0.0000000000000000e+00  0.0000000000000000e+00  0.0000000000000000e+00  0.0000000000000000e+00  0.0000000000000000e+00  0.0000000000000000e+00  0.0000000000000000e+00  0.0000000000000000e+00  0.0000000000000000e+00  0.0000000000000000e+00  0.0000000000000000e+00  0.0000000000000000e+00  0.0000000000000000e+00  0.0000000000000000e+00  0.0000000000000000e+00  0.0000000000000000e+00  0.0000000000000000e+00  0.0000000000000000e+00  0.0000000000000000e+00  0.0000000000000000e+00  0.0000000000000000e+00  0.0000000000000000e+00  0.0000000000000000e+00  0.0000000000000000e+00  0.0000000000000000e+00  0.0000000000000000e+00  0.0000000000000000e+00  0.0000000000000000e+00  0.0000000000000000e+00  0.0000000000000000e+00  0.0000000000000000e+00  0.0000000000000000e+00  0.0000000000000000e+00  0.0000000000000000e+00  0.0000000000000000e+00  0.0000000000000000e+00  0.0000000000000000e+00  0.0000000000000000e+00  5.0594914548452525e-15  1.0126336894053526e-14  1.5947844505511390e-14  2.3243680718756819e-14  3.2807747429001944e-14  4.5593093261594218e-14  6.2797414375444470e-14  8.5956964084969897e-14  1.1705527877084980e-13  1.5865227489900754e-13  2.1403872233546337e-13  2.8742062513002044e-13  3.8413744934167102e-13  5.1091725279020495e-13  6.7617042633983133e-13  8.9032178892163480e-13  1.1661780387131537e-12  1.5193239241270949e-12  1.9685358769626145e-12  2.5361962314296069e-12  3.2486846214241262e-12  4.1367159218068953e-12  5.2355865595872757e-12  6.5852837397416014e-12  8.2304058811178564e-12  1.0219838305014687e-11  1.2606127078897333e-11  1.5444497082851898e-11  1.8791468990131227e-11  2.2703044895899365e-11  2.7232454373510101e-11  3.2427481794260108e-11  3.8327431062435116e-11  4.4959823836477683e-11  5.2336969205447862e-11  6.0452583126787046e-11  6.9278670440264632e-11  7.8762906304946755e-11  8.8826762912971001e-11  9.9364617453680910e-11  1.1024404597963150e-10  1.2130745438603476e-10  1.3237512378263158e-10  1.4324965722015239e-10  1.5372171449524532e-10  1.6357681994645677e-10  1.7260293421751201e-10  1.8059840442550650e-10  1.8737985649165946e-10  1.9278957488067512e-10  1.9670193193136007e-10  1.9902848106982273e-10  1.9972141156307286e-10  1.9877516992955472e-10  1.9622617506309382e-10  1.9215067960302892e-10  1.8666094807320278e-10  1.7990002293890440e-10  1.7203542528773829e-10  1.6325218249407473e-10  1.5374558932333161e-10  1.4371409290477377e-10  1.3335264992674564e-10  1.2284684230960514e-10  1.1236796262403766e-10  1.0206920004172872e-10  9.2082978527077180e-11  8.2519427103572605e-11  7.3465901678209506e-11  6.4987431758144490e-11  5.7127934508888069e-11  4.9912022622511872e-11  4.3347229899884761e-11  3.7426487035543558e-11  3.2130697133103498e-11  2.7431283170489579e-11  2.3292605326512224e-11  1.9674172461377900e-11  1.6532597254536499e-11  1.3823267184209312e-11  1.1501722815046331e-11  9.5247503160279527e-12  7.8512066990227161e-12  6.4426041687540545e-12  5.2634846203335954e-12  4.2816172388431027e-12  3.4680519240358445e-12  2.7970594600502116e-12  2.2459865224323876e-12  1.7950502659692987e-12  1.4270938298319314e-12  1.1273210754803291e-12  8.8302670281802243e-13  6.8333711769123855e-13  5.1897876064357181e-13  3.8209503771862789e-13  2.6614189802507645e-13  1.6590732159354530e-13  7.7723511685724184e-14  0.0000000000000000e+00  0.0000000000000000e+00  1.0203065395384718e-14  2.0440541313554940e-14  3.2223230788545840e-14  4.7018948359861998e-14  6.6451621662155255e-14  9.2476532288630643e-14  1.2755750839683264e-13  1.7486253199115034e-13  2.3849124200758225e-13  3.2374614909171475e-13  4.3745835432839945e-13  5.8837769853339923e-13  7.8763615412427201e-13  1.0492915343108198e-12  1.3909558720034793e-12  1.8345087575689580e-12  2.4068901819239603e-12  3.1409597148953258e-12  4.0763989495817310e-12  5.2606219953758013e-12  6.7496445503014420e-12  8.6088461594536738e-12  1.0913543464586215e-11  1.3749275788059226e-11  1.7211689947563190e-11  2.1405900886002229e-11  2.6445201010257649e-11  3.2448996757647407e-11  3.9539868501334137e-11  4.7839681733200238e-11  5.7464724992517281e-11  6.8519913454249873e-11  8.1092174972320388e-11  9.5243224169351878e-11  1.1100202413766294e-10  1.2835732659464717e-10  1.4725076031781715e-10  1.6757099379912311e-10  1.8914952085530263e-10  2.1175859842608446e-10  2.3511179790840535e-10  2.5886751328693108e-10  2.8263560446703712e-10  3.0598715175673880e-10  3.2846707199960701e-10  3.4960911745146233e-10  3.6895256672777527e-10  3.8605974484346699e-10  4.0053339590018741e-10  4.1203289174551950e-10  4.2028830030644837e-10  4.2511145742198903e-10  4.2640337660431027e-10  4.2415757552322846e-10  4.1845917387775793e-10  4.0947989951887085e-10  3.9746940307334830e-10  3.8274350360075680e-10  3.6567015189951811e-10  3.4665399361560985e-10  3.2612043831229249e-10  3.0450009718744557e-10  2.8221435115480772e-10  2.5966266675297417e-10  2.3721210630129321e-10  2.1518929768802721e-10  1.9387495355484192e-10  1.7350087213245166e-10  1.5424922178346085e-10  1.3625381382501755e-10  1.1960300520222126e-10  1.0434384269012835e-10  9.0487059723208072e-11  7.8012560284094291e-11  6.6875065319368173e-11  5.7009649578771279e-11  4.8336954743500984e-11  4.0767923214014826e-11  3.4207952030758470e-11  2.8560415304493723e-11  2.3729544530720303e-11  1.9622688510681148e-11  1.6151998336379872e-11  1.3235598637443232e-11  1.0798315039363478e-11  8.7720307663415558e-12  7.0957438332890287e-12  5.7153915791957513e-12  4.5835025767965388e-12  3.6587282755534884e-12  2.9052990584544313e-12  2.2924426265249012e-12  1.7937977104095617e-12  1.3868541527189292e-12  1.0524528635576418e-12  7.7438807716977451e-13  5.3917269957453983e-13  3.3605960960100207e-13  1.5746362675628558e-13  0.0000000000000000e+00  0.0000000000000000e+00  1.6099354414128333e-14  3.2285044013220939e-14  5.0966948666287411e-14  7.4498918838028981e-14  1.0549784631494064e-13  1.4712922862533010e-13  2.0339839706058896e-13  2.7947454411941830e-13  3.8207018157922415e-13  5.1989622519394606e-13  7.0421152214792846e-13  9.4948451915856754e-13  1.2741832311409487e-12  1.7017070735137022e-12  2.2614698310508132e-12  2.9901364133310309e-12  3.9330064646361071e-12  5.1455247856744883e-12  6.6948814480172144e-12  8.6616432344674602e-12  1.1141332773222445e-11  1.4245843105647818e-11  1.8104544739237038e-11  2.2864911566759980e-11  2.8692464314989799e-11  3.5769809216368220e-11  4.4294539913813952e-11  5.4475777231151203e-11  6.6529149427210670e-11  8.0670069378607338e-11  9.7105247928573495e-11  1.1602249529827156e-10  1.3757900279873122e-10  1.6188845911887714e-10  1.8900752899810107e-10  2.1892239277322542e-10  2.5153619530513364e-10  2.8665836222936105e-10  3.2399679036976213e-10  3.6315389003945201e-10  4.0362733766639204e-10  4.4481618351565053e-10  4.8603265703147004e-10  5.2651963827896854e-10  5.6547334549837583e-10  6.0207036186118153e-10  6.3549773022185289e-10  6.6498452457205967e-10  6.8983309793439533e-10  7.0944813584619701e-10  7.2336172602484700e-10  7.3125288597140065e-10  7.3296035267493907e-10  7.2848789950830108e-10  7.1800196177624644e-10  7.0182187595941416e-10  6.8040352088072527e-10  6.5431755028732182e-10  6.2422369467761934e-10  5.9084276789945769e-10  5.5492803761613912e-10  5.1723751801316240e-10  4.7850853882219701e-10  4.3943566504359020e-10  4.0065271840087741e-10  3.6271931612568369e-10  3.2611202335592657e-10  2.9121993478390074e-10  2.5834427481291985e-10  2.2770144170628586e-10  1.9942882162458080e-10  1.7359265899889882e-10  1.5019728217005267e-10  1.2919503685155706e-10  1.1049636288338288e-10  9.3979550263170168e-11  7.9499818056875202e-11  6.6897465771803456e-11  5.6004944489570721e-11  4.6652780015334149e-11  3.8674349997316514e-11  3.1909570592665422e-11  2.6207586314600609e-11  2.1428580650957985e-11  1.7444836945470426e-11  1.4141181215633028e-11  1.1414933426303274e-11  9.1754835068792585e-12  7.3435951350394272e-12  5.8505258070556601e-12  4.6370375532686991e-12  3.6523602931017287e-12  2.8531607433846533e-12  2.2025657420167526e-12  1.6692921515817899e-12  1.2269495159133259e-12  8.5361134787022046e-13  5.3180379588692406e-13  2.4914753739053685e-13  0.0000000000000000e+00  0.0000000000000000e+00  2.3409392126538499e-14  4.6999599617800878e-14  7.4327075077341476e-14  1.0888477848484635e-13  1.5457957259344205e-13  2.1616480209602077e-13  2.9968594165566067e-13  4.1298121333572315e-13  5.6627275239619697e-13  7.7288075874406977e-13  1.0500915619073369e-12  1.4202094326852276e-12  1.9118202285229339e-12  2.5612915367898767e-12  3.4145278338070986e-12  4.5289892213700520e-12  5.9759674358602782e-12  7.8430920036102203e-12  1.0237011772563221e-11  1.3286162064774990e-11  1.7143485413495992e-11  2.1988925140571167e-11  2.8031457855027231e-11  3.5510376616090543e-11  4.4695485835373115e-11  5.5885828408762967e-11  6.9406542925585537e-11  8.5603452993554780e-11  1.0483503094831165e-10  1.2746146294275847e-10  1.5383067797156178e-10  1.8426139241435627e-10  2.1902346148313897e-10  2.5831611009426311e-10  3.0224492105896756e-10  3.5079876327763243e-10  4.0382811532908132e-10  4.6102644461940489e-10  5.2191640252632786e-10  5.8584255912701214e-10  6.5197220368224511e-10  7.1930536983494099e-10  7.8669471644160418e-10  8.5287523534931737e-10  9.1650301524305190e-10  9.7620153108878123e-10  1.0306132266285900e-09  1.0784535889236591e-09  1.1185645465827247e-09  1.1499639066038554e-09  1.1718877028206684e-09  1.1838227561967841e-09  1.1855274080903150e-09  1.1770392204720227e-09  1.1586693617395899e-09  1.1309843244940563e-09  1.0947764660656867e-09  1.0510255498593719e-09  1.0008539423927151e-09  9.4547835913311251e-10  8.8616105019246321e-10  8.2416309696808303e-10  7.6070209429997152e-10  6.9691597326626570e-10  6.3383413587453607e-10  5.7235648116404662e-10  5.1324035159410079e-10  4.5709495668411110e-10  4.0438246210951028e-10  3.5542467799298031e-10  3.1041413923587397e-10  2.6942833318557260e-10  2.3244587888539685e-10  1.9936357707454682e-10  1.7001340943701931e-10  1.4417874890022310e-10  1.2160923226928589e-10  1.0203392792833186e-10  8.5172594435637991e-11  7.0744964089591908e-11  5.8478095843472290e-11  4.8111923974697968e-11  3.9403184428224447e-11  3.2127932913214122e-11  2.6082881581422097e-11  2.1085778680814442e-11  1.6975042088727554e-11  1.3608836870177230e-11  1.0863762289012328e-11  8.6332878364262487e-12  6.8260532248342394e-12  5.3641260596834555e-12  4.1812951824391519e-12  3.2214699796973406e-12  2.4372596665695439e-12  1.7888266746586873e-12  1.2431524290255189e-12  7.7393368399508390e-13  3.6246112430591054e-13  0.0000000000000000e+00  0.0000000000000000e+00  3.2865898651512551e-14  6.6073614203115372e-14  1.0470331590090906e-13  1.5377422760421201e-13  2.1893894636349516e-13  3.0711986359653865e-13  4.2717224768672754e-13  5.9063704513951894e-13  8.1263802346287772e-13  1.1129742179135549e-12  1.5174574678082099e-12  2.0595443176001590e-12  2.7823100893165800e-12  3.7408089013194418e-12  5.0048551258464709e-12  6.6622474379530518e-12  8.8224343184901650e-12  1.1620587761346714e-11  1.5222008338902052e-11  1.9826728528915393e-11  2.5674111990629697e-11  3.3047165293283500e-11  4.2276188238495814e-11  5.3741294448196245e-11  6.7873243047803542e-11  8.5151945655035089e-11  1.0610196381085760e-10  1.3128430592761560e-10  1.6128388624330925e-10  1.9669213684524095e-10  2.3808448009010935e-10  2.8599267923663907e-10  3.4087248734997932e-10  4.0306749430455958e-10  4.7277060107936875e-10  5.4998508738221100e-10  6.3448772812416599e-10  7.2579679272682931e-10  8.2314796251301245e-10  9.2548116523994774e-10  1.0314410074369617e-09  1.1393928648797658e-09  1.2474557822960168e-09  1.3535521853099982e-09  1.4554731072100835e-09  1.5509562971208691e-09  1.6377733399015785e-09  1.7138209194689543e-09  1.7772107185889246e-09  1.8263522587565986e-09  1.8600232858322444e-09  1.8774230879934962e-09  1.8782053246031506e-09  1.8624884327423429e-09  1.8308433145839013e-09  1.7842596318684701e-09  1.7240934885678669e-09  1.6520004398251619e-09  1.5698585344591318e-09  1.4796864371513955e-09  1.3835615906873989e-09  1.2835429169747284e-09  1.1816017992344229e-09  1.0795641373706261e-09  9.7906523034872245e-10  8.8151821301915832e-10  7.8809584349203072e-10  6.9972466186560311e-10  6.1708995814597414e-10  5.4064960909841450e-10  4.7065466265932404e-10  4.0717454099583991e-10  3.5012486587382268e-10  2.9929614451166651e-10  2.5438185224686524e-10  2.1500477518536712e-10  1.8074080229314971e-10  1.5113965975786383e-10  1.2574234563529754e-10  1.0409524114713785e-10  8.5761043488236543e-11  7.0326785012355600e-11  5.7409279696342201e-11  4.6658376259729642e-11  3.7758405567837691e-11  3.0428195400891362e-11  2.4419995292818484e-11  1.9517614083059984e-11  1.5534028274018272e-11  1.2308674494141454e-11  9.7045977983158756e-12  7.6055921659056235e-12  5.9134432816747007e-12  4.5453699095490707e-12  3.4317635941460549e-12  2.5143541520789372e-12  1.7449915163035906e-12  1.0853502754736202e-12  5.0805859529181039e-13  0.0000000000000000e+00  0.0000000000000000e+00  4.5340187348861653e-14  9.1283787809316646e-14  1.4497212543679019e-13  2.1350551499188225e-13  3.0493933931446428e-13  4.2920759386697585e-13  5.9909669676013554e-13  8.3136339865543563e-13  1.1480798210475351e-12  1.5782849482033668e-12  2.1600219701375030e-12  2.9428420480813998e-12  3.9908549114791607e-12  5.3864027173112986e-12  7.2344231199545355e-12  9.6675475452475745e-12  1.2851948023854832e-11  1.6993897313751482e-11  2.2346939329452150e-11  2.9219477648130505e-11  3.7982477897105934e-11  4.9076845990991740e-11  6.3019892232373020e-11  8.0410128772715428e-11  1.0192948699969445e-10  1.2834189931586239e-10  1.6048708881987943e-10  1.9926837720978258e-10  2.4563338493923055e-10  3.0054668702798535e-10  3.6495382725796391e-10  4.3973659759215150e-10  5.2566015833866948e-10  6.2331338735941252e-10  7.3304475869484909e-10  8.5489699162730637e-10  9.8854458572046091e-10  1.1332390533296830e-09  1.2877670592722082e-09  1.4504266668213974e-09  1.6190263848747234e-09  1.7909106716828219e-09  1.9630139932108513e-09  2.1319435437601939e-09  2.2940884649015977e-09  2.4457510545776896e-09  2.5832932852620828e-09  2.7032901979533167e-09  2.8026806291679541e-09  2.8789054218472401e-09  2.9300238422754336e-09  2.9548003465542893e-09  2.9527559836439319e-09  2.9241813733712154e-09  2.8701110851619887e-09  2.7922620728833286e-09  2.6929413159700328e-09  2.5749297507067202e-09  2.4413507978882851e-09  2.2955322425629032e-09  2.1408699248724329e-09  1.9807007607571483e-09  1.8181911851132856e-09  1.6562453852061110e-09  1.4974358602874160e-09  1.3439570781536423e-09  1.1976014405269226e-09  1.0597555131987481e-09  9.3141357491270214e-10  8.1320499999554562e-10  7.0543178826626524e-10  6.0811264148915057e-10  5.2103029385336449e-10  4.4377926492331930e-10  3.7581175021777485e-10  3.1647993834369404e-10  2.6507359735286814e-10  2.2085227255084054e-10  1.8307186184681096e-10  1.5100567257501963e-10  1.2396031434590798e-10  1.0128695146931776e-10  8.2388535868288116e-11  6.6723679633014867e-11  5.3807818681806909e-11  4.3212278170224725e-11  3.4561787818758465e-11  2.7530920998751839e-11  2.1839853172055110e-11  1.7249759354054898e-11  1.3558101506712746e-11  1.0593999125074769e-11  8.2138335015667992e-12  6.2972126563342045e-12  4.7434259912926726e-12  3.4685551455915784e-12  2.4034959142277413e-12  1.4933102416509678e-12  6.9860620149769119e-13  0.0000000000000000e+00  0.0000000000000000e+00  6.1909861462597051e-14  1.2483396297314640e-13  1.9871751741313357e-13  2.9351388236142913e-13  4.2060217996234731e-13  5.9411705154944824e-13  8.3236817523925076e-13  1.1594883667550138e-12  1.6074358227627496e-12  2.2184733516104874e-12  3.0482504857163728e-12  4.1696192992226620e-12  5.6773179422474423e-12  7.6936535568948740e-12  1.0375304118219854e-11  1.3921332018438409e-11  1.8582455494162629e-11  2.4671551539915857e-11  3.2575260096776994e-11  4.2766419184284214e-11  5.5816881182103873e-11  7.2410041679224538e-11  9.3352158828162875e-11  1.1958126387568953e-10  1.5217218121720175e-10  1.9233591663289372e-10  2.4141147231088458e-10  3.0084805223241753e-10  3.7217568262867032e-10  4.5696254172100472e-10  5.5675781721333083e-10  6.7301972076043129e-10  8.0702939293580888e-10  9.5979280240662214e-10  1.1319343085544827e-09  1.3235872000681155e-09  1.5342880804336447e-09  1.7628832470094950e-09  2.0074559893129758e-09  2.2652838103677762e-09  2.5328337910922696e-09  2.8058025863065345e-09  3.0792048813022471e-09  3.3475106920288260e-09  3.6048279259472500e-09  3.8451225064442680e-09  4.0624645408049257e-09  4.2512859325051065e-09  4.4066329053169348e-09  4.5243964102366789e-09  4.6015044571009341e-09  4.6360629945517207e-09  4.6274358125873900e-09  4.5762586632188595e-09  4.4843878865559082e-09  4.3547887583366352e-09  4.1913730451050701e-09  3.9987984707087001e-09  3.7822447138056260e-09  3.5471810875402108e-09  3.2991402769009598e-09  3.0435106376703752e-09  2.7853568964044331e-09  2.5292759801156296e-09  2.2792914903794539e-09  2.0387873201400899e-09  1.8104783240644546e-09  1.5964139439800703e-09  1.3980093258426233e-09  1.2160977364238842e-09  1.0509979316665341e-09  9.0259044123918829e-10  7.7039739267564866e-10  6.5366137820587838e-10  5.5141985254869753e-10  4.6257254354903318e-10  3.8594028543498910e-10  3.2031449618462812e-10  2.6449718757758659e-10  2.1733190913443610e-10  1.7772638989754397e-10  1.4466786950582550e-10  1.1723222290519654e-10  9.4588004591779529e-11  7.5996491803531693e-11  6.0808713061437672e-11  4.8460327529727067e-11  3.8465087062169290e-11  3.0407478404997121e-11  2.3935016707572498e-11  1.8750549751454153e-11  1.4604840136025776e-11  1.1289624603547675e-11  8.6313112060046230e-12  6.4854742313033035e-12  4.7323568908280587e-12  3.2737143283353411e-12  2.0315594682538651e-12  9.4976712078968184e-13  0.0000000000000000e+00  0.0000000000000000e+00  8.3931886539890575e-14  1.6950693699818786e-13  2.7048380827349138e-13  4.0072597712592778e-13  5.7620774757102002e-13  8.1691827733978066e-13  1.1489197059628758e-12  1.6067639655561916e-12  2.2364574846570256e-12  3.0991632918811312e-12  4.2758391853679957e-12  5.8730230757372200e-12  8.0299870117249581e-12  1.0927484014270439e-11  1.4798300046195660e-11  1.9939789454409940e-11  2.6728507089685493e-11  3.5636944174974387e-11  4.7252217719098381e-11  6.2296345530176577e-11  8.1647453763259242e-11  1