<?xml version="1.0"?>
<VTKFile type="UnstructuredGrid"  version="0.1"  >
<UnstructuredGrid>
<Piece  NumberOfPoints="10201" NumberOfCells="20000">
<Points>
<DataArray  type="Float64"  NumberOfComponents="3"  format="ascii">0 0 0  0.01 0 0  0.02 0 0  0.03 0 0  0.04 0 0  0.05 0 0  0.06 0 0  0.07000000000000001 0 0  0.08 0 0  0.09 0 0  0.1 0 0  0.11 0 0  0.12 0 0  0.13 0 0  0.14 0 0  0.15 0 0  0.16 0 0  0.17 0 0  0.18 0 0  0.19 0 0  0.2 0 0  0.21 0 0  0.22 0 0  0.23 0 0  0.24 0 0  0.25 0 0  0.26 0 0  0.27 0 0  0.28 0 0  0.29 0 0  0.3 0 0  0.31 0 0  0.32 0 0  0.33 0 0  0.34 0 0  0.35 0 0  0.36 0 0  0.37 0 0  0.38 0 0  0.39 0 0  0.4 0 0  0.41 0 0  0.42 0 0  0.43 0 0  0.44 0 0  0.45 0 0  0.46 0 0  0.47 0 0  0.48 0 0  0.49 0 0  0.5 0 0  0.51 0 0  0.52 0 0  0.53 0 0  0.54 0 0  0.55 0 0  0.5600000000000001 0 0  0.57 0 0  0.58 0 0  0.59 0 0  0.6 0 0  0.61 0 0  0.62 0 0  0.63 0 0  0.64 0 0  0.65 0 0  0.66 0 0  0.67 0 0  0.68 0 0  0.6899999999999999 0 0  0.7 0 0  0.71 0 0  0.72 0 0  0.73 0 0  0.74 0 0  0.75 0 0  0.76 0 0  0.77 0 0  0.78 0 0  0.79 0 0  0.8 0 0  0.8100000000000001 0 0  0.82 0 0  0.83 0 0  0.84 0 0  0.85 0 0  0.86 0 0  0.87 0 0  0.88 0 0  0.89 0 0  0.9 0 0  0.91 0 0  0.92 0 0  0.93 0 0  0.9399999999999999 0 0  0.95 0 0  0.96 0 0  0.97 0 0  0.98 0 0  0.99 0 0  1 0 0  0 0.01 0  0.01 0.01 0  0.02 0.01 0  0.03 0.01 0  0.04 0.01 0  0.05 0.01 0  0.06 0.01 0  0.07000000000000001 0.01 0  0.08 0.01 0  0.09 0.01 0  0.1 0.01 0  0.11 0.01 0  0.12 0.01 0  0.13 0.01 0  0.14 0.01 0  0.15 0.01 0  0.16 0.01 0  0.17 0.01 0  0.18 0.01 0  0.19 0.01 0  0.2 0.01 0  0.21 0.01 0  0.22 0.01 0  0.23 0.01 0  0.24 0.01 0  0.25 0.01 0  0.26 0.01 0  0.27 0.01 0  0.28 0.01 0  0.29 0.01 0  0.3 0.01 0  0.31 0.01 0  0.32 0.01 0  0.33 0.01 0  0.34 0.01 0  0.35 0.01 0  0.36 0.01 0  0.37 0.01 0  0.38 0.01 0  0.39 0.01 0  0.4 0.01 0  0.41 0.01 0  0.42 0.01 0  0.43 0.01 0  0.44 0.01 0  0.45 0.01 0  0.46 0.01 0  0.47 0.01 0  0.48 0.01 0  0.49 0.01 0  0.5 0.01 0  0.51 0.01 0  0.52 0.01 0  0.53 0.01 0  0.54 0.01 0  0.55 0.01 0  0.5600000000000001 0.01 0  0.57 0.01 0  0.58 0.01 0  0.59 0.01 0  0.6 0.01 0  0.61 0.01 0  0.62 0.01 0  0.63 0.01 0  0.64 0.01 0  0.65 0.01 0  0.66 0.01 0  0.67 0.01 0  0.68 0.01 0  0.6899999999999999 0.01 0  0.7 0.01 0  0.71 0.01 0  0.72 0.01 0  0.73 0.01 0  0.74 0.01 0  0.75 0.01 0  0.76 0.01 0  0.77 0.01 0  0.78 0.01 0  0.79 0.01 0  0.8 0.01 0  0.8100000000000001 0.01 0  0.82 0.01 0  0.83 0.01 0  0.84 0.01 0  0.85 0.01 0  0.86 0.01 0  0.87 0.01 0  0.88 0.01 0  0.89 0.01 0  0.9 0.01 0  0.91 0.01 0  0.92 0.01 0  0.93 0.01 0  0.9399999999999999 0.01 0  0.95 0.01 0  0.96 0.01 0  0.97 0.01 0  0.98 0.01 0  0.99 0.01 0  1 0.01 0  0 0.02 0  0.01 0.02 0  0.02 0.02 0  0.03 0.02 0  0.04 0.02 0  0.05 0.02 0  0.06 0.02 0  0.07000000000000001 0.02 0  0.08 0.02 0  0.09 0.02 0  0.1 0.02 0  0.11 0.02 0  0.12 0.02 0  0.13 0.02 0  0.14 0.02 0  0.15 0.02 0  0.16 0.02 0  0.17 0.02 0  0.18 0.02 0  0.19 0.02 0  0.2 0.02 0  0.21 0.02 0  0.22 0.02 0  0.23 0.02 0  0.24 0.02 0  0.25 0.02 0  0.26 0.02 0  0.27 0.02 0  0.28 0.02 0  0.29 0.02 0  0.3 0.02 0  0.31 0.02 0  0.32 0.02 0  0.33 0.02 0  0.34 0.02 0  0.35 0.02 0  0.36 0.02 0  0.37 0.02 0  0.38 0.02 0  0.39 0.02 0  0.4 0.02 0  0.41 0.02 0  0.42 0.02 0  0.43 0.02 0  0.44 0.02 0  0.45 0.02 0  0.46 0.02 0  0.47 0.02 0  0.48 0.02 0  0.49 0.02 0  0.5 0.02 0  0.51 0.02 0  0.52 0.02 0  0.53 0.02 0  0.54 0.02 0  0.55 0.02 0  0.5600000000000001 0.02 0  0.57 0.02 0  0.58 0.02 0  0.59 0.02 0  0.6 0.02 0  0.61 0.02 0  0.62 0.02 0  0.63 0.02 0  0.64 0.02 0  0.65 0.02 0  0.66 0.02 0  0.67 0.02 0  0.68 0.02 0  0.6899999999999999 0.02 0  0.7 0.02 0  0.71 0.02 0  0.72 0.02 0  0.73 0.02 0  0.74 0.02 0  0.75 0.02 0  0.76 0.02 0  0.77 0.02 0  0.78 0.02 0  0.79 0.02 0  0.8 0.02 0  0.8100000000000001 0.02 0  0.82 0.02 0  0.83 0.02 0  0.84 0.02 0  0.85 0.02 0  0.86 0.02 0  0.87 0.02 0  0.88 0.02 0  0.89 0.02 0  0.9 0.02 0  0.91 0.02 0  0.92 0.02 0  0.93 0.02 0  0.9399999999999999 0.02 0  0.95 0.02 0  0.96 0.02 0  0.97 0.02 0  0.98 0.02 0  0.99 0.02 0  1 0.02 0  0 0.03 0  0.01 0.03 0  0.02 0.03 0  0.03 0.03 0  0.04 0.03 0  0.05 0.03 0  0.06 0.03 0  0.07000000000000001 0.03 0  0.08 0.03 0  0.09 0.03 0  0.1 0.03 0  0.11 0.03 0  0.12 0.03 0  0.13 0.03 0  0.14 0.03 0  0.15 0.03 0  0.16 0.03 0  0.17 0.03 0  0.18 0.03 0  0.19 0.03 0  0.2 0.03 0  0.21 0.03 0  0.22 0.03 0  0.23 0.03 0  0.24 0.03 0  0.25 0.03 0  0.26 0.03 0  0.27 0.03 0  0.28 0.03 0  0.29 0.03 0  0.3 0.03 0  0.31 0.03 0  0.32 0.03 0  0.33 0.03 0  0.34 0.03 0  0.35 0.03 0  0.36 0.03 0  0.37 0.03 0  0.38 0.03 0  0.39 0.03 0  0.4 0.03 0  0.41 0.03 0  0.42 0.03 0  0.43 0.03 0  0.44 0.03 0  0.45 0.03 0  0.46 0.03 0  0.47 0.03 0  0.48 0.03 0  0.49 0.03 0  0.5 0.03 0  0.51 0.03 0  0.52 0.03 0  0.53 0.03 0  0.54 0.03 0  0.55 0.03 0  0.5600000000000001 0.03 0  0.57 0.03 0  0.58 0.03 0  0.59 0.03 0  0.6 0.03 0  0.61 0.03 0  0.62 0.03 0  0.63 0.03 0  0.64 0.03 0  0.65 0.03 0  0.66 0.03 0  0.67 0.03 0  0.68 0.03 0  0.6899999999999999 0.03 0  0.7 0.03 0  0.71 0.03 0  0.72 0.03 0  0.73 0.03 0  0.74 0.03 0  0.75 0.03 0  0.76 0.03 0  0.77 0.03 0  0.78 0.03 0  0.79 0.03 0  0.8 0.03 0  0.8100000000000001 0.03 0  0.82 0.03 0  0.83 0.03 0  0.84 0.03 0  0.85 0.03 0  0.86 0.03 0  0.87 0.03 0  0.88 0.03 0  0.89 0.03 0  0.9 0.03 0  0.91 0.03 0  0.92 0.03 0  0.93 0.03 0  0.9399999999999999 0.03 0  0.95 0.03 0  0.96 0.03 0  0.97 0.03 0  0.98 0.03 0  0.99 0.03 0  1 0.03 0  0 0.04 0  0.01 0.04 0  0.02 0.04 0  0.03 0.04 0  0.04 0.04 0  0.05 0.04 0  0.06 0.04 0  0.07000000000000001 0.04 0  0.08 0.04 0  0.09 0.04 0  0.1 0.04 0  0.11 0.04 0  0.12 0.04 0  0.13 0.04 0  0.14 0.04 0  0.15 0.04 0  0.16 0.04 0  0.17 0.04 0  0.18 0.04 0  0.19 0.04 0  0.2 0.04 0  0.21 0.04 0  0.22 0.04 0  0.23 0.04 0  0.24 0.04 0  0.25 0.04 0  0.26 0.04 0  0.27 0.04 0  0.28 0.04 0  0.29 0.04 0  0.3 0.04 0  0.31 0.04 0  0.32 0.04 0  0.33 0.04 0  0.34 0.04 0  0.35 0.04 0  0.36 0.04 0  0.37 0.04 0  0.38 0.04 0  0.39 0.04 0  0.4 0.04 0  0.41 0.04 0  0.42 0.04 0  0.43 0.04 0  0.44 0.04 0  0.45 0.04 0  0.46 0.04 0  0.47 0.04 0  0.48 0.04 0  0.49 0.04 0  0.5 0.04 0  0.51 0.04 0  0.52 0.04 0  0.53 0.04 0  0.54 0.04 0  0.55 0.04 0  0.5600000000000001 0.04 0  0.57 0.04 0  0.58 0.04 0  0.59 0.04 0  0.6 0.04 0  0.61 0.04 0  0.62 0.04 0  0.63 0.04 0  0.64 0.04 0  0.65 0.04 0  0.66 0.04 0  0.67 0.04 0  0.68 0.04 0  0.6899999999999999 0.04 0  0.7 0.04 0  0.71 0.04 0  0.72 0.04 0  0.73 0.04 0  0.74 0.04 0  0.75 0.04 0  0.76 0.04 0  0.77 0.04 0  0.78 0.04 0  0.79 0.04 0  0.8 0.04 0  0.8100000000000001 0.04 0  0.82 0.04 0  0.83 0.04 0  0.84 0.04 0  0.85 0.04 0  0.86 0.04 0  0.87 0.04 0  0.88 0.04 0  0.89 0.04 0  0.9 0.04 0  0.91 0.04 0  0.92 0.04 0  0.93 0.04 0  0.9399999999999999 0.04 0  0.95 0.04 0  0.96 0.04 0  0.97 0.04 0  0.98 0.04 0  0.99 0.04 0  1 0.04 0  0 0.05 0  0.01 0.05 0  0.02 0.05 0  0.03 0.05 0  0.04 0.05 0  0.05 0.05 0  0.06 0.05 0  0.07000000000000001 0.05 0  0.08 0.05 0  0.09 0.05 0  0.1 0.05 0  0.11 0.05 0  0.12 0.05 0  0.13 0.05 0  0.14 0.05 0  0.15 0.05 0  0.16 0.05 0  0.17 0.05 0  0.18 0.05 0  0.19 0.05 0  0.2 0.05 0  0.21 0.05 0  0.22 0.05 0  0.23 0.05 0  0.24 0.05 0  0.25 0.05 0  0.26 0.05 0  0.27 0.05 0  0.28 0.05 0  0.29 0.05 0  0.3 0.05 0  0.31 0.05 0  0.32 0.05 0  0.33 0.05 0  0.34 0.05 0  0.35 0.05 0  0.36 0.05 0  0.37 0.05 0  0.38 0.05 0  0.39 0.05 0  0.4 0.05 0  0.41 0.05 0  0.42 0.05 0  0.43 0.05 0  0.44 0.05 0  0.45 0.05 0  0.46 0.05 0  0.47 0.05 0  0.48 0.05 0  0.49 0.05 0  0.5 0.05 0  0.51 0.05 0  0.52 0.05 0  0.53 0.05 0  0.54 0.05 0  0.55 0.05 0  0.5600000000000001 0.05 0  0.57 0.05 0  0.58 0.05 0  0.59 0.05 0  0.6 0.05 0  0.61 0.05 0  0.62 0.05 0  0.63 0.05 0  0.64 0.05 0  0.65 0.05 0  0.66 0.05 0  0.67 0.05 0  0.68 0.05 0  0.6899999999999999 0.05 0  0.7 0.05 0  0.71 0.05 0  0.72 0.05 0  0.73 0.05 0  0.74 0.05 0  0.75 0.05 0  0.76 0.05 0  0.77 0.05 0  0.78 0.05 0  0.79 0.05 0  0.8 0.05 0  0.8100000000000001 0.05 0  0.82 0.05 0  0.83 0.05 0  0.84 0.05 0  0.85 0.05 0  0.86 0.05 0  0.87 0.05 0  0.88 0.05 0  0.89 0.05 0  0.9 0.05 0  0.91 0.05 0  0.92 0.05 0  0.93 0.05 0  0.9399999999999999 0.05 0  0.95 0.05 0  0.96 0.05 0  0.97 0.05 0  0.98 0.05 0  0.99 0.05 0  1 0.05 0  0 0.06 0  0.01 0.06 0  0.02 0.06 0  0.03 0.06 0  0.04 0.06 0  0.05 0.06 0  0.06 0.06 0  0.07000000000000001 0.06 0  0.08 0.06 0  0.09 0.06 0  0.1 0.06 0  0.11 0.06 0  0.12 0.06 0  0.13 0.06 0  0.14 0.06 0  0.15 0.06 0  0.16 0.06 0  0.17 0.06 0  0.18 0.06 0  0.19 0.06 0  0.2 0.06 0  0.21 0.06 0  0.22 0.06 0  0.23 0.06 0  0.24 0.06 0  0.25 0.06 0  0.26 0.06 0  0.27 0.06 0  0.28 0.06 0  0.29 0.06 0  0.3 0.06 0  0.31 0.06 0  0.32 0.06 0  0.33 0.06 0  0.34 0.06 0  0.35 0.06 0  0.36 0.06 0  0.37 0.06 0  0.38 0.06 0  0.39 0.06 0  0.4 0.06 0  0.41 0.06 0  0.42 0.06 0  0.43 0.06 0  0.44 0.06 0  0.45 0.06 0  0.46 0.06 0  0.47 0.06 0  0.48 0.06 0  0.49 0.06 0  0.5 0.06 0  0.51 0.06 0  0.52 0.06 0  0.53 0.06 0  0.54 0.06 0  0.55 0.06 0  0.5600000000000001 0.06 0  0.57 0.06 0  0.58 0.06 0  0.59 0.06 0  0.6 0.06 0  0.61 0.06 0  0.62 0.06 0  0.63 0.06 0  0.64 0.06 0  0.65 0.06 0  0.66 0.06 0  0.67 0.06 0  0.68 0.06 0  0.6899999999999999 0.06 0  0.7 0.06 0  0.71 0.06 0  0.72 0.06 0  0.73 0.06 0  0.74 0.06 0  0.75 0.06 0  0.76 0.06 0  0.77 0.06 0  0.78 0.06 0  0.79 0.06 0  0.8 0.06 0  0.8100000000000001 0.06 0  0.82 0.06 0  0.83 0.06 0  0.84 0.06 0  0.85 0.06 0  0.86 0.06 0  0.87 0.06 0  0.88 0.06 0  0.89 0.06 0  0.9 0.06 0  0.91 0.06 0  0.92 0.06 0  0.93 0.06 0  0.9399999999999999 0.06 0  0.95 0.06 0  0.96 0.06 0  0.97 0.06 0  0.98 0.06 0  0.99 0.06 0  1 0.06 0  0 0.07000000000000001 0  0.01 0.07000000000000001 0  0.02 0.07000000000000001 0  0.03 0.07000000000000001 0  0.04 0.07000000000000001 0  0.05 0.07000000000000001 0  0.06 0.07000000000000001 0  0.07000000000000001 0.07000000000000001 0  0.08 0.07000000000000001 0  0.09 0.07000000000000001 0  0.1 0.07000000000000001 0  0.11 0.07000000000000001 0  0.12 0.07000000000000001 0  0.13 0.07000000000000001 0  0.14 0.07000000000000001 0  0.15 0.07000000000000001 0  0.16 0.07000000000000001 0  0.17 0.0700
[...]
<PointData  Scalars="u"> 
<DataArray  type="Float64"  Name="u"  format="ascii">0.0000000000000000e+00  0.0000000000000000e+00  0.0000000000000000e+00  0.0000000000000000e+00  0.0000000000000000e+00  0.0000000000000000e+00  0.0000000000000000e+00  0.0000000000000000e+00  0.0000000000000000e+00  0.0000000000000000e+00  0.0000000000000000e+00  0.0000000000000000e+00  0.0000000000000000e+00  0.0000000000000000e+00  0.0000000000000000e+00  0.0000000000000000e+00  0.0000000000000000e+00  0.0000000000000000e+00  0.0000000000000000e+00  0.0000000000000000e+00  0.0000000000000000e+00  0.0000000000000000e+00  0.0000000000000000e+00  0.0000000000000000e+00  0.0000000000000000e+00  0.0000000000000000e+00  0.0000000000000000e+00  0.0000000000000000e+00  0.0000000000000000e+00  0.0000000000000000e+00  0.0000000000000000e+00  0.0000000000000000e+00  0.0000000000000000e+00  0.0000000000000000e+00  0.0000000000000000e+00  0.0000000000000000e+00  0.0000000000000000e+00  0.0000000000000000e+00  0.0000000000000000e+00  0.0000000000000000e+00  0.0000000000000000e+00  0.0000000000000000e+00  0.0000000000000000e+00  0.0000000000000000e+00  0.0000000000000000e+00  0.0000000000000000e+00  0.0000000000000000e+00  0.0000000000000000e+00  0.0000000000000000e+00  0.0000000000000000e+00  0.0000000000000000e+00  0.0000000000000000e+00  0.0000000000000000e+00  0.0000000000000000e+00  0.0000000000000000e+00  0.0000000000000000e+00  0.0000000000000000e+00  0.0000000000000000e+00  0.0000000000000000e+00  0.0000000000000000e+00  0.0000000000000000e+00  0.0000000000000000e+00  0.0000000000000000e+00  0.0000000000000000e+00  0.0000000000000000e+00  0.0000000000000000e+00  0.0000000000000000e+00  0.0000000000000000e+00  0.0000000000000000e+00  0.0000000000000000e+00  0.0000000000000000e+00  0.0000000000000000e+00  0.0000000000000000e+00  0.0000000000000000e+00  0.0000000000000000e+00  0.0000000000000000e+00  0.0000000000000000e+00  0.0000000000000000e+00  0.0000000000000000e+00  0.0000000000000000e+00  0.0000000000000000e+00  0.0000000000000000e+00  0.0000000000000000e+00  0.0000000000000000e+00  0.0000000000000000e+00  0.0000000000000000e+00  0.0000000000000000e+00  0.0000000000000000e+00  0.0000000000000000e+00  0.0000000000000000e+00  0.0000000000000000e+00  0.0000000000000000e+00  0.0000000000000000e+00  0.0000000000000000e+00  0.0000000000000000e+00  0.0000000000000000e+00  0.0000000000000000e+00  0.0000000000000000e+00  0.0000000000000000e+00  0.0000000000000000e+00  0.0000000000000000e+00  0.0000000000000000e+00  6.3168226119409079e-17  1.4585537533034870e-16  2.6074532544060263e-16  4.2602423246507150e-16  6.6811212851195909e-16  1.0254627495954702e-15  1.5539553587692795e-15  2.3344971092747928e-15  3.4836657951841888e-15  5.1684927538425683e-15  7.6268243199466954e-15  1.1195116156429083e-14  1.6346013036284947e-14  2.3738645777829234e-14  3.4285225137375185e-14  4.9238202105284793e-14  7.0302946236363491e-14  9.9781491151529371e-14  1.4075329714578449e-13  1.9729903273554436e-13  2.7477288515380771e-13  3.8012763941235168e-13  5.2229445202887859e-13  7.1261561530700079e-13  9.6532341222648001e-13  1.2980512241620188e-12  1.7323543316957250e-12  2.2942075070758883e-12  3.0144349816323525e-12  3.9290164778576826e-12  5.0792019108884917e-12  6.5113586663046203e-12  8.2764709575952333e-12  1.0429212750894288e-11  1.3026526167331069e-11  1.6125657830888692e-11  1.9781637293781066e-11  2.4044224304059025e-11  2.8954403696218014e-11  3.4540564838290980e-11  4.0814561935688196e-11  4.7767905722096201e-11  5.5368378921796264e-11  6.3557390032309071e-11  7.2248376077870591e-11  8.1326530673849689e-11  9.0650067677790319e-11  1.0005313524332778e-10  1.0935037653732443e-10  1.1834300163942286e-10  1.2682610282677300e-10  1.3459682644524040e-10  1.4146292231211061e-10  1.4725113724851350e-10  1.5181491021681990e-10  1.5504086500457732e-10  1.5685367944481032e-10  1.5721902974161837e-10  1.5614445251706525e-10  1.5367812120405747e-10  1.4990568228309409e-10  1.4494542675963083e-10  1.3894217219710168e-10  1.3206029347533049e-10  1.2447636356700475e-10  1.1637185064464423e-10  1.0792627002706792e-10  9.9311116759668795e-11  9.0684816333880163e-11  8.2188836743924628e-11  7.3945013479668800e-11  6.6054057278970219e-11  5.8595147554578311e-11  5.1626465196185711e-11  4.5186487667539086e-11  3.9295855956952204e-11  3.3959624680177558e-11  2.9169720351295898e-11  2.4907455062608501e-11  2.1145970135078332e-11  1.7852513653758376e-11  1.4990484664912255e-11  1.2521203289266167e-11  1.0405388839469981e-11  8.6043465369485422e-12  7.0808774011839416e-12  5.7999354924982791e-12  4.7290623274159581e-12  3.8386304791127194e-12  3.1019276738923670e-12  2.4951095854965888e-12  1.9970443649684316e-12  1.5890648795189506e-12  1.2546355674041306e-12  9.7892932799401977e-13  7.4829515346426449e-13  5.4957800249721911e-13  3.6922684599647419e-13  1.9209151460569655e-13  0.0000000000000000e+00  0.0000000000000000e+00  1.3017978012850334e-16  3.0079297428861506e-16  5.3814373800321163e-16  8.8009055343833670e-16  1.3817159807493710e-15  2.1233228157981480e-15  3.2218009307961735e-15  4.8466860944546926e-15  7.2426870987646137e-15  1.0761041560764905e-14  1.5902796317001523e-14  2.3378015407480952e-14  3.4186010133451167e-14  4.9722960860467336e-14  7.1924736080194291e-14  1.0345425413463028e-13  1.4794427324491941e-13  2.1030787015491745e-13  2.9712983342550982e-13  4.1715242052619404e-13  5.8186797761199723e-13  8.0622827361888131e-13  1.1094754606968489e-12  1.5160917184120931e-12  2.0568532933862947e-12  2.7699593858673907e-12  3.7021870288265011e-12  4.9100000785031252e-12  6.4605146430990876e-12  8.4321964617514075e-12  1.0915140545502901e-11  1.4010763344736142e-11  1.7830727122048752e-11  2.2494919849804782e-11  2.8128336520227371e-11  3.4856753184673697e-11  4.2801155637891921e-11  5.2070980229097142e-11  6.2756341308599695e-11  7.4919550988741598e-11  8.8586371032244360e-11  1.0373755929808787e-10  1.2030136772888463e-10  1.3814769862476531e-10  1.5708461635272746e-10  1.7685783280106826e-10  1.9715363387131257e-10  2.1760549671627032e-10  2.3780437796449092e-10  2.5731235477175565e-10  2.7567900226683105e-10  2.9245962464103363e-10  3.0723425331255338e-10  3.1962620935927793e-10  3.2931901476281378e-10  3.3607053242239552e-10  3.3972341048979099e-10  3.4021118299394635e-10  3.3755970768107052e-10  3.3188396999791576e-10  3.2338061481114218e-10  3.1231685375217733e-10  2.9901661185358831e-10  2.8384490748618372e-10  2.6719149978604818e-10  2.4945479277218016e-10  2.3102686827623278e-10  2.1228034934793763e-10  1.9355759349602586e-10  1.7516250258297811e-10  1.5735503276929525e-10  1.4034830902821212e-10  1.2430810499861105e-10  1.0935434582719419e-10  9.5564230028895593e-11  8.2976543302241671e-11  7.1596746958863242e-11  6.1402458829999566e-11  5.2348997291553502e-11  4.4374721786036955e-11  3.7405969212225403e-11  3.1361449393758242e-11  2.6156020569398069e-11  2.1703814938607465e-11  1.7920723483800526e-11  1.4726278344676110e-11  1.2044990470280926e-11  9.8072111376989265e-12  7.9495894549612802e-12  6.4151954306090933e-12  5.1533707014309533e-12  4.1193573596861339e-12  3.2737398690784827e-12  2.5817156050719859e-12  2.0121852206107076e-12  1.5366231285899814e-12  1.1276482507308544e-12  7.5716208582585548e-13  3.9385065423119494e-13  0.0000000000000000e+00  0.0000000000000000e+00  2.0951621425489804e-16  4.8447672584603975e-16  8.6774327129950021e-16  1.4211708448904716e-15  2.2349735411508836e-15  3.4410051372245416e-15  5.2316948967712344e-15  7.8868814919127666e-15  1.1811572986923313e-14  1.7588673006606656e-14  2.6051994901959449e-14  3.8386475728144867e-14  5.6264427749210033e-14  8.2028932169631722e-14  1.1893805520896307e-13  1.7148635985186099e-13  2.4582302435973230e-13  3.5028847694142444e-13  4.9609339111329990e-13  6.9816456909926504e-13  9.7618090092766478e-13  1.3558182767038069e-12  1.8702139565148626e-12  2.5616473055810475e-12  3.4834138818295317e-12  4.7018427724790181e-12  6.2983724771008644e-12  8.3715590034862651e-12  1.1038842801834282e-11  1.4437851788319798e-11  1.8726970748263632e-11  2.4084869324188227e-11  3.0708659542917738e-11  3.8810358310677987e-11  4.8611369382484705e-11  6.0334780526922225e-11  7.4195399542480943e-11  9.0387627358891713e-11  1.0907148140720671e-10  1.3035732429437193e-10  1.5429010075927379e-10  1.8083411279074448e-10  2.0985953755354924e-10  2.4113198390990099e-10  2.7430636346983663e-10  3.0892620281579282e-10  3.4442923966938557e-10  3.8015973844842164e-10  4.1538745827738439e-10  4.4933265302653429e-10  4.8119593361686276e-10  5.1019133767440688e-10  5.3558058761387920e-10  5.5670632130325198e-10  5.7302207771327679e-10  5.8411701926556092e-10  5.8973375535711265e-10  5.8977815883087489e-10  5.8432068393490545e-10  5.7358933678846904e-10  5.5795505338140565e-10  5.3791074909007433e-10  5.1404567502915519e-10  4.8701692576093853e-10  4.5751998477638467e-10  4.2626008152740268e-10  3.9392589383668190e-10  3.6116679896856122e-10  3.2857449634575492e-10  2.9666943467673274e-10  2.6589211078750985e-10  2.3659899339685982e-10  2.0906257970954516e-10  1.8347492386385715e-10  1.5995388338746241e-10  1.3855130566803476e-10  1.1926240926494962e-10  1.0203569048685975e-10  8.6782789318820156e-11  7.3387866750728044e-11  6.1716166084352058e-11  5.1621544698056282e-11  4.2952863585014120e-11  3.5559205906406612e-11  2.9293961208045956e-11  2.4017858991402201e-11  1.9601065409004669e-11  1.5924472120589115e-11  1.2880309260324362e-11  1.0372207427822842e-11  8.3148186718229353e-12  6.6330850394411998e-12  5.2612160821705281e-12  4.1414034403318569e-12  3.2222598100494079e-12  2.4569183941870208e-12  1.8006628861339756e-12  1.2078707688690720e-12  6.2793536309461260e-13  0.0000000000000000e+00  0.0000000000000000e+00  3.1021501801570786e-16  7.1799073208581590e-16  1.2878202348223525e-15  2.1130493806671140e-15  3.3302369722167145e-15  5.1396152383885644e-15  7.8343718513882848e-15  1.1842304661086470e-14  1.7784666779795931e-14  2.6558662795418069e-14  3.9452151444107437e-14  5.8301727256646782e-14  8.5708549019834700e-14  1.2533007799938851e-13  1.8227024589787130e-13  2.6359536013577877e-13  3.7900800500304126e-13  5.4171585897203043e-13  7.6953603053967592e-13  1.0862772403220578e-12  1.5234406483142622e-12  2.1222737210584033e-12  2.9361983557846225e-12  4.0336124717216433e-12  5.5010314437787468e-12  7.4464904746264407e-12  1.0003070487509471e-11  1.3332338953075985e-11  1.7627415787521398e-11  2.3115288168784767e-11  3.0057914879073861e-11  3.8751591771293269e-11  4.9524009130945038e-11  6.2728434859711972e-11  7.8734520523620896e-11  9.7915364195851368e-11  1.2063068340820930e-10  1.4720625392055894e-10  1.7791014488050022e-10  2.1292670474315469e-10  2.5232968817793939e-10  2.9605631367502280e-10  3.4388434891427224e-10  3.9541447961927785e-10  4.5006017849552568e-10  5.0704702116423446e-10  5.6542288724810229e-10  6.2407975818187898e-10  6.8178693143522769e-10  7.3723449419073251e-10  7.8908493850863669e-10  8.3602996266114527e-10  8.7684889075736848e-10  9.1046483466934211e-10  9.3599476472352814e-10  9.5279005372925672e-10  9.6046477525924635e-10  9.5890999658216514e-10  9.4829340681453111e-10  9.2904474591764447e-10  9.0182853637603073e-10  8.6750646933504236e-10  8.2709239056088499e-10  7.8170313243429347e-10  7.3250844482737753e-10  6.8068302001171968e-10  6.2736313867300535e-10  5.7360985434200245e-10  5.2037995558172089e-10  4.6850526843274461e-10  4.1868024413387169e-10  3.7145726171583214e-10  3.2724868718190845e-10  2.8633447948731939e-10  2.4887401303285272e-10  2.1492078079341818e-10  1.8443872858929859e-10  1.5731912340225421e-10  1.3339705120998438e-10  1.1246684928075159e-10  9.4295985045740105e-11  7.8637084179479112e-11  6.5237974870770852e-11  5.3849748390634639e-11  4.4232936567875201e-11  3.6161976048599573e-11  2.9428170479937086e-11  2.3841379267787981e-11  1.9230659853162495e-11  1.5444073787706167e-11  1.2347838797589592e-11  9.8249719772823301e-12  7.7735243939493644e-12  6.1044542791925564e-12  4.7391223690828001e-12  3.6063143988995912e-12  2.6385952881614708e-12  1.7676671840108454e-12  9.1822559413585481e-13  0.0000000000000000e+00  0.0000000000000000e+00  4.4292846752081524e-16  1.0262400380703591e-15  1.8437512235668127e-15  3.0316921084250201e-15  4.7900587239880711e-15  7.4131844590116357e-15  1.1333678419183907e-14  1.7185202269211528e-14  2.5891549350947735e-14  3.8792092677196388e-14  5.7817010800126870e-14  8.5729910196452147e-14  1.2646064719089135e-13  1.8555737016960757e-13  2.7079402227255762e-13  3.9297758793766273e-13  5.6700783786727828e-13  8.1325052753303110e-13  1.1592918393055194e-12  1.6421457460297645e-12  2.3109847763853888e-12  3.2304556628666788e-12  4.4846213148805752e-12  6.1815359059368954e-12  8.4584070229833720e-12  1.1487224770896682e-11  1.5480640728907015e-11  2.0697760238353499e-11  2.7449373499967242e-11  3.6102002585531399e-11  4.7079996146096108e-11  6.0864780306668879e-11  7.7990297060495625e-11  9.9033658066046182e-11  1.2460014049910030e-10  1.5530187752471718e-10  1.9172996545900562e-10  2.3442022497819616e-10  2.8381349751184667e-10  3.4021208979943808e-10  4.0373473509143981e-10  4.7427313330316322e-10  5.5145366582851370e-10  6.3460815331626910e-10  7.2275744947967838e-10  8.1461118336615445e-10  9.0858606275545534e-10  1.0028438724507853e-09  1.0953487393139138e-09  1.1839415368642350e-09  1.2664276463651616e-09  1.3406728704899704e-09  1.4047012868441065e-09  1.4567883675407170e-09  1.4955428509309381e-09  1.5199716309326076e-09  1.5295232507559460e-09  1.5241073083460470e-09  1.5040890124421201e-09  1.4702600637368481e-09  1.4237887771576003e-09  1.3661537447780895e-09  1.2990662527241291e-09  1.2243870599591423e-09  1.1440430341796245e-09  1.0599485858150213e-09  9.7393594985936461e-10  8.8769726285689132e-10  8.0274019833374466e-10  7.2035777611568621e-10  6.4161194416067327e-10  5.6732971132232989e-10  4.9811002049363320e-10  4.3433919998428892e-10  3.7621269957326716e-10  3.2376087269053370e-10  2.7687676436204041e-10  2.3534415960686557e-10  1.9886449480293015e-10  1.6708159691565895e-10  1.3960356219785231e-10  1.1602139555634264e-10  9.5924291187890540e-11  7.8911638578694708e-11  6.4601985616349610e-11  5.2639286621000850e-11  4.2696814384491741e-11  3.4479129825898057e-11  2.7722488708827101e-11  2.2194029309421063e-11  1.7690033853544118e-11  1.4033493987106926e-11  1.1071138353143259e-11  8.6699978876776677e-12  6.7134882502004492e-12  5.0968721363606749e-12  3.7218164902630167e-12  2.4895657103177584e-12  1.2919911459347479e-12  0.0000000000000000e+00  0.0000000000000000e+00  6.2092742914037323e-16  1.4403220206147180e-15  2.5923967440018672e-15  4.2727233767702614e-15  6.7695155164268786e-15  1.0508643548230887e-14  1.6118629333950219e-14  2.4523945202693429e-14  3.7078039977341716e-14  5.5751592093918996e-14  8.3396766587635973e-14  1.2411495411692725e-13  1.8376379842310299e-13  2.7064940807468881e-13  3.9646149976060388e-13  5.7752260955758966e-13  8.3643686737678267e-13  1.2042381009832268e-12  1.7231495095391998e-12  2.4500752941243436e-12  3.4609449689489558e-12  4.8560190924123652e-12  6.7662353796816236e-12  9.3606204164984033e-12  1.2854708157303013e-11  1.7519786457798661e-11  2.3692633461242487e-11  3.1785206765235919e-11  4.2293515511650652e-11  5.5804651901340470e-11  7.3000706246024530e-11  9.4658070521262736e-11  1.2164049079062910e-10  1.5488420700341286e-10  1.9537366977280921e-10  2.4410669295148619e-10  3.0204851895105080e-10  3.7007514706944884e-10  4.4890737568647455e-10  5.3903826805768788e-10  6.4065805657855928e-10  7.5358170192935889e-10  8.7718524700550515e-10  1.0103575732028515e-09  1.1514740244550987e-09  1.2983975113989451e-09  1.4485111223258201e-09  1.5987840240040021e-09  1.7458697095099749e-09  1.8862327055287462e-09  2.0162970109867966e-09  2.1326071423085050e-09  2.2319910163239712e-09  2.3117132393340646e-09  2.3696078035555951e-09  2.4041806977492677e-09  2.4146753601274257e-09  2.4010969688352625e-09  2.3641949350328672e-09  2.3054062680264425e-09  2.2267653791102443e-09  2.1307881083328331e-09  2.0203391233329988e-09  1.8984922913204327e-09  1.7683932122523197e-09  1.6331319610860794e-09  1.4956324187825301e-09  1.3585626033365659e-09  1.2242683688118178e-09  1.0947309191558096e-09  9.7154693564413580e-10  8.5592883897541466e-10  7.4872184165348866e-10  6.5043398766211802e-10  5.6127528159610746e-10  4.8120221078857007e-10  4.0996438190584674e-10  3.4715054707675840e-10  2.9223191004884554e-10  2.4460121875701221e-10  2.0360672081819084e-10  1.6858055209980754e-10  1.3886152909853259e-10  1.1381261865098138e-10  9.2833567634509467e-11  7.5369300946110512e-11  6.0914751639058993e-11  4.9016787227925769e-11  3.9273854820272090e-11  3.1333897052060554e-11  2.4891000308408737e-11  1.9681132752459030e-11  1.5477215087439359e-11  1.2083640709540897e-11  9.3302186691642580e-12  7.0653424700825947e-12  5.1479743122563731e-12  3.4377552660874114e-12  1.7821760580345114e-12  0.0000000000000000e+00  0.0000000000000000e+00  8.6121924947747309e-16  2.0001756871543646e-15  3.6070296767939579e-15  5.9598974919981067e-15  9.4702955408933283e-15  1.4748870400744589e-14  2.2700761038087415e-14  3.4663167392861577e-14  5.2602485346761108e-14  7.9394714196902585e-14  1.1922112148912548e-13  1.7812175410024557e-13  2.6476268515522363e-13  3.9148916545236977e-13  5.7575619385563576e-13  8.4205018122268712e-13  1.2244395675069222e-12  1.7699168899675347e-12  2.5427172531614547e-12  3.6298144136384069e-12  5.1478001251211177e-12  7.2513375557081293e-12  1.0143336288878749e-11  1.4086914062639666e-11  1.9419077836310825e-11  2.6565863733033246e-11  3.6058414628036109e-11  4.8549144201250116e-11  6.4826744878050894e-11  8.5828364649875587e-11  1.1264684044603971e-10  1.4653048718635809e-10  1.8887267253121671e-10  2.4118834141269955e-10  3.0507488049061611e-10  3.8215531213672343e-10  4.7400283809463439e-10  5.8204723010171865e-10  7.0746544411858686e-10  8.5106099903835080e-10  1.0131389153161825e-09  1.1933850907042976e-09  1.3907605909212054e-09  1.6034221374226690e-09  1.8286798095266502e-09  2.0630014664320012e-09  2.3020706015462085e-09  2.5409004067300100e-09  2.7740020678628540e-09  2.9956002120699539e-09  3.1998835593029833e-09  3.3812747986948940e-09  3.5347010495800339e-09  3.6558453642188275e-09  3.7413607551035739e-09  3.7890311087506412e-09  3.7978677658499514e-09  3.7681359974209647e-09  3.7013114637017447e-09  3.5999723561088482e-09  3.4676377062884999e-09  3.3085658527265914e-09  3.1275290245214871e-09  2.9295803769783218e-09  2.7198287262372638e-09  2.5032339603797765e-09  2.2844330261683544e-09  2.0676029116389468e-09  1.8563635526293432e-09  1.6537204106558694e-09  1.4620438358194718e-09  1.2830803780099585e-09  1.1179899843859435e-09  9.6740248332370132e-10  8.3148680906685408e-10  7.1002693668026849e-10  6.0249933003751032e-10  5.0814771761025228e-10  4.2605208042227152e-10  3.5518976729022786e-10  2.9448757576075432e-10  2.4286441116526724e-10  1.9926474253353388e-10  1.6268351285268857e-10  1.3218344567933740e-10  1.0690584193401901e-10  8.6076005171780768e-11  6.9004396440333015e-11  5.5084524581174888e-11  4.3788444275839788e-11  3.4660577280714161e-11  2.7310401803621855e-11  2.1404374908237870e-11  1.6657261339646065e-11  1.2822831035745093e-11  9.6836414666091430e-12  7.0393161112692002e-12  4.6923331410816543e-12  2.4298026080032054e-12  0.0000000000000000e+00  0.0000000000000000e+00  1.1858572011636097e-15  2.7576963520580372e-15  4.9831630722755653e-15  8.2551887742775740e-15  1.3157614279636728e-14  2.0560606983909943e-14  3.1759783918669516e-14  4.8677934979067835e-14  7.4155596692193228e-14  1.1236655649121507e-13  1.6940729509032644e-13  2.5412607713118340e-13  3.7927854697018539e-13  5.6312283561034239e-13  8.3159862214741992e-13  1.2212710966170396e-12  1.7832612895358869e-12  2.5884264747966914e-12  3.7340942936378053e-12  5.3526855992957888e-12  7.6225747231712937e-12  1