<?xml version="1.0"?>
<VTKFile type="UnstructuredGrid"  version="0.1"  >
<UnstructuredGrid>
<Piece  NumberOfPoints="10201" NumberOfCells="20000">
<Points>
<DataArray  type="Float64"  NumberOfComponents="3"  format="ascii">0 0 0  0.01 0 0  0.02 0 0  0.03 0 0  0.04 0 0  0.05 0 0  0.06 0 0  0.07000000000000001 0 0  0.08 0 0  0.09 0 0  0.1 0 0  0.11 0 0  0.12 0 0  0.13 0 0  0.14 0 0  0.15 0 0  0.16 0 0  0.17 0 0  0.18 0 0  0.19 0 0  0.2 0 0  0.21 0 0  0.22 0 0  0.23 0 0  0.24 0 0  0.25 0 0  0.26 0 0  0.27 0 0  0.28 0 0  0.29 0 0  0.3 0 0  0.31 0 0  0.32 0 0  0.33 0 0  0.34 0 0  0.35 0 0  0.36 0 0  0.37 0 0  0.38 0 0  0.39 0 0  0.4 0 0  0.41 0 0  0.42 0 0  0.43 0 0  0.44 0 0  0.45 0 0  0.46 0 0  0.47 0 0  0.48 0 0  0.49 0 0  0.5 0 0  0.51 0 0  0.52 0 0  0.53 0 0  0.54 0 0  0.55 0 0  0.5600000000000001 0 0  0.57 0 0  0.58 0 0  0.59 0 0  0.6 0 0  0.61 0 0  0.62 0 0  0.63 0 0  0.64 0 0  0.65 0 0  0.66 0 0  0.67 0 0  0.68 0 0  0.6899999999999999 0 0  0.7 0 0  0.71 0 0  0.72 0 0  0.73 0 0  0.74 0 0  0.75 0 0  0.76 0 0  0.77 0 0  0.78 0 0  0.79 0 0  0.8 0 0  0.8100000000000001 0 0  0.82 0 0  0.83 0 0  0.84 0 0  0.85 0 0  0.86 0 0  0.87 0 0  0.88 0 0  0.89 0 0  0.9 0 0  0.91 0 0  0.92 0 0  0.93 0 0  0.9399999999999999 0 0  0.95 0 0  0.96 0 0  0.97 0 0  0.98 0 0  0.99 0 0  1 0 0  0 0.01 0  0.01 0.01 0  0.02 0.01 0  0.03 0.01 0  0.04 0.01 0  0.05 0.01 0  0.06 0.01 0  0.07000000000000001 0.01 0  0.08 0.01 0  0.09 0.01 0  0.1 0.01 0  0.11 0.01 0  0.12 0.01 0  0.13 0.01 0  0.14 0.01 0  0.15 0.01 0  0.16 0.01 0  0.17 0.01 0  0.18 0.01 0  0.19 0.01 0  0.2 0.01 0  0.21 0.01 0  0.22 0.01 0  0.23 0.01 0  0.24 0.01 0  0.25 0.01 0  0.26 0.01 0  0.27 0.01 0  0.28 0.01 0  0.29 0.01 0  0.3 0.01 0  0.31 0.01 0  0.32 0.01 0  0.33 0.01 0  0.34 0.01 0  0.35 0.01 0  0.36 0.01 0  0.37 0.01 0  0.38 0.01 0  0.39 0.01 0  0.4 0.01 0  0.41 0.01 0  0.42 0.01 0  0.43 0.01 0  0.44 0.01 0  0.45 0.01 0  0.46 0.01 0  0.47 0.01 0  0.48 0.01 0  0.49 0.01 0  0.5 0.01 0  0.51 0.01 0  0.52 0.01 0  0.53 0.01 0  0.54 0.01 0  0.55 0.01 0  0.5600000000000001 0.01 0  0.57 0.01 0  0.58 0.01 0  0.59 0.01 0  0.6 0.01 0  0.61 0.01 0  0.62 0.01 0  0.63 0.01 0  0.64 0.01 0  0.65 0.01 0  0.66 0.01 0  0.67 0.01 0  0.68 0.01 0  0.6899999999999999 0.01 0  0.7 0.01 0  0.71 0.01 0  0.72 0.01 0  0.73 0.01 0  0.74 0.01 0  0.75 0.01 0  0.76 0.01 0  0.77 0.01 0  0.78 0.01 0  0.79 0.01 0  0.8 0.01 0  0.8100000000000001 0.01 0  0.82 0.01 0  0.83 0.01 0  0.84 0.01 0  0.85 0.01 0  0.86 0.01 0  0.87 0.01 0  0.88 0.01 0  0.89 0.01 0  0.9 0.01 0  0.91 0.01 0  0.92 0.01 0  0.93 0.01 0  0.9399999999999999 0.01 0  0.95 0.01 0  0.96 0.01 0  0.97 0.01 0  0.98 0.01 0  0.99 0.01 0  1 0.01 0  0 0.02 0  0.01 0.02 0  0.02 0.02 0  0.03 0.02 0  0.04 0.02 0  0.05 0.02 0  0.06 0.02 0  0.07000000000000001 0.02 0  0.08 0.02 0  0.09 0.02 0  0.1 0.02 0  0.11 0.02 0  0.12 0.02 0  0.13 0.02 0  0.14 0.02 0  0.15 0.02 0  0.16 0.02 0  0.17 0.02 0  0.18 0.02 0  0.19 0.02 0  0.2 0.02 0  0.21 0.02 0  0.22 0.02 0  0.23 0.02 0  0.24 0.02 0  0.25 0.02 0  0.26 0.02 0  0.27 0.02 0  0.28 0.02 0  0.29 0.02 0  0.3 0.02 0  0.31 0.02 0  0.32 0.02 0  0.33 0.02 0  0.34 0.02 0  0.35 0.02 0  0.36 0.02 0  0.37 0.02 0  0.38 0.02 0  0.39 0.02 0  0.4 0.02 0  0.41 0.02 0  0.42 0.02 0  0.43 0.02 0  0.44 0.02 0  0.45 0.02 0  0.46 0.02 0  0.47 0.02 0  0.48 0.02 0  0.49 0.02 0  0.5 0.02 0  0.51 0.02 0  0.52 0.02 0  0.53 0.02 0  0.54 0.02 0  0.55 0.02 0  0.5600000000000001 0.02 0  0.57 0.02 0  0.58 0.02 0  0.59 0.02 0  0.6 0.02 0  0.61 0.02 0  0.62 0.02 0  0.63 0.02 0  0.64 0.02 0  0.65 0.02 0  0.66 0.02 0  0.67 0.02 0  0.68 0.02 0  0.6899999999999999 0.02 0  0.7 0.02 0  0.71 0.02 0  0.72 0.02 0  0.73 0.02 0  0.74 0.02 0  0.75 0.02 0  0.76 0.02 0  0.77 0.02 0  0.78 0.02 0  0.79 0.02 0  0.8 0.02 0  0.8100000000000001 0.02 0  0.82 0.02 0  0.83 0.02 0  0.84 0.02 0  0.85 0.02 0  0.86 0.02 0  0.87 0.02 0  0.88 0.02 0  0.89 0.02 0  0.9 0.02 0  0.91 0.02 0  0.92 0.02 0  0.93 0.02 0  0.9399999999999999 0.02 0  0.95 0.02 0  0.96 0.02 0  0.97 0.02 0  0.98 0.02 0  0.99 0.02 0  1 0.02 0  0 0.03 0  0.01 0.03 0  0.02 0.03 0  0.03 0.03 0  0.04 0.03 0  0.05 0.03 0  0.06 0.03 0  0.07000000000000001 0.03 0  0.08 0.03 0  0.09 0.03 0  0.1 0.03 0  0.11 0.03 0  0.12 0.03 0  0.13 0.03 0  0.14 0.03 0  0.15 0.03 0  0.16 0.03 0  0.17 0.03 0  0.18 0.03 0  0.19 0.03 0  0.2 0.03 0  0.21 0.03 0  0.22 0.03 0  0.23 0.03 0  0.24 0.03 0  0.25 0.03 0  0.26 0.03 0  0.27 0.03 0  0.28 0.03 0  0.29 0.03 0  0.3 0.03 0  0.31 0.03 0  0.32 0.03 0  0.33 0.03 0  0.34 0.03 0  0.35 0.03 0  0.36 0.03 0  0.37 0.03 0  0.38 0.03 0  0.39 0.03 0  0.4 0.03 0  0.41 0.03 0  0.42 0.03 0  0.43 0.03 0  0.44 0.03 0  0.45 0.03 0  0.46 0.03 0  0.47 0.03 0  0.48 0.03 0  0.49 0.03 0  0.5 0.03 0  0.51 0.03 0  0.52 0.03 0  0.53 0.03 0  0.54 0.03 0  0.55 0.03 0  0.5600000000000001 0.03 0  0.57 0.03 0  0.58 0.03 0  0.59 0.03 0  0.6 0.03 0  0.61 0.03 0  0.62 0.03 0  0.63 0.03 0  0.64 0.03 0  0.65 0.03 0  0.66 0.03 0  0.67 0.03 0  0.68 0.03 0  0.6899999999999999 0.03 0  0.7 0.03 0  0.71 0.03 0  0.72 0.03 0  0.73 0.03 0  0.74 0.03 0  0.75 0.03 0  0.76 0.03 0  0.77 0.03 0  0.78 0.03 0  0.79 0.03 0  0.8 0.03 0  0.8100000000000001 0.03 0  0.82 0.03 0  0.83 0.03 0  0.84 0.03 0  0.85 0.03 0  0.86 0.03 0  0.87 0.03 0  0.88 0.03 0  0.89 0.03 0  0.9 0.03 0  0.91 0.03 0  0.92 0.03 0  0.93 0.03 0  0.9399999999999999 0.03 0  0.95 0.03 0  0.96 0.03 0  0.97 0.03 0  0.98 0.03 0  0.99 0.03 0  1 0.03 0  0 0.04 0  0.01 0.04 0  0.02 0.04 0  0.03 0.04 0  0.04 0.04 0  0.05 0.04 0  0.06 0.04 0  0.07000000000000001 0.04 0  0.08 0.04 0  0.09 0.04 0  0.1 0.04 0  0.11 0.04 0  0.12 0.04 0  0.13 0.04 0  0.14 0.04 0  0.15 0.04 0  0.16 0.04 0  0.17 0.04 0  0.18 0.04 0  0.19 0.04 0  0.2 0.04 0  0.21 0.04 0  0.22 0.04 0  0.23 0.04 0  0.24 0.04 0  0.25 0.04 0  0.26 0.04 0  0.27 0.04 0  0.28 0.04 0  0.29 0.04 0  0.3 0.04 0  0.31 0.04 0  0.32 0.04 0  0.33 0.04 0  0.34 0.04 0  0.35 0.04 0  0.36 0.04 0  0.37 0.04 0  0.38 0.04 0  0.39 0.04 0  0.4 0.04 0  0.41 0.04 0  0.42 0.04 0  0.43 0.04 0  0.44 0.04 0  0.45 0.04 0  0.46 0.04 0  0.47 0.04 0  0.48 0.04 0  0.49 0.04 0  0.5 0.04 0  0.51 0.04 0  0.52 0.04 0  0.53 0.04 0  0.54 0.04 0  0.55 0.04 0  0.5600000000000001 0.04 0  0.57 0.04 0  0.58 0.04 0  0.59 0.04 0  0.6 0.04 0  0.61 0.04 0  0.62 0.04 0  0.63 0.04 0  0.64 0.04 0  0.65 0.04 0  0.66 0.04 0  0.67 0.04 0  0.68 0.04 0  0.6899999999999999 0.04 0  0.7 0.04 0  0.71 0.04 0  0.72 0.04 0  0.73 0.04 0  0.74 0.04 0  0.75 0.04 0  0.76 0.04 0  0.77 0.04 0  0.78 0.04 0  0.79 0.04 0  0.8 0.04 0  0.8100000000000001 0.04 0  0.82 0.04 0  0.83 0.04 0  0.84 0.04 0  0.85 0.04 0  0.86 0.04 0  0.87 0.04 0  0.88 0.04 0  0.89 0.04 0  0.9 0.04 0  0.91 0.04 0  0.92 0.04 0  0.93 0.04 0  0.9399999999999999 0.04 0  0.95 0.04 0  0.96 0.04 0  0.97 0.04 0  0.98 0.04 0  0.99 0.04 0  1 0.04 0  0 0.05 0  0.01 0.05 0  0.02 0.05 0  0.03 0.05 0  0.04 0.05 0  0.05 0.05 0  0.06 0.05 0  0.07000000000000001 0.05 0  0.08 0.05 0  0.09 0.05 0  0.1 0.05 0  0.11 0.05 0  0.12 0.05 0  0.13 0.05 0  0.14 0.05 0  0.15 0.05 0  0.16 0.05 0  0.17 0.05 0  0.18 0.05 0  0.19 0.05 0  0.2 0.05 0  0.21 0.05 0  0.22 0.05 0  0.23 0.05 0  0.24 0.05 0  0.25 0.05 0  0.26 0.05 0  0.27 0.05 0  0.28 0.05 0  0.29 0.05 0  0.3 0.05 0  0.31 0.05 0  0.32 0.05 0  0.33 0.05 0  0.34 0.05 0  0.35 0.05 0  0.36 0.05 0  0.37 0.05 0  0.38 0.05 0  0.39 0.05 0  0.4 0.05 0  0.41 0.05 0  0.42 0.05 0  0.43 0.05 0  0.44 0.05 0  0.45 0.05 0  0.46 0.05 0  0.47 0.05 0  0.48 0.05 0  0.49 0.05 0  0.5 0.05 0  0.51 0.05 0  0.52 0.05 0  0.53 0.05 0  0.54 0.05 0  0.55 0.05 0  0.5600000000000001 0.05 0  0.57 0.05 0  0.58 0.05 0  0.59 0.05 0  0.6 0.05 0  0.61 0.05 0  0.62 0.05 0  0.63 0.05 0  0.64 0.05 0  0.65 0.05 0  0.66 0.05 0  0.67 0.05 0  0.68 0.05 0  0.6899999999999999 0.05 0  0.7 0.05 0  0.71 0.05 0  0.72 0.05 0  0.73 0.05 0  0.74 0.05 0  0.75 0.05 0  0.76 0.05 0  0.77 0.05 0  0.78 0.05 0  0.79 0.05 0  0.8 0.05 0  0.8100000000000001 0.05 0  0.82 0.05 0  0.83 0.05 0  0.84 0.05 0  0.85 0.05 0  0.86 0.05 0  0.87 0.05 0  0.88 0.05 0  0.89 0.05 0  0.9 0.05 0  0.91 0.05 0  0.92 0.05 0  0.93 0.05 0  0.9399999999999999 0.05 0  0.95 0.05 0  0.96 0.05 0  0.97 0.05 0  0.98 0.05 0  0.99 0.05 0  1 0.05 0  0 0.06 0  0.01 0.06 0  0.02 0.06 0  0.03 0.06 0  0.04 0.06 0  0.05 0.06 0  0.06 0.06 0  0.07000000000000001 0.06 0  0.08 0.06 0  0.09 0.06 0  0.1 0.06 0  0.11 0.06 0  0.12 0.06 0  0.13 0.06 0  0.14 0.06 0  0.15 0.06 0  0.16 0.06 0  0.17 0.06 0  0.18 0.06 0  0.19 0.06 0  0.2 0.06 0  0.21 0.06 0  0.22 0.06 0  0.23 0.06 0  0.24 0.06 0  0.25 0.06 0  0.26 0.06 0  0.27 0.06 0  0.28 0.06 0  0.29 0.06 0  0.3 0.06 0  0.31 0.06 0  0.32 0.06 0  0.33 0.06 0  0.34 0.06 0  0.35 0.06 0  0.36 0.06 0  0.37 0.06 0  0.38 0.06 0  0.39 0.06 0  0.4 0.06 0  0.41 0.06 0  0.42 0.06 0  0.43 0.06 0  0.44 0.06 0  0.45 0.06 0  0.46 0.06 0  0.47 0.06 0  0.48 0.06 0  0.49 0.06 0  0.5 0.06 0  0.51 0.06 0  0.52 0.06 0  0.53 0.06 0  0.54 0.06 0  0.55 0.06 0  0.5600000000000001 0.06 0  0.57 0.06 0  0.58 0.06 0  0.59 0.06 0  0.6 0.06 0  0.61 0.06 0  0.62 0.06 0  0.63 0.06 0  0.64 0.06 0  0.65 0.06 0  0.66 0.06 0  0.67 0.06 0  0.68 0.06 0  0.6899999999999999 0.06 0  0.7 0.06 0  0.71 0.06 0  0.72 0.06 0  0.73 0.06 0  0.74 0.06 0  0.75 0.06 0  0.76 0.06 0  0.77 0.06 0  0.78 0.06 0  0.79 0.06 0  0.8 0.06 0  0.8100000000000001 0.06 0  0.82 0.06 0  0.83 0.06 0  0.84 0.06 0  0.85 0.06 0  0.86 0.06 0  0.87 0.06 0  0.88 0.06 0  0.89 0.06 0  0.9 0.06 0  0.91 0.06 0  0.92 0.06 0  0.93 0.06 0  0.9399999999999999 0.06 0  0.95 0.06 0  0.96 0.06 0  0.97 0.06 0  0.98 0.06 0  0.99 0.06 0  1 0.06 0  0 0.07000000000000001 0  0.01 0.07000000000000001 0  0.02 0.07000000000000001 0  0.03 0.07000000000000001 0  0.04 0.07000000000000001 0  0.05 0.07000000000000001 0  0.06 0.07000000000000001 0  0.07000000000000001 0.07000000000000001 0  0.08 0.07000000000000001 0  0.09 0.07000000000000001 0  0.1 0.07000000000000001 0  0.11 0.07000000000000001 0  0.12 0.07000000000000001 0  0.13 0.07000000000000001 0  0.14 0.07000000000000001 0  0.15 0.07000000000000001 0  0.16 0.07000000000000001 0  0.17 0.0700
[...]
<PointData  Scalars="u"> 
<DataArray  type="Float64"  Name="u"  format="ascii">0.0000000000000000e+00  0.0000000000000000e+00  0.0000000000000000e+00  0.0000000000000000e+00  0.0000000000000000e+00  0.0000000000000000e+00  0.0000000000000000e+00  0.0000000000000000e+00  0.0000000000000000e+00  0.0000000000000000e+00  0.0000000000000000e+00  0.0000000000000000e+00  0.0000000000000000e+00  0.0000000000000000e+00  0.0000000000000000e+00  0.0000000000000000e+00  0.0000000000000000e+00  0.0000000000000000e+00  0.0000000000000000e+00  0.0000000000000000e+00  0.0000000000000000e+00  0.0000000000000000e+00  0.0000000000000000e+00  0.0000000000000000e+00  0.0000000000000000e+00  0.0000000000000000e+00  0.0000000000000000e+00  0.0000000000000000e+00  0.0000000000000000e+00  0.0000000000000000e+00  0.0000000000000000e+00  0.0000000000000000e+00  0.0000000000000000e+00  0.0000000000000000e+00  0.0000000000000000e+00  0.0000000000000000e+00  0.0000000000000000e+00  0.0000000000000000e+00  0.0000000000000000e+00  0.0000000000000000e+00  0.0000000000000000e+00  0.0000000000000000e+00  0.0000000000000000e+00  0.0000000000000000e+00  0.0000000000000000e+00  0.0000000000000000e+00  0.0000000000000000e+00  0.0000000000000000e+00  0.0000000000000000e+00  0.0000000000000000e+00  0.0000000000000000e+00  0.0000000000000000e+00  0.0000000000000000e+00  0.0000000000000000e+00  0.0000000000000000e+00  0.0000000000000000e+00  0.0000000000000000e+00  0.0000000000000000e+00  0.0000000000000000e+00  0.0000000000000000e+00  0.0000000000000000e+00  0.0000000000000000e+00  0.0000000000000000e+00  0.0000000000000000e+00  0.0000000000000000e+00  0.0000000000000000e+00  0.0000000000000000e+00  0.0000000000000000e+00  0.0000000000000000e+00  0.0000000000000000e+00  0.0000000000000000e+00  0.0000000000000000e+00  0.0000000000000000e+00  0.0000000000000000e+00  0.0000000000000000e+00  0.0000000000000000e+00  0.0000000000000000e+00  0.0000000000000000e+00  0.0000000000000000e+00  0.0000000000000000e+00  0.0000000000000000e+00  0.0000000000000000e+00  0.0000000000000000e+00  0.0000000000000000e+00  0.0000000000000000e+00  0.0000000000000000e+00  0.0000000000000000e+00  0.0000000000000000e+00  0.0000000000000000e+00  0.0000000000000000e+00  0.0000000000000000e+00  0.0000000000000000e+00  0.0000000000000000e+00  0.0000000000000000e+00  0.0000000000000000e+00  0.0000000000000000e+00  0.0000000000000000e+00  0.0000000000000000e+00  0.0000000000000000e+00  0.0000000000000000e+00  0.0000000000000000e+00  0.0000000000000000e+00  2.4553192852605489e-15  5.1701937478096999e-15  8.5322426660122130e-15  1.2990660036310983e-14  1.9111791355816642e-14  2.7640474662813270e-14  3.9575621278135278e-14  5.6265733172607349e-14  7.9530792575673163e-14  1.1181783334858071e-13  1.5639844309874676e-13  2.1761733555151009e-13  3.0120181825767583e-13  4.1464225571839345e-13  5.6765323079834601e-13  7.7272371837320872e-13  1.0457618331762680e-12  1.4068351927084677e-12  1.8810012367643885e-12  2.4992126047956039e-12  3.2992706431964099e-12  4.3267852515787680e-12  5.6360818405062189e-12  7.2909768376649404e-12  9.3653231352667764e-12  1.1943207897610493e-11  1.5118669632526693e-11  1.8994792311939297e-11  2.3682034926906125e-11  2.9295668596383552e-11  3.5952223304994597e-11  4.3764894752618934e-11  5.2837929427390479e-11  6.3260091578591555e-11  7.5097415437603183e-11  8.8385553173247114e-11  1.0312213429432428e-10  1.1925964391614344e-10  1.3669939262668735e-10  1.5528717693181649e-10  1.7481120565798811e-10  1.9500278725589384e-10  2.1554013415961303e-10  2.3605544836897515e-10  2.5614521949837684e-10  2.7538341148642043e-10  2.9333696075396556e-10  3.0958278301980047e-10  3.2372531366548009e-10  3.3541350879015406e-10  3.4435622504370634e-10  3.5033498071028689e-10  3.5321327268852978e-10  3.5294186839074801e-10  3.4955978446829844e-10  3.4319097683174078e-10  3.3403706833124825e-10  3.2236670357862893e-10  3.0850232211160792e-10  2.9280526666728721e-10  2.7566018700757960e-10  2.5745966469832063e-10  2.3858988133036356e-10  2.1941799832802116e-10  2.0028173024103654e-10  1.8148139530703555e-10  1.6327453542411627e-10  1.4587302739837748e-10  1.2944246892614478e-10  1.1410352200817481e-10  9.9934834707666207e-11  8.6977136979157079e-11  7.5238112610518331e-11  6.4697680378738252e-11  5.5313365915426623e-11  4.7025504293413029e-11  3.9762075574178713e-11  3.3443036283511700e-11  2.7984065158141479e-11  2.3299689031461153e-11  1.9305793122242141e-11  1.5921548981815870e-11  1.3070813425835443e-11  1.0683063921845069e-11  8.6939414104112183e-12  7.0454718028323780e-12  5.6860337944164557e-12  4.5701344152205548e-12  3.6580460015196114e-12  2.9153499249963928e-12  2.3124242165366454e-12  1.8239048053270660e-12  1.4281440520305225e-12  1.1066862239129458e-12  8.4377834407349701e-13  6.2593756448362289e-13  4.4160444439662481e-13  2.8092733371485007e-13  1.3574804462117475e-13  0.0000000000000000e+00  0.0000000000000000e+00  4.8065579297079709e-15  1.0130824336078992e-14  1.6735504908377073e-14  2.5510953685421833e-14  3.7582315358240451e-14  5.4432915990459661e-14  7.8056687770391407e-14  1.1115140888092646e-13  1.5736605808341332e-13  2.2161747253088998e-13  3.1049355820803391e-13  4.3276229997567499e-13  6.0000743447706272e-13  8.2741246094223353e-13  1.1347141274419443e-12  1.5473439705939195e-12  2.0977711136748619e-12  2.8270504639637284e-12  3.7865667945669601e-12  5.0399461271408807e-12  6.6650807506984467e-12  8.7561829286798826e-12  1.1425745304869715e-11  1.4806244535692147e-11  1.9051381173388363e-11  2.4336607004188031e-11  3.0858655960427560e-11  3.8833772677727490e-11  4.8494330979725239e-11  6.0083560580505558e-11  7.3848161055090268e-11  9.0028682859652092e-11  1.0884769803802925e-10  1.3049596597422828e-10  1.5511701434267585e-10  1.8279078825839588e-10  2.1351725138410990e-10  2.4720102613685868e-10  2.8363830785176561e-10  3.2250735158469958e-10  3.6336378590072672e-10  4.0564183935761426e-10  4.4866226827506286e-10  4.9164735936562989e-10  5.3374287432117417e-10  5.7404624665092958e-10  6.1163978633671637e-10  6.4562715319439864e-10  6.7517098169352324e-10  6.9952932578540029e-10  7.1808857345272021e-10  7.3039066767384299e-10  7.3615285053929494e-10  7.3527868542660196e-10  7.2785975548945740e-10  7.1416812102662950e-10  6.9464027626718029e-10  6.6985391576038452e-10  6.4049925252928947e-10  6.0734689287320418e-10  5.7121435485757666e-10  5.3293322757916955e-10  4.9331873154322707e-10  4.5314309428399167e-10  4.1311374337503710e-10  3.7385688549203497e-10  3.3590662514896095e-10  2.9969941210230953e-10  2.6557331415257665e-10  2.3377140357778408e-10  2.0444842238814309e-10  1.7767984768730584e-10  1.5347250164315974e-10  1.3177592557433870e-10  1.1249384800835472e-10  9.5495206527317551e-11  8.0624319049079748e-11  6.7709930920903113e-11  5.6572981911671632e-11  4.7033036930805954e-11  3.8913403752820899e-11  3.2045019981365078e-11  2.6269231302676927e-11  2.1439606132866388e-11  1.7422940978196237e-11  1.4099609287168265e-11  1.1363397245493460e-11  9.1209555208968156e-12  7.2909786869378885e-12  5.8032058219216000e-12  4.5973181103967299e-12  3.6217934311155519e-12  2.8327650458103518e-12  2.1929228455233041e-12  1.6704927520881127e-12  1.2383350782675978e-12  8.7321927332817981e-13  5.5536542960216814e-13  2.6839928500605554e-13  0.0000000000000000e+00  0.0000000000000000e+00  7.3893464848895791e-15  1.5590286829151978e-14  2.5791387384043483e-14  3.9386316944871349e-14  5.8142956266477747e-14  8.4400647221648270e-14  1.2131514757744601e-13  1.7317068825830397e-13  2.4578126993338942e-13  3.4700670596295073e-13  4.8741264763750286e-13  6.8110754323058875e-13  9.4679266889802612e-13  1.3090633272755569e-12  1.7999991224713508e-12  2.4610777373594715e-12  3.3454384835323271e-12  4.5205075089213205e-12  6.0709742956082687e-12  8.1020774098523498e-12  1.0743115158016469e-11  1.4151043292766073e-11  1.8513957694830689e-11  2.4054187015016376e-11  3.1030642522957714e-11  3.9739996093248427e-11  5.0516191066445236e-11  6.3727745727102156e-11  7.9772298281724554e-11  9.9067879284814722e-11  1.2204049552960211e-10  1.4910777878860387e-10  1.8065869853610086e-10  2.1702965724068430e-10  2.5847766734220410e-10  3.0515172658863574e-10  3.5706392745766099e-10  4.1406221150350198e-10  4.7580695899993837e-10  5.4175373591789255e-10  6.1114445830983202e-10  6.8300894713470868e-10  7.5617832467693763e-10  8.2931096438063690e-10  9.0093079601656179e-10  9.6947676219530807e-10  1.0333612162888853e-09  1.0910341527380069e-09  1.1410494730688207e-09  1.1821291026298434e-09  1.2132207423252647e-09  1.2335453855436615e-09  1.2426314287892359e-09  1.2403331895940896e-09  1.2268328181847488e-09  1.2026258306662779e-09  1.1684916768209693e-09  1.1254517715201993e-09  1.0747181762004012e-09  1.0176365607113091e-09  9.5562718894679273e-10  8.9012747349761887e-10  8.2253918518314629e-10  7.5418275400539446e-10  6.8626034042136759e-10  6.1982857107778466e-10  5.5578109314545180e-10  4.9484046221336875e-10  4.3755837732093483e-10  3.8432293051457168e-10  3.3537134706973555e-10  2.9080664191221413e-10  2.5061668383038334e-10  2.1469431264756508e-10  1.8285736532043943e-10  1.5486770666626556e-10  1.3044860501606402e-10  1.0930002384397939e-10  9.1111604347872685e-11  7.5573283448618399e-11  6.2383623748088252e-11  5.1256027272507538e-11  4.1923066531732114e-11  3.4139199333226615e-11  2.7682143436019504e-11  2.2353179143571256e-11  1.7976627580573344e-11  1.4398724299776915e-11  1.1486075876254453e-11  9.1238543574573275e-12  7.2138532740821057e-12  5.6725013273556216e-12  4.4289075854777051e-12  3.4229969075491573e-12  2.6037888075145880e-12  1.9278806798920888e-12  1.3582227802205651e-12  8.6332608077835870e-13  4.1713763212074424e-13  0.0000000000000000e+00  0.0000000000000000e+00  1.0497385140353440e-14  2.2174162237580589e-14  3.6749301615042562e-14  5.6247602096278469e-14  8.3249629213414702e-14  1.2118590463869437e-13  1.7470452596049698e-13  2.5014227390845398e-13  3.5613386642093266e-13  5.0439971395566914e-13  7.1075892967624494e-13  9.9642090592397111e-13  1.3896147058993268e-12  1.9276197543370995e-12  2.6592623948732484e-12  3.6479389590653479e-12  4.9752147962252555e-12  6.7450276242594074e-12  9.0884897487739148e-12  1.2169234374388247e-11  1.6189184046068731e-11  2.1394532826186625e-11  2.8081628393999013e-11  3.6602318522621728e-11  4.7368194230488544e-11  6.0853029116902837e-11  7.7592595117483085e-11  9.8180947612293269e-11  1.2326223954649016e-10  1.5351716905918202e-10  1.8964331159340620e-10  2.3232885503894638e-10  2.8221965625772719e-10  3.3988006756765703e-10  4.0574862353914485e-10  4.8009039291631223e-10  5.6294852804649126e-10  6.5409820700479020e-10  7.5300667143316788e-10  8.5880332308693121e-10  9.7026377121113589e-10  1.0858112621761834e-09  1.2035380508175466e-09  1.3212480160920489e-09  1.4365202611747264e-09  1.5467916992970577e-09  1.6494548800291816e-09  1.7419657456030160e-09  1.8219548092344816e-09  1.8873345739234924e-09  1.9363959645498191e-09  1.9678871615507764e-09  1.9810694564308291e-09  1.9757464790626745e-09  1.9522651962245926e-09  1.9114892365311576e-09  1.8547471382084510e-09  1.7837598439433577e-09  1.7005530280128416e-09  1.6073605439329326e-09  1.5065254034169007e-09  1.4004042820081620e-09  1.2912806889266441e-09  1.1812907694004629e-09  1.0723643733856540e-09  9.6618266768092261e-10  8.6415231216228736e-10  7.6739515829920003e-10  6.7675161735585001e-10  5.9279531002348185e-10  5.1585634152196833e-10  4.4605051587326713e-10  3.8331196426298074e-10  3.2742696214437183e-10  2.7806709471386281e-10  2.3482035231072897e-10  1.9721915627465332e-10  1.6476470196320349e-10  1.3694733929505095e-10  1.1326298191021830e-10  9.3225741067501713e-11  7.6377122767829775e-11  6.2292213243083932e-11  5.0583318034110250e-11  4.0901523369109977e-11  3.2936625193929666e-11  2.6415829834738313e-11  2.1101578426013312e-11  1.6788791012211895e-11  1.3301770357240778e-11  1.0490953540082250e-11  8.2296541185522840e-12  6.4109013581508734e-12  4.9444582700256520e-12  3.7540903872026452e-12  2.7751675697848249e-12  1.9527200241116446e-12  1.2401503975060593e-12  5.9894681954753991e-13  0.0000000000000000e+00  0.0000000000000000e+00  1.4426454931058687e-14  3.0514712468195830e-14  5.0676093482872704e-14  7.7764818445519298e-14  1.1543784665704773e-13  1.6858193809613929e-13  2.4385099660125404e-13  3.5035920740945865e-13  5.0058303411847173e-13  7.1153454811927351e-13  1.0062792994380815e-12  1.4158832312918761e-12  1.9818838541403559e-12  2.7593894020595699e-12  3.8209137643314028e-12  5.2610516954812273e-12  7.2020845087404917e-12  9.8005768332349340e-12  1.3254975269635386e-11  1.7814145016665824e-11  2.3786676366573644e-11  3.1550656345333515e-11  4.1563431140125694e-11  5.4370685545157302e-11  7.0613944912549443e-11  9.1035377995253790e-11  1.1647856806741679e-10  1.4788375495249906e-10  1.8627596902693256e-10  2.3274452126331010e-10  2.8841252260423588e-10  3.5439551750970632e-10  4.3174895355293177e-10  5.2140507354724610e-10  6.2410088217635452e-10  7.4030004418981000e-10  8.7011281791256067e-10  1.0132192845468313e-09  1.1688020450218870e-09  1.3354950588260825e-09  1.5113552444756379e-09  1.6938627396059500e-09  1.8799542847308833e-09  2.0660920866980069e-09  2.2483678673963386e-09  2.4226388319238366e-09  2.5846892912041798e-09  2.7304089787755236e-09  2.8559770378859145e-09  2.9580394999079097e-09  3.0338680112668093e-09  3.0814886510644531e-09  3.0997718339112061e-09  3.0884772989788174e-09  3.0482517295381133e-09  2.9805802488412190e-09  2.8876965104830932e-09  2.7724589989000076e-09  2.6382032181330795e-09  2.4885805271549443e-09  2.3273944533631674e-09  2.1584444718822049e-09  1.9853856573940151e-09  1.8116105353246937e-09  1.6401571396567952e-09  1.4736449722009511e-09  1.3142384603262574e-09  1.1636357779668444e-09  1.0230796159730041e-09  8.9338568943686276e-10  7.7498442679721791e-10  6.6797133556173543e-10  5.7216189653621572e-10  4.8714740773246577e-10  4.1234888863156962e-10  3.4706688445455860e-10  2.9052571408754458e-10  2.4191133813208309e-10  2.0040255677094516e-10  1.6519566788560285e-10  1.3552302368571252e-10  1.1066612752241234e-10  8.9964025716727233e-11  7.2817789102442232e-11  5.8691863080389938e-11  4.7113009795450104e-11  3.7667486038414384e-11  2.9997007589687447e-11  2.3793954310944828e-11  1.8796177319180427e-11  1.4781685047643163e-11  1.1563412530278094e-11  8.9842207952638057e-12  6.9122339831108878e-12  5.2366051887770577e-12  3.8638152955828035e-12  2.7146641950385021e-12  1.7222302940247734e-12  8.3128311154937828e-13  0.0000000000000000e+00  0.0000000000000000e+00  1.9505801620690757e-14  4.1318433184611614e-14  6.8770924990173769e-14  1.0582887302683971e-13  1.5760206977320567e-13  2.3095664667347892e-13  3.3529091466251745e-13  4.8354308512250545e-13  6.9351127735728902e-13  9.8958155185467969e-13  1.4049774647589932e-12  1.9846637645522568e-12  2.7890557248095524e-12  3.8987018283693992e-12  5.4201177070931683e-12  7.4929488581348924e-12  1.0298622902855601e-11  1.4070612000442127e-11  1.9106354458885597e-11  2.5780773130019697e-11  3.4561168816655383e-11  4.6023053450456245e-11  6.0866217637554420e-11  7.9930003591572546e-11  1.0420638909979308e-10  1.3484910339774870e-10  1.7317662677997196e-10  2.2066662112822210e-10  2.7893915957432014e-10  3.4972614067175659e-10  4.3482455884991299e-10  5.3603192467072706e-10  6.5506313202318637e-10  7.9344946749265809e-10  9.5242221427084065e-10  1.1327853242568944e-09  1.3347837577935408e-09  1.5579761000598418e-09  1.8011216898051830e-09  2.0620934544663135e-09  2.3378276696944603e-09  2.6243207488518552e-09  2.9166808257644883e-09  3.2092383738736702e-09  3.4957156239479775e-09  3.7694494789019080e-09  4.0236574861318366e-09  4.2517317958663422e-09  4.4475424851243454e-09  4.6057296494090314e-09  4.7219635804433104e-09  4.7931542571716723e-09  4.8175951304382238e-09  4.7950313969009953e-09  4.7266490693556282e-09  4.6149874891469259e-09  4.4637838119995816e-09  4.2777628339223973e-09  4.0623888692480968e-09  3.8235980140379425e-09  3.5675290094988724e-09  3.3002692457387323e-09  3.0276295540847739e-09  2.7549577567404883e-09  2.4869969328809993e-09  2.2277904447622725e-09  1.9806322923647796e-09  1.7480585717408526e-09  1.5318738283925830e-09  1.3332049448112063e-09  1.1525748165655319e-09  9.8998832918386826e-10  8.4502389009228430e-10  7.1692482858586624e-10  6.0468619523285580e-10  5.0713373704539822e-10  4.2299299391454362e-10  3.5094748564727589e-10  2.8968579842451181e-10  2.3793802131739827e-10  1.9450243403707154e-10  1.5826362618021204e-10  1.2820336346204584e-10  1.0340553846367106e-10  8.3056482475223011e-11  6.6441798490051957e-11  5.2940726541008819e-11  4.2018889938013437e-11  3.3220108561637186e-11  2.6157813138156450e-11  2.0506459076132521e-11  1.5993224450882059e-11  1.2390187464250400e-11  9.5071178296878934e-12  7.1849895969849560e-12  5.2903395571190895e-12  3.7106721825731192e-12  2.3512768915438706e-12  1.1341212781363879e-12  0.0000000000000000e+00  0.0000000000000000e+00  2.6124908183840923e-14  5.5423999715379722e-14  9.2464896579009976e-14  1.4271122585721529e-13  2.1324469449196421e-13  3.1363603809052143e-13  4.5705717815534503e-13  6.6173606675577146e-13  9.5287527023941985e-13  1.3651800693836655e-12  1.9461708861048170e-12  2.7604867946690187e-12  3.8954194775055798e-12  5.4679467642672004e-12  7.6335567910381590e-12  1.0597160865461062e-11  1.4626376202201523e-11  2.0067407479596783e-11  2.7363655404376554e-11  3.7077016689834670e-11  4.9911598722466097e-11  6.6739241616336050e-11  8.8625813400667912e-11  1.1685672270697000e-10  1.5295949265486514e-10  1.9872059242954850e-10  2.5619308348284742e-10  3.2769108320482633e-10  4.1576668115077325e-10  5.2316488057007014e-10  6.5275250842472754e-10  8.0741796010855743e-10  9.8994021166392147e-10  1.2028277795105482e-09  1.4481311929398445e-09  1.7272359237655246e-09  2.0406463326631874e-09  2.3877746743292386e-09  2.7667520976217152e-09  3.1742803841556987e-09  3.6055434147309892e-09  4.0541956654163220e-09  4.5124412258940769e-09  4.9712109657278332e-09  5.4204379051431730e-09  5.8494222201667962e-09  6.2472685084492579e-09  6.6033699786572109e-09  6.9079081189754556e-09  7.1523330119273501e-09  7.3297893620220494e-09  7.4354566606904120e-09  7.4667784589871400e-09  7.4235647664504645e-09  7.3079621360346596e-09  7.1242968447183022e-09  6.8788065452692319e-09  6.5792838142426944e-09  6.2346604148208632e-09  5.8545634633283843e-09  5.4488740578306228e-09  5.0273156666333934e-09  4.5990943140359809e-09  4.1726061162613027e-09  3.7552208150805006e-09  3.3531433564009334e-09  2.9713498394292092e-09  2.6135896981454116e-09  2.2824429479012992e-09  1.9794197312407912e-09  1.7050890809093263e-09  1.4592245420995523e-09  1.2409557716106466e-09  1.0489171659798383e-09  8.8138669877608751e-10  7.3641025223951129e-10  6.1190865087261267e-10  5.0576624279390861e-10  4.1590117870925064e-10  3.4031850015344692e-10  2.7714779065806322e-10  2.2466750767912997e-10  1.8131825136227469e-10  1.4570719277827231e-10  1.1660573033739617e-10  9.2942213491570828e-11  7.3791304296022054e-11  5.8361268236701210e-11  4.5980216379235093e-11  3.6082075086488430e-11  2.8192845791749180e-11  2.1917540582693345e-11  1.6928042944106796e-11  1.2952050591442135e-11  9.7632153742455687e-12  7.1726161350411721e-12  5.0218067711961842e-12  3.1779124717315965e-12  1.5316662001977482e-12  0.0000000000000000e+00  0.0000000000000000e+00  3.4758678875475138e-14  7.3857208529568218e-14  1.2351665764114245e-13  1.9121938954399951e-13  2.8672250583828468e-13  4.2329022235235928e-13  6.1927957744213981e-13  9.0022973181709233e-13  1.3016361582240672e-12  1.8726305149690071e-12  2.6808339866098930e-12  3.8187046000951303e-12  5.4117544177720356e-12  7.6290656187157843e-12  1.0696577849103591e-11  1.4913642274736549e-11  2.0673326307101180e-11  2.8486888937416123e-11  3.9012708296497329e-11  5.3089706051036390e-11  7.1774952365127310e-11  9