<?xml version="1.0"?>
<VTKFile type="UnstructuredGrid"  version="0.1"  >
<UnstructuredGrid>
<Piece  NumberOfPoints="10201" NumberOfCells="20000">
<Points>
<DataArray  type="Float64"  NumberOfComponents="3"  format="ascii">0 0 0  0.01 0 0  0.02 0 0  0.03 0 0  0.04 0 0  0.05 0 0  0.06 0 0  0.07000000000000001 0 0  0.08 0 0  0.09 0 0  0.1 0 0  0.11 0 0  0.12 0 0  0.13 0 0  0.14 0 0  0.15 0 0  0.16 0 0  0.17 0 0  0.18 0 0  0.19 0 0  0.2 0 0  0.21 0 0  0.22 0 0  0.23 0 0  0.24 0 0  0.25 0 0  0.26 0 0  0.27 0 0  0.28 0 0  0.29 0 0  0.3 0 0  0.31 0 0  0.32 0 0  0.33 0 0  0.34 0 0  0.35 0 0  0.36 0 0  0.37 0 0  0.38 0 0  0.39 0 0  0.4 0 0  0.41 0 0  0.42 0 0  0.43 0 0  0.44 0 0  0.45 0 0  0.46 0 0  0.47 0 0  0.48 0 0  0.49 0 0  0.5 0 0  0.51 0 0  0.52 0 0  0.53 0 0  0.54 0 0  0.55 0 0  0.5600000000000001 0 0  0.57 0 0  0.58 0 0  0.59 0 0  0.6 0 0  0.61 0 0  0.62 0 0  0.63 0 0  0.64 0 0  0.65 0 0  0.66 0 0  0.67 0 0  0.68 0 0  0.6899999999999999 0 0  0.7 0 0  0.71 0 0  0.72 0 0  0.73 0 0  0.74 0 0  0.75 0 0  0.76 0 0  0.77 0 0  0.78 0 0  0.79 0 0  0.8 0 0  0.8100000000000001 0 0  0.82 0 0  0.83 0 0  0.84 0 0  0.85 0 0  0.86 0 0  0.87 0 0  0.88 0 0  0.89 0 0  0.9 0 0  0.91 0 0  0.92 0 0  0.93 0 0  0.9399999999999999 0 0  0.95 0 0  0.96 0 0  0.97 0 0  0.98 0 0  0.99 0 0  1 0 0  0 0.01 0  0.01 0.01 0  0.02 0.01 0  0.03 0.01 0  0.04 0.01 0  0.05 0.01 0  0.06 0.01 0  0.07000000000000001 0.01 0  0.08 0.01 0  0.09 0.01 0  0.1 0.01 0  0.11 0.01 0  0.12 0.01 0  0.13 0.01 0  0.14 0.01 0  0.15 0.01 0  0.16 0.01 0  0.17 0.01 0  0.18 0.01 0  0.19 0.01 0  0.2 0.01 0  0.21 0.01 0  0.22 0.01 0  0.23 0.01 0  0.24 0.01 0  0.25 0.01 0  0.26 0.01 0  0.27 0.01 0  0.28 0.01 0  0.29 0.01 0  0.3 0.01 0  0.31 0.01 0  0.32 0.01 0  0.33 0.01 0  0.34 0.01 0  0.35 0.01 0  0.36 0.01 0  0.37 0.01 0  0.38 0.01 0  0.39 0.01 0  0.4 0.01 0  0.41 0.01 0  0.42 0.01 0  0.43 0.01 0  0.44 0.01 0  0.45 0.01 0  0.46 0.01 0  0.47 0.01 0  0.48 0.01 0  0.49 0.01 0  0.5 0.01 0  0.51 0.01 0  0.52 0.01 0  0.53 0.01 0  0.54 0.01 0  0.55 0.01 0  0.5600000000000001 0.01 0  0.57 0.01 0  0.58 0.01 0  0.59 0.01 0  0.6 0.01 0  0.61 0.01 0  0.62 0.01 0  0.63 0.01 0  0.64 0.01 0  0.65 0.01 0  0.66 0.01 0  0.67 0.01 0  0.68 0.01 0  0.6899999999999999 0.01 0  0.7 0.01 0  0.71 0.01 0  0.72 0.01 0  0.73 0.01 0  0.74 0.01 0  0.75 0.01 0  0.76 0.01 0  0.77 0.01 0  0.78 0.01 0  0.79 0.01 0  0.8 0.01 0  0.8100000000000001 0.01 0  0.82 0.01 0  0.83 0.01 0  0.84 0.01 0  0.85 0.01 0  0.86 0.01 0  0.87 0.01 0  0.88 0.01 0  0.89 0.01 0  0.9 0.01 0  0.91 0.01 0  0.92 0.01 0  0.93 0.01 0  0.9399999999999999 0.01 0  0.95 0.01 0  0.96 0.01 0  0.97 0.01 0  0.98 0.01 0  0.99 0.01 0  1 0.01 0  0 0.02 0  0.01 0.02 0  0.02 0.02 0  0.03 0.02 0  0.04 0.02 0  0.05 0.02 0  0.06 0.02 0  0.07000000000000001 0.02 0  0.08 0.02 0  0.09 0.02 0  0.1 0.02 0  0.11 0.02 0  0.12 0.02 0  0.13 0.02 0  0.14 0.02 0  0.15 0.02 0  0.16 0.02 0  0.17 0.02 0  0.18 0.02 0  0.19 0.02 0  0.2 0.02 0  0.21 0.02 0  0.22 0.02 0  0.23 0.02 0  0.24 0.02 0  0.25 0.02 0  0.26 0.02 0  0.27 0.02 0  0.28 0.02 0  0.29 0.02 0  0.3 0.02 0  0.31 0.02 0  0.32 0.02 0  0.33 0.02 0  0.34 0.02 0  0.35 0.02 0  0.36 0.02 0  0.37 0.02 0  0.38 0.02 0  0.39 0.02 0  0.4 0.02 0  0.41 0.02 0  0.42 0.02 0  0.43 0.02 0  0.44 0.02 0  0.45 0.02 0  0.46 0.02 0  0.47 0.02 0  0.48 0.02 0  0.49 0.02 0  0.5 0.02 0  0.51 0.02 0  0.52 0.02 0  0.53 0.02 0  0.54 0.02 0  0.55 0.02 0  0.5600000000000001 0.02 0  0.57 0.02 0  0.58 0.02 0  0.59 0.02 0  0.6 0.02 0  0.61 0.02 0  0.62 0.02 0  0.63 0.02 0  0.64 0.02 0  0.65 0.02 0  0.66 0.02 0  0.67 0.02 0  0.68 0.02 0  0.6899999999999999 0.02 0  0.7 0.02 0  0.71 0.02 0  0.72 0.02 0  0.73 0.02 0  0.74 0.02 0  0.75 0.02 0  0.76 0.02 0  0.77 0.02 0  0.78 0.02 0  0.79 0.02 0  0.8 0.02 0  0.8100000000000001 0.02 0  0.82 0.02 0  0.83 0.02 0  0.84 0.02 0  0.85 0.02 0  0.86 0.02 0  0.87 0.02 0  0.88 0.02 0  0.89 0.02 0  0.9 0.02 0  0.91 0.02 0  0.92 0.02 0  0.93 0.02 0  0.9399999999999999 0.02 0  0.95 0.02 0  0.96 0.02 0  0.97 0.02 0  0.98 0.02 0  0.99 0.02 0  1 0.02 0  0 0.03 0  0.01 0.03 0  0.02 0.03 0  0.03 0.03 0  0.04 0.03 0  0.05 0.03 0  0.06 0.03 0  0.07000000000000001 0.03 0  0.08 0.03 0  0.09 0.03 0  0.1 0.03 0  0.11 0.03 0  0.12 0.03 0  0.13 0.03 0  0.14 0.03 0  0.15 0.03 0  0.16 0.03 0  0.17 0.03 0  0.18 0.03 0  0.19 0.03 0  0.2 0.03 0  0.21 0.03 0  0.22 0.03 0  0.23 0.03 0  0.24 0.03 0  0.25 0.03 0  0.26 0.03 0  0.27 0.03 0  0.28 0.03 0  0.29 0.03 0  0.3 0.03 0  0.31 0.03 0  0.32 0.03 0  0.33 0.03 0  0.34 0.03 0  0.35 0.03 0  0.36 0.03 0  0.37 0.03 0  0.38 0.03 0  0.39 0.03 0  0.4 0.03 0  0.41 0.03 0  0.42 0.03 0  0.43 0.03 0  0.44 0.03 0  0.45 0.03 0  0.46 0.03 0  0.47 0.03 0  0.48 0.03 0  0.49 0.03 0  0.5 0.03 0  0.51 0.03 0  0.52 0.03 0  0.53 0.03 0  0.54 0.03 0  0.55 0.03 0  0.5600000000000001 0.03 0  0.57 0.03 0  0.58 0.03 0  0.59 0.03 0  0.6 0.03 0  0.61 0.03 0  0.62 0.03 0  0.63 0.03 0  0.64 0.03 0  0.65 0.03 0  0.66 0.03 0  0.67 0.03 0  0.68 0.03 0  0.6899999999999999 0.03 0  0.7 0.03 0  0.71 0.03 0  0.72 0.03 0  0.73 0.03 0  0.74 0.03 0  0.75 0.03 0  0.76 0.03 0  0.77 0.03 0  0.78 0.03 0  0.79 0.03 0  0.8 0.03 0  0.8100000000000001 0.03 0  0.82 0.03 0  0.83 0.03 0  0.84 0.03 0  0.85 0.03 0  0.86 0.03 0  0.87 0.03 0  0.88 0.03 0  0.89 0.03 0  0.9 0.03 0  0.91 0.03 0  0.92 0.03 0  0.93 0.03 0  0.9399999999999999 0.03 0  0.95 0.03 0  0.96 0.03 0  0.97 0.03 0  0.98 0.03 0  0.99 0.03 0  1 0.03 0  0 0.04 0  0.01 0.04 0  0.02 0.04 0  0.03 0.04 0  0.04 0.04 0  0.05 0.04 0  0.06 0.04 0  0.07000000000000001 0.04 0  0.08 0.04 0  0.09 0.04 0  0.1 0.04 0  0.11 0.04 0  0.12 0.04 0  0.13 0.04 0  0.14 0.04 0  0.15 0.04 0  0.16 0.04 0  0.17 0.04 0  0.18 0.04 0  0.19 0.04 0  0.2 0.04 0  0.21 0.04 0  0.22 0.04 0  0.23 0.04 0  0.24 0.04 0  0.25 0.04 0  0.26 0.04 0  0.27 0.04 0  0.28 0.04 0  0.29 0.04 0  0.3 0.04 0  0.31 0.04 0  0.32 0.04 0  0.33 0.04 0  0.34 0.04 0  0.35 0.04 0  0.36 0.04 0  0.37 0.04 0  0.38 0.04 0  0.39 0.04 0  0.4 0.04 0  0.41 0.04 0  0.42 0.04 0  0.43 0.04 0  0.44 0.04 0  0.45 0.04 0  0.46 0.04 0  0.47 0.04 0  0.48 0.04 0  0.49 0.04 0  0.5 0.04 0  0.51 0.04 0  0.52 0.04 0  0.53 0.04 0  0.54 0.04 0  0.55 0.04 0  0.5600000000000001 0.04 0  0.57 0.04 0  0.58 0.04 0  0.59 0.04 0  0.6 0.04 0  0.61 0.04 0  0.62 0.04 0  0.63 0.04 0  0.64 0.04 0  0.65 0.04 0  0.66 0.04 0  0.67 0.04 0  0.68 0.04 0  0.6899999999999999 0.04 0  0.7 0.04 0  0.71 0.04 0  0.72 0.04 0  0.73 0.04 0  0.74 0.04 0  0.75 0.04 0  0.76 0.04 0  0.77 0.04 0  0.78 0.04 0  0.79 0.04 0  0.8 0.04 0  0.8100000000000001 0.04 0  0.82 0.04 0  0.83 0.04 0  0.84 0.04 0  0.85 0.04 0  0.86 0.04 0  0.87 0.04 0  0.88 0.04 0  0.89 0.04 0  0.9 0.04 0  0.91 0.04 0  0.92 0.04 0  0.93 0.04 0  0.9399999999999999 0.04 0  0.95 0.04 0  0.96 0.04 0  0.97 0.04 0  0.98 0.04 0  0.99 0.04 0  1 0.04 0  0 0.05 0  0.01 0.05 0  0.02 0.05 0  0.03 0.05 0  0.04 0.05 0  0.05 0.05 0  0.06 0.05 0  0.07000000000000001 0.05 0  0.08 0.05 0  0.09 0.05 0  0.1 0.05 0  0.11 0.05 0  0.12 0.05 0  0.13 0.05 0  0.14 0.05 0  0.15 0.05 0  0.16 0.05 0  0.17 0.05 0  0.18 0.05 0  0.19 0.05 0  0.2 0.05 0  0.21 0.05 0  0.22 0.05 0  0.23 0.05 0  0.24 0.05 0  0.25 0.05 0  0.26 0.05 0  0.27 0.05 0  0.28 0.05 0  0.29 0.05 0  0.3 0.05 0  0.31 0.05 0  0.32 0.05 0  0.33 0.05 0  0.34 0.05 0  0.35 0.05 0  0.36 0.05 0  0.37 0.05 0  0.38 0.05 0  0.39 0.05 0  0.4 0.05 0  0.41 0.05 0  0.42 0.05 0  0.43 0.05 0  0.44 0.05 0  0.45 0.05 0  0.46 0.05 0  0.47 0.05 0  0.48 0.05 0  0.49 0.05 0  0.5 0.05 0  0.51 0.05 0  0.52 0.05 0  0.53 0.05 0  0.54 0.05 0  0.55 0.05 0  0.5600000000000001 0.05 0  0.57 0.05 0  0.58 0.05 0  0.59 0.05 0  0.6 0.05 0  0.61 0.05 0  0.62 0.05 0  0.63 0.05 0  0.64 0.05 0  0.65 0.05 0  0.66 0.05 0  0.67 0.05 0  0.68 0.05 0  0.6899999999999999 0.05 0  0.7 0.05 0  0.71 0.05 0  0.72 0.05 0  0.73 0.05 0  0.74 0.05 0  0.75 0.05 0  0.76 0.05 0  0.77 0.05 0  0.78 0.05 0  0.79 0.05 0  0.8 0.05 0  0.8100000000000001 0.05 0  0.82 0.05 0  0.83 0.05 0  0.84 0.05 0  0.85 0.05 0  0.86 0.05 0  0.87 0.05 0  0.88 0.05 0  0.89 0.05 0  0.9 0.05 0  0.91 0.05 0  0.92 0.05 0  0.93 0.05 0  0.9399999999999999 0.05 0  0.95 0.05 0  0.96 0.05 0  0.97 0.05 0  0.98 0.05 0  0.99 0.05 0  1 0.05 0  0 0.06 0  0.01 0.06 0  0.02 0.06 0  0.03 0.06 0  0.04 0.06 0  0.05 0.06 0  0.06 0.06 0  0.07000000000000001 0.06 0  0.08 0.06 0  0.09 0.06 0  0.1 0.06 0  0.11 0.06 0  0.12 0.06 0  0.13 0.06 0  0.14 0.06 0  0.15 0.06 0  0.16 0.06 0  0.17 0.06 0  0.18 0.06 0  0.19 0.06 0  0.2 0.06 0  0.21 0.06 0  0.22 0.06 0  0.23 0.06 0  0.24 0.06 0  0.25 0.06 0  0.26 0.06 0  0.27 0.06 0  0.28 0.06 0  0.29 0.06 0  0.3 0.06 0  0.31 0.06 0  0.32 0.06 0  0.33 0.06 0  0.34 0.06 0  0.35 0.06 0  0.36 0.06 0  0.37 0.06 0  0.38 0.06 0  0.39 0.06 0  0.4 0.06 0  0.41 0.06 0  0.42 0.06 0  0.43 0.06 0  0.44 0.06 0  0.45 0.06 0  0.46 0.06 0  0.47 0.06 0  0.48 0.06 0  0.49 0.06 0  0.5 0.06 0  0.51 0.06 0  0.52 0.06 0  0.53 0.06 0  0.54 0.06 0  0.55 0.06 0  0.5600000000000001 0.06 0  0.57 0.06 0  0.58 0.06 0  0.59 0.06 0  0.6 0.06 0  0.61 0.06 0  0.62 0.06 0  0.63 0.06 0  0.64 0.06 0  0.65 0.06 0  0.66 0.06 0  0.67 0.06 0  0.68 0.06 0  0.6899999999999999 0.06 0  0.7 0.06 0  0.71 0.06 0  0.72 0.06 0  0.73 0.06 0  0.74 0.06 0  0.75 0.06 0  0.76 0.06 0  0.77 0.06 0  0.78 0.06 0  0.79 0.06 0  0.8 0.06 0  0.8100000000000001 0.06 0  0.82 0.06 0  0.83 0.06 0  0.84 0.06 0  0.85 0.06 0  0.86 0.06 0  0.87 0.06 0  0.88 0.06 0  0.89 0.06 0  0.9 0.06 0  0.91 0.06 0  0.92 0.06 0  0.93 0.06 0  0.9399999999999999 0.06 0  0.95 0.06 0  0.96 0.06 0  0.97 0.06 0  0.98 0.06 0  0.99 0.06 0  1 0.06 0  0 0.07000000000000001 0  0.01 0.07000000000000001 0  0.02 0.07000000000000001 0  0.03 0.07000000000000001 0  0.04 0.07000000000000001 0  0.05 0.07000000000000001 0  0.06 0.07000000000000001 0  0.07000000000000001 0.07000000000000001 0  0.08 0.07000000000000001 0  0.09 0.07000000000000001 0  0.1 0.07000000000000001 0  0.11 0.07000000000000001 0  0.12 0.07000000000000001 0  0.13 0.07000000000000001 0  0.14 0.07000000000000001 0  0.15 0.07000000000000001 0  0.16 0.07000000000000001 0  0.17 0.0700
[...]
<PointData  Scalars="u"> 
<DataArray  type="Float64"  Name="u"  format="ascii">0.0000000000000000e+00  0.0000000000000000e+00  0.0000000000000000e+00  0.0000000000000000e+00  0.0000000000000000e+00  0.0000000000000000e+00  0.0000000000000000e+00  0.0000000000000000e+00  0.0000000000000000e+00  0.0000000000000000e+00  0.0000000000000000e+00  0.0000000000000000e+00  0.0000000000000000e+00  0.0000000000000000e+00  0.0000000000000000e+00  0.0000000000000000e+00  0.0000000000000000e+00  0.0000000000000000e+00  0.0000000000000000e+00  0.0000000000000000e+00  0.0000000000000000e+00  0.0000000000000000e+00  0.0000000000000000e+00  0.0000000000000000e+00  0.0000000000000000e+00  0.0000000000000000e+00  0.0000000000000000e+00  0.0000000000000000e+00  0.0000000000000000e+00  0.0000000000000000e+00  0.0000000000000000e+00  0.0000000000000000e+00  0.0000000000000000e+00  0.0000000000000000e+00  0.0000000000000000e+00  0.0000000000000000e+00  0.0000000000000000e+00  0.0000000000000000e+00  0.0000000000000000e+00  0.0000000000000000e+00  0.0000000000000000e+00  0.0000000000000000e+00  0.0000000000000000e+00  0.0000000000000000e+00  0.0000000000000000e+00  0.0000000000000000e+00  0.0000000000000000e+00  0.0000000000000000e+00  0.0000000000000000e+00  0.0000000000000000e+00  0.0000000000000000e+00  0.0000000000000000e+00  0.0000000000000000e+00  0.0000000000000000e+00  0.0000000000000000e+00  0.0000000000000000e+00  0.0000000000000000e+00  0.0000000000000000e+00  0.0000000000000000e+00  0.0000000000000000e+00  0.0000000000000000e+00  0.0000000000000000e+00  0.0000000000000000e+00  0.0000000000000000e+00  0.0000000000000000e+00  0.0000000000000000e+00  0.0000000000000000e+00  0.0000000000000000e+00  0.0000000000000000e+00  0.0000000000000000e+00  0.0000000000000000e+00  0.0000000000000000e+00  0.0000000000000000e+00  0.0000000000000000e+00  0.0000000000000000e+00  0.0000000000000000e+00  0.0000000000000000e+00  0.0000000000000000e+00  0.0000000000000000e+00  0.0000000000000000e+00  0.0000000000000000e+00  0.0000000000000000e+00  0.0000000000000000e+00  0.0000000000000000e+00  0.0000000000000000e+00  0.0000000000000000e+00  0.0000000000000000e+00  0.0000000000000000e+00  0.0000000000000000e+00  0.0000000000000000e+00  0.0000000000000000e+00  0.0000000000000000e+00  0.0000000000000000e+00  0.0000000000000000e+00  0.0000000000000000e+00  0.0000000000000000e+00  0.0000000000000000e+00  0.0000000000000000e+00  0.0000000000000000e+00  0.0000000000000000e+00  0.0000000000000000e+00  0.0000000000000000e+00  7.7822487724215939e-16  1.6976689909994797e-15  2.8950508185888645e-15  4.5458169528016978e-15  6.8872828435978885e-15  1.0247776522853889e-14  1.5085513686183712e-14  2.2040698010284005e-14  3.2005224926745640e-14  4.6215416937675529e-14  6.6374425671051058e-14  9.4812265205578545e-14  1.3469282398494033e-13  1.9027852507754001e-13  2.6726439519790270e-13  3.7319392074363577e-13  5.1796889429145235e-13  7.1446408583509889e-13  9.7925453303988928e-13  1.3334580047325742e-12  1.8036872120041098e-12  2.4230951380913983e-12  3.2324820980036501e-12  4.2814147581194962e-12  5.6292856915445885e-12  7.3462180216603530e-12  9.5136949103702277e-12  1.2224770457501603e-11  1.5583700165838196e-11  1.9704819352964763e-11  2.4710501049310805e-11  3.0728045308270384e-11  3.7885393171828543e-11  4.6305623159668353e-11  5.6100276336869236e-11  6.7361665160305223e-11  8.0154445400853718e-11  9.4506859898003579e-11  1.1040218487226087e-10  1.2777100879970925e-10  1.4648503442286121e-10  1.6635310152679905e-10  1.8712007037723977e-10  2.0846907773553788e-10  2.3002748132199362e-10  2.5137655533539054e-10  2.7206470850723144e-10  2.9162369358774952e-10  3.0958699389903369e-10  3.2550934011411924e-10  3.3898615676423363e-10  3.4967168378643309e-10  3.5729457382435624e-10  3.6166992882119241e-10  3.6270699518402735e-10  3.6041206028950921e-10  3.5488645173057636e-10  3.4631989861355391e-10  3.3497983683286298e-10  3.2119749846433290e-10  3.0535179877661067e-10  2.8785211289985398e-10  2.6912101872975089e-10  2.4957798364689971e-10  2.2962480795657660e-10  2.0963342994253639e-10  1.8993646981395737e-10  1.7082066491716781e-10  1.5252314506439814e-10  1.3523032834502183e-10  1.1907909237235831e-10  1.0415979620855440e-10  9.0520692184376814e-11  7.8173268962890409e-11  6.7098099729477477e-11  5.7250823578935471e-11  4.8567955337599655e-11  4.0972291400953545e-11  3.4377750268802417e-11  2.8693551536298367e-11  2.3827693014954905e-11  1.9689730778545531e-11  1.6192900865748653e-11  1.3255644679304979e-11  1.0802613992707189e-11  8.7652374636093260e-12  7.0819303448766566e-12  5.6980243284111972e-12  4.5654866516533368e-12  3.6424880296000433e-12  2.8928687109853201e-12  2.2855418664751116e-12  1.7938643423734405e-12  1.3949972759834421e-12  1.0692740144813573e-12  7.9959137599785347e-13  5.7084426478289415e-13  3.6943544877929385e-13  1.8291400607844968e-13  0.0000000000000000e+00  0.0000000000000000e+00  1.5267630614448262e-15  3.3335480606585050e-15  5.6902746172184268e-15  8.9453152782420598e-15  1.3570812879678566e-14  2.0221349112503522e-14  2.9812364772182548e-14  4.3625521951078959e-14  6.3450026000684459e-14  9.1771128184129004e-14  1.3201958193971519e-13  1.8889865947300830e-13  2.6880831592288875e-13  3.8038898694546898e-13  5.3520997230026917e-13  7.4862889467022266e-13  1.0408486612005320e-12  1.4381958469763619e-12  1.9746384479877221e-12  2.6935503728403936e-12  3.6497136731786512e-12  4.9115262651418760e-12  6.5633519758995394e-12  8.7079109206835760e-12  1.1468562095169754e-11  1.4991278459178630e-11  1.9446060983472100e-11  2.5027487132373952e-11  3.1954047822466601e-11  4.0465903357300042e-11  5.0820692553844328e-11  6.3287069743601653e-11  7.8135729885421428e-11  9.5627818238084026e-11  1.1600080894940879e-10  1.3945217136373630e-10  1.6612141120914883e-10  1.9607135553135114e-10  2.2926981739732043e-10  2.6557299572761562e-10  3.0471210180925899e-10  3.4628472420627597e-10  3.8975232264141907e-10  4.3444496640545678e-10  4.7957400827592638e-10  5.2425283431223048e-10  5.6752519570276769e-10  6.0839996928816730e-10  6.4589057641695605e-10  6.7905678488399751e-10  7.0704628763179025e-10  7.2913333988343519e-10  7.4475186511967212e-10  7.5352080411591336e-10  7.5526004702923382e-10  7.4999599973538385e-10  7.3795661958771503e-10  7.1955653318014198e-10  6.9537354372292053e-10  6.6611838519449923e-10  6.3259994112222964e-10  5.9568829778152426e-10  5.5627794875721783e-10  5.1525323518945578e-10  4.7345773443380002e-10  4.3166884928479613e-10  3.9057835262344571e-10  3.5077915676738378e-10  3.1275814276612066e-10  2.7689453076990361e-10  2.4346301432284575e-10  2.1264072308373380e-10  1.8451701421729171e-10  1.5910510935866884e-10  1.3635467401380618e-10  1.1616456015421522e-10  9.8395081757654713e-11  8.2879350489016643e-11  6.9433351177970754e-11  5.7864574451550812e-11  4.7979140643567461e-11  3.9587441961639737e-11  3.2508398492536662e-11  2.6572469544613165e-11  2.1623587901758872e-11  1.7520194306058261e-11  1.4135546598561469e-11  1.1357465974985531e-11  9.0876649216040840e-12  7.2407802617173045e-12  5.7432125378816336e-12  4.5318514206609049e-12  3.5527474268752022e-12  2.7597743431993513e-12  2.1133160298441125e-12  1.5790080467364486e-12  1.1265723701264561e-12  7.2880792306138118e-13  3.6084941122678439e-13  0.0000000000000000e+00  0.0000000000000000e+00  2.3552649669744938e-15  5.1474900941060371e-15  8.7989157321326340e-15  1.3856486818985888e-14  2.1063818344076023e-14  3.1455170112515380e-14  4.6481551707112701e-14  6.8180801883225451e-14  9.9406591790130205e-14  1.4413506096637837e-13  2.0787218988302139e-13  2.9818994912510695e-13  4.2542453657832265e-13  6.0357525621867208e-13  8.5144723388434163e-13  1.1940843774039256e-12  1.6645396399612039e-12  2.3060262796516501e-12  3.1744846507855012e-12  4.3415820846245390e-12  5.8981364712025040e-12  7.9579152038166721e-12  1.0661708609381842e-11  1.4181510180364118e-11  1.8724555618637601e-11  2.4536881723245665e-11  3.1905969960563366e-11  4.1161946682524510e-11  5.2676734187804063e-11  6.6860498908967390e-11  8.4154741826116191e-11  1.0502143917464873e-10  1.2992778431028000e-10  1.5932631524418026e-10  1.9363053997482337e-10  2.3318658534753490e-10  2.7824187323588270e-10  3.2891233416554176e-10  3.8515015314146007e-10  4.4671444507518658e-10  5.1314751313826876e-10  5.8375939173471399e-10  6.5762316918556666e-10  7.3358309930162187e-10  8.1027675241315346e-10  8.8617146724849814e-10  9.5961422262080197e-10  1.0288928588506634e-09  1.0923054680100322e-09  1.1482338670052657e-09  1.1952164813013672e-09  1.2320157817554558e-09  1.2576756706150864e-09  1.2715648923034070e-09  1.2734035865804358e-09  1.2632713996285884e-09  1.2415969873694287e-09  1.2091301388956834e-09  1.1668989785187058e-09  1.1161556599962879e-09  1.0583145710888662e-09  9.9488728980197378e-10  9.2741838850016568e-10  8.5742571938270496e-10  7.8634811299162042e-10  7.1550257380500934e-10  6.4605215902995481e-10  5.7898486495154827e-10  5.1510308893275309e-10  4.5502263183992728e-10  3.9917977968070954e-10  3.4784475770182427e-10  3.0113977085636904e-10  2.5905990487636553e-10  2.2149532869429625e-10  1.8825347610933194e-10  1.5908015875020743e-10  1.3367884458596860e-10  1.1172760377951789e-10  9.2893460654915800e-11  7.6844087524279587e-11  6.3256929266031781e-11  5.1825957458643147e-11  4.2266323296719518e-11  3.4317215135536896e-11  2.7743235922103345e-11  2.2334604675356843e-11  1.7906460811699244e-11  1.4297515905204069e-11  1.1368258901411934e-11  8.9988814071472833e-12  7.0870522023887242e-12  5.5456367848560262e-12  4.3004306461907909e-12  3.2879565672618454e-12  2.4533701110237772e-12  1.7485294206105238e-12  1.1303246588923372e-12  5.5944319090996969e-13  0.0000000000000000e+00  0.0000000000000000e+00  3.3605117216375095e-15  7.3529259623551270e-15  1.2590683224744842e-14  1.9871397584313926e-14  3.0283750605554721e-14  4.5347980434401645e-14  6.7205287203989088e-14  9.8874489848758526e-14  1.4459922852564705e-13  2.1031506601489816e-13  3.0427300010795332e-13  4.3786404485412050e-13  6.2669838495100773e-13  8.9200161885469041e-13  1.2623989121538798e-12  1.7761641888345321e-12  2.4840139930911180e-12  3.4525219942616937e-12  4.7682173505696457e-12  6.5424048735142589e-12  8.9167034359285512e-12  1.2069237706472922e-11  1.6221334055897674e-11  2.1644462722271276e-11  2.8667035708141513e-11  3.7680517441497177e-11  4.9144141413477490e-11  6.3587364544698318e-11  8.1609051381603766e-11  1.0387228726014083e-10  1.3109370228885229e-10  1.6402627696378522e-10  2.0343482371163598e-10  2.5006371761509787e-10  3.0459699184522239e-10  3.6761160787810520e-10  4.3952552281697819e-10  5.2054304554442698e-10  6.1060081464876945e-10  7.0931843949265287e-10  8.1595830781942872e-10  9.2939917080173575e-10  1.0481277839268160e-09  1.1702520640776607e-09  1.2935379286238936e-09  1.4154702833184080e-09  1.5333366571891468e-09  1.6443299318794600e-09  1.7456646999928145e-09  1.8347002367912065e-09  1.9090620806013452e-09  1.9667539319315602e-09  2.0062520628622917e-09  2.0265756487541242e-09  2.0273282758489952e-09  2.0087081480953856e-09  1.9714869728136091e-09  1.9169598899471900e-09  1.8468708841080315e-09  1.7633196910245469e-09  1.6686571583262814e-09  1.5653763020984642e-09  1.4560059498580095e-09  1.3430129770370351e-09  1.2287178725315556e-09  1.1152268764300343e-09  1.0043823862515844e-09  8.9773187386227587e-10  7.9651430759589968e-10  7.0166210686172869e-10  6.1381600281501052e-10  5.3334983523837775e-10  4.6040225074764267e-10  3.9491242970457048e-10  3.3665729800218229e-10  2.8528811306049378e-10  2.4036479395812760e-10  2.0138684610225965e-10  1.6782017530770485e-10  1.3911947072349574e-10  1.1474614786130145e-10  9.4182078417039316e-11  7.6939496008482028e-11  6.2567564485333024e-11  5.0656138890773627e-11  4.0837250236557067e-11  3.2784815484942605e-11  2.6213023866724185e-11  2.0873788662149670e-11  1.6553586833524825e-11  1.3069942768908272e-11  1.0267750852996077e-11  8.0155776945169638e-12  6.2020414028609884e-12  4.7323356814155251e-12  3.5249557714486672e-12  2.5086998502794379e-12  1.6200774039286277e-12  8.0137801351452705e-13  0.0000000000000000e+00  0.0000000000000000e+00  4.6412133726358396e-15  1.0168286658898367e-14  1.7446066505448475e-14  2.7603628454279658e-14  4.2188911309670158e-14  6.3373181750920167e-14  9.4228130529734287e-14  1.3910332783467082e-13  2.0413951814588507e-13  2.9796279945738944e-13  4.3261615932287756e-13  6.2479801999087087e-13  8.9749200445764945e-13  1.2820873185994771e-12  1.8211036686374839e-12  2.5716465318494709e-12  3.6097250711308148e-12  5.0355622781767428e-12  6.9800102983114877e-12  9.6121476762444992e-12  1.3148073181375672e-11  1.7860816552037522e-11  2.4091154346796430e-11  3.2258945515266603e-11  4.2874386276593282e-11  5.6548332787108082e-11  7.4000565534841167e-11  9.6064592990094381e-11  1.2368734525438833e-10  1.5792193250089939e-10  1.9991158695059230e-10  2.5086302386208236e-10  3.1200779684329702e-10  3.8455082487491880e-10  4.6960615065822123e-10  5.6812113853152778e-10  6.8079168112292086e-10  8.0797245765243387e-10  9.4958772960376296e-10  1.1050493921539336e-09  1.2731898250227505e-09  1.4522173141017833e-09  1.6397012925394995e-09  1.8325932926105842e-09  2.0272873183588737e-09  2.2197204651944501e-09  2.4055112591071823e-09  2.5801296911143135e-09  2.7390896659907526e-09  2.8781519607082172e-09  2.9935241424050488e-09  3.0820434726990905e-09  3.1413297280393580e-09  3.1698970359581784e-09  3.1672170479134332e-09  3.1337296945928725e-09  3.0708019711754556e-09  2.9806392281509120e-09  2.8661568867450885e-09  2.7308230366121091e-09  2.5784838135930118e-09  2.4131837444779979e-09  2.2389924656635739e-09  2.0598475647349414e-09  1.8794210223804208e-09  1.7010141416326392e-09  1.5274832283771890e-09  1.3611958764340968e-09  1.2040156948506208e-09  1.0573118048225967e-09  9.2198846859843845e-10  7.9852977152064856e-10  6.8705429378358275e-10  5.8737508452051040e-10  4.9906087925184618e-10  4.2149527607517364e-10  3.5393141188389967e-10  2.9554048140732897e-10  2.4545316408838322e-10  2.0279363263988098e-10  1.6670629679407449e-10  1.3637578528230546e-10  1.1104089814218837e-10  9.0003386502859615e-11  7.2632457852696771e-11  5.8365881917765738e-11  4.6708504882215681e-11  3.7228884516663569e-11  2.9554649565939222e-11  2.3367074080740764e-11  1.8395249016071928e-11  1.4410134835293498e-11  1.1218694017123531e-11  8.6582347228797570e-12  6.5910506910832013e-12  4.8994244654537480e-12  3.4810830845063721e-12  2.2452776400390460e-12  1.1098342522108829e-12  0.0000000000000000e+00  0.0000000000000000e+00  6.3087653252624369e-15  1.3840961476352799e-14  2.3798395674530712e-14  3.7756810544958532e-14  5.7886797836891915e-14  8.7247660681442157e-14  1.3018787831758865e-13  1.9289365395197752e-13  2.8413902472515160e-13  4.1630596090264337e-13  6.0676094414784628e-13  8.7969562776911380e-13  1.2685628958227707e-12  1.8192649222174925e-12  2.5942748359374118e-12  3.6778953884977713e-12  5.1828723012726051e-12  7.2585808593388029e-12  1.0100984212046531e-11  1.3964511482194371e-11  1.9175912634845815e-11  2.6150004084628804e-11  3.5407014048606812e-11  4.7590962316186048e-11  6.3488163452097410e-11  8.4044532036283108e-11  1.1037991179869527e-10  1.4379718079008961e-10  1.8578345245193339e-10  2.3800036531684577e-10  3.0226031451842104e-10  3.8048561722002021e-10  4.7464811041250563e-10  5.8668762570761862e-10  7.1840921012703571e-10  8.7136085024505912e-10  1.0466957263236108e-09  1.2450255112612989e-09  1.4662736954542462e-09  1.7095400572855441e-09  1.9729888684168706e-09  2.2537738895645013e-09  2.5480124033599763e-09  2.8508182904817147e-09  3.1564004927397577e-09  3.4582283260929978e-09  3.7492594082825522e-09  4.0222200164017055e-09  4.2699221586664444e-09  4.4855972160124120e-09  4.6632232818430780e-09  4.7978227213053626e-09  4.8857081519930887e-09  4.9246588961623542e-09  4.9140155732736912e-09  4.8546872701646829e-09  4.7490728884440653e-09  4.6009050413990278e-09  4.4150305531477456e-09  4.1971456693832923e-09  3.9535062202397588e-09  3.6906331301408083e-09  3.4150320277243414e-09  3.1329426348727006e-09  2.8501295856138504e-09  2.5717218605525822e-09  2.3021036081411220e-09  2.0448551646459814e-09  1.8027398675662847e-09  1.5777299414314152e-09  1.3710633576646678e-09  1.1833230679869902e-09  1.0145302478676290e-09  8.6424398565578256e-10  7.3166102418692442e-10  6.1571052484060643e-10  5.1514022525260050e-10  4.2859168205898800e-10  3.5466344758112997e-10  2.9196197798229206e-10  2.3914079387598174e-10  1.9492891946197763e-10  1.5814993566093715e-10  1.2773312823019904e-10  1.0271822891623136e-10  8.2255171230075072e-11  6.5600143963087315e-11  5.2109051687235149e-11  4.1229303253701549e-11  3.2490662352772895e-11  2.5495719418232880e-11  1.9910388720525466e-11  1.5454703139078154e-11  1.1894075724184503e-11  9.0311267372155757e-12  6.6981460440145956e-12  4.7502894327369995e-12  3.0597220196943191e-12  1.5111705067419984e-12  0.0000000000000000e+00  0.0000000000000000e+00  8.4966097305894304e-15  1.8668263567984015e-14  3.2171030520959325e-14  5.1185982878360505e-14  7.8732470127451378e-14  1.1908737482383189e-13  1.7835975502857649e-13  2.6528252310130828e-13  3.9230125682809724e-13  5.7706344619045255e-13  8.4443983731102678e-13  1.2292431190491368e-12  1.7798475256267577e-12  2.5629546495706759e-12  3.6697932643064737e-12  5.2240799269517646e-12  7.3920960630261233e-12  1.0395246989124380e-11  1.4525446836206909e-11  2.0163605570239446e-11  2.7801362739574923e-11  3.8065998311674243e-11  5.1748135766101388e-11  6.9831422039823990e-11  9.3522816565530642e-11  1.2428145439448203e-10  1.6384329229670316e-10  2.1423795264759131e-10  2.7779342782622860e-10  3.5712370827237279e-10  4.5509408806608833e-10  5.7475903846452929e-10  7.1926827866280467e-10  8.9173814700056606e-10  1.0950876638363337e-09  1.3318417713977825e-09  1.6039080111738182e-09  1.9123370937792824e-09  2.2570820277098677e-09  2.6367741812830028e-09  3.0485372655639573e-09  3.4878611594455001e-09  3.9485562646676042e-09  4.4228053908219854e-09  4.9013240272112348e-09  5.3736316007636001e-09  5.8284266362423524e-09  6.2540486111098974e-09  6.6389999003678794e-09  6.9724937301161379e-09  7.2449895429140149e-09  7.4486763413701955e-09  7.5778676871975231e-09  7.6292788507413379e-09  7.6021664033659345e-09  7.4983222092917369e-09  7.3219259693048798e-09  7.0792718335080963e-09  6.7783939357460504e-09  6.4286221310402299e-09  6.0401022789209864e-09  5.6233150920105955e-09  5.1886242422866627e-09  4.7458787721847906e-09  4.3040877550098879e-09  3.8711774916937839e-09  3.4538341442107287e-09  3.0574282498828416e-09  2.6860124798425608e-09  2.3423805162964557e-09  2.0281730371831666e-09  1.7440163589653679e-09  1.4896800332449521e-09  1.2642412989571887e-09  1.0662464293569202e-09  8.9386138113310178e-10  7.4500650407548705e-10  6.1747222059981090e-10  5.0901441756541268e-10  4.1742974980643017e-10  3.4061212543210522e-10  2.7659235233336246e-10  2.2356332120328041e-10  1.7989324201604111e-10  1.4412940031754134e-10  1.1499471529722464e-10  9.1379114366056648e-11  7.2327430346115659e-11  5.7025209023223189e-11  4.4783509210098947e-11  3.5023499343654056e-11  2.7261412810986283e-11  2.1094223699634645e-11  1.6186249189395940e-11  1.2256779592847232e-11  9.0687926427855133e-12  6.4188460021093542e-12  4.1284001169871823e-12  2.0371700338371880e-12  0.0000000000000000e+00  0.0000000000000000e+00  1.1369274448870920e-14  2.5017822070040121e-14  4.3213940377997871e-14  6.8958776272498441e-14  1.0642812888858379e-13  1.6156735485260505e-13  2.4291157590166874e-13  3.6272234367488639e-13  5.3856011805207812e-13  7.9544774233807552e-13  1.1688243621320241e-12  1.7085423274903505e-12  2.4842211438970618e-12  3.5923408191304375e-12  5.1655284027013736e-12  7.3845598817656711e-12  1.0493655138485273e-11  1.4819672336044814e-11  2.0795790878715362e-11  2.8990184787495767e-11  4.0140002028486405e-11  5