<?xml version="1.0"?>
<VTKFile type="UnstructuredGrid"  version="0.1"  >
<UnstructuredGrid>
<Piece  NumberOfPoints="10201" NumberOfCells="20000">
<Points>
<DataArray  type="Float64"  NumberOfComponents="3"  format="ascii">0 0 0  0.01 0 0  0.02 0 0  0.03 0 0  0.04 0 0  0.05 0 0  0.06 0 0  0.07000000000000001 0 0  0.08 0 0  0.09 0 0  0.1 0 0  0.11 0 0  0.12 0 0  0.13 0 0  0.14 0 0  0.15 0 0  0.16 0 0  0.17 0 0  0.18 0 0  0.19 0 0  0.2 0 0  0.21 0 0  0.22 0 0  0.23 0 0  0.24 0 0  0.25 0 0  0.26 0 0  0.27 0 0  0.28 0 0  0.29 0 0  0.3 0 0  0.31 0 0  0.32 0 0  0.33 0 0  0.34 0 0  0.35 0 0  0.36 0 0  0.37 0 0  0.38 0 0  0.39 0 0  0.4 0 0  0.41 0 0  0.42 0 0  0.43 0 0  0.44 0 0  0.45 0 0  0.46 0 0  0.47 0 0  0.48 0 0  0.49 0 0  0.5 0 0  0.51 0 0  0.52 0 0  0.53 0 0  0.54 0 0  0.55 0 0  0.5600000000000001 0 0  0.57 0 0  0.58 0 0  0.59 0 0  0.6 0 0  0.61 0 0  0.62 0 0  0.63 0 0  0.64 0 0  0.65 0 0  0.66 0 0  0.67 0 0  0.68 0 0  0.6899999999999999 0 0  0.7 0 0  0.71 0 0  0.72 0 0  0.73 0 0  0.74 0 0  0.75 0 0  0.76 0 0  0.77 0 0  0.78 0 0  0.79 0 0  0.8 0 0  0.8100000000000001 0 0  0.82 0 0  0.83 0 0  0.84 0 0  0.85 0 0  0.86 0 0  0.87 0 0  0.88 0 0  0.89 0 0  0.9 0 0  0.91 0 0  0.92 0 0  0.93 0 0  0.9399999999999999 0 0  0.95 0 0  0.96 0 0  0.97 0 0  0.98 0 0  0.99 0 0  1 0 0  0 0.01 0  0.01 0.01 0  0.02 0.01 0  0.03 0.01 0  0.04 0.01 0  0.05 0.01 0  0.06 0.01 0  0.07000000000000001 0.01 0  0.08 0.01 0  0.09 0.01 0  0.1 0.01 0  0.11 0.01 0  0.12 0.01 0  0.13 0.01 0  0.14 0.01 0  0.15 0.01 0  0.16 0.01 0  0.17 0.01 0  0.18 0.01 0  0.19 0.01 0  0.2 0.01 0  0.21 0.01 0  0.22 0.01 0  0.23 0.01 0  0.24 0.01 0  0.25 0.01 0  0.26 0.01 0  0.27 0.01 0  0.28 0.01 0  0.29 0.01 0  0.3 0.01 0  0.31 0.01 0  0.32 0.01 0  0.33 0.01 0  0.34 0.01 0  0.35 0.01 0  0.36 0.01 0  0.37 0.01 0  0.38 0.01 0  0.39 0.01 0  0.4 0.01 0  0.41 0.01 0  0.42 0.01 0  0.43 0.01 0  0.44 0.01 0  0.45 0.01 0  0.46 0.01 0  0.47 0.01 0  0.48 0.01 0  0.49 0.01 0  0.5 0.01 0  0.51 0.01 0  0.52 0.01 0  0.53 0.01 0  0.54 0.01 0  0.55 0.01 0  0.5600000000000001 0.01 0  0.57 0.01 0  0.58 0.01 0  0.59 0.01 0  0.6 0.01 0  0.61 0.01 0  0.62 0.01 0  0.63 0.01 0  0.64 0.01 0  0.65 0.01 0  0.66 0.01 0  0.67 0.01 0  0.68 0.01 0  0.6899999999999999 0.01 0  0.7 0.01 0  0.71 0.01 0  0.72 0.01 0  0.73 0.01 0  0.74 0.01 0  0.75 0.01 0  0.76 0.01 0  0.77 0.01 0  0.78 0.01 0  0.79 0.01 0  0.8 0.01 0  0.8100000000000001 0.01 0  0.82 0.01 0  0.83 0.01 0  0.84 0.01 0  0.85 0.01 0  0.86 0.01 0  0.87 0.01 0  0.88 0.01 0  0.89 0.01 0  0.9 0.01 0  0.91 0.01 0  0.92 0.01 0  0.93 0.01 0  0.9399999999999999 0.01 0  0.95 0.01 0  0.96 0.01 0  0.97 0.01 0  0.98 0.01 0  0.99 0.01 0  1 0.01 0  0 0.02 0  0.01 0.02 0  0.02 0.02 0  0.03 0.02 0  0.04 0.02 0  0.05 0.02 0  0.06 0.02 0  0.07000000000000001 0.02 0  0.08 0.02 0  0.09 0.02 0  0.1 0.02 0  0.11 0.02 0  0.12 0.02 0  0.13 0.02 0  0.14 0.02 0  0.15 0.02 0  0.16 0.02 0  0.17 0.02 0  0.18 0.02 0  0.19 0.02 0  0.2 0.02 0  0.21 0.02 0  0.22 0.02 0  0.23 0.02 0  0.24 0.02 0  0.25 0.02 0  0.26 0.02 0  0.27 0.02 0  0.28 0.02 0  0.29 0.02 0  0.3 0.02 0  0.31 0.02 0  0.32 0.02 0  0.33 0.02 0  0.34 0.02 0  0.35 0.02 0  0.36 0.02 0  0.37 0.02 0  0.38 0.02 0  0.39 0.02 0  0.4 0.02 0  0.41 0.02 0  0.42 0.02 0  0.43 0.02 0  0.44 0.02 0  0.45 0.02 0  0.46 0.02 0  0.47 0.02 0  0.48 0.02 0  0.49 0.02 0  0.5 0.02 0  0.51 0.02 0  0.52 0.02 0  0.53 0.02 0  0.54 0.02 0  0.55 0.02 0  0.5600000000000001 0.02 0  0.57 0.02 0  0.58 0.02 0  0.59 0.02 0  0.6 0.02 0  0.61 0.02 0  0.62 0.02 0  0.63 0.02 0  0.64 0.02 0  0.65 0.02 0  0.66 0.02 0  0.67 0.02 0  0.68 0.02 0  0.6899999999999999 0.02 0  0.7 0.02 0  0.71 0.02 0  0.72 0.02 0  0.73 0.02 0  0.74 0.02 0  0.75 0.02 0  0.76 0.02 0  0.77 0.02 0  0.78 0.02 0  0.79 0.02 0  0.8 0.02 0  0.8100000000000001 0.02 0  0.82 0.02 0  0.83 0.02 0  0.84 0.02 0  0.85 0.02 0  0.86 0.02 0  0.87 0.02 0  0.88 0.02 0  0.89 0.02 0  0.9 0.02 0  0.91 0.02 0  0.92 0.02 0  0.93 0.02 0  0.9399999999999999 0.02 0  0.95 0.02 0  0.96 0.02 0  0.97 0.02 0  0.98 0.02 0  0.99 0.02 0  1 0.02 0  0 0.03 0  0.01 0.03 0  0.02 0.03 0  0.03 0.03 0  0.04 0.03 0  0.05 0.03 0  0.06 0.03 0  0.07000000000000001 0.03 0  0.08 0.03 0  0.09 0.03 0  0.1 0.03 0  0.11 0.03 0  0.12 0.03 0  0.13 0.03 0  0.14 0.03 0  0.15 0.03 0  0.16 0.03 0  0.17 0.03 0  0.18 0.03 0  0.19 0.03 0  0.2 0.03 0  0.21 0.03 0  0.22 0.03 0  0.23 0.03 0  0.24 0.03 0  0.25 0.03 0  0.26 0.03 0  0.27 0.03 0  0.28 0.03 0  0.29 0.03 0  0.3 0.03 0  0.31 0.03 0  0.32 0.03 0  0.33 0.03 0  0.34 0.03 0  0.35 0.03 0  0.36 0.03 0  0.37 0.03 0  0.38 0.03 0  0.39 0.03 0  0.4 0.03 0  0.41 0.03 0  0.42 0.03 0  0.43 0.03 0  0.44 0.03 0  0.45 0.03 0  0.46 0.03 0  0.47 0.03 0  0.48 0.03 0  0.49 0.03 0  0.5 0.03 0  0.51 0.03 0  0.52 0.03 0  0.53 0.03 0  0.54 0.03 0  0.55 0.03 0  0.5600000000000001 0.03 0  0.57 0.03 0  0.58 0.03 0  0.59 0.03 0  0.6 0.03 0  0.61 0.03 0  0.62 0.03 0  0.63 0.03 0  0.64 0.03 0  0.65 0.03 0  0.66 0.03 0  0.67 0.03 0  0.68 0.03 0  0.6899999999999999 0.03 0  0.7 0.03 0  0.71 0.03 0  0.72 0.03 0  0.73 0.03 0  0.74 0.03 0  0.75 0.03 0  0.76 0.03 0  0.77 0.03 0  0.78 0.03 0  0.79 0.03 0  0.8 0.03 0  0.8100000000000001 0.03 0  0.82 0.03 0  0.83 0.03 0  0.84 0.03 0  0.85 0.03 0  0.86 0.03 0  0.87 0.03 0  0.88 0.03 0  0.89 0.03 0  0.9 0.03 0  0.91 0.03 0  0.92 0.03 0  0.93 0.03 0  0.9399999999999999 0.03 0  0.95 0.03 0  0.96 0.03 0  0.97 0.03 0  0.98 0.03 0  0.99 0.03 0  1 0.03 0  0 0.04 0  0.01 0.04 0  0.02 0.04 0  0.03 0.04 0  0.04 0.04 0  0.05 0.04 0  0.06 0.04 0  0.07000000000000001 0.04 0  0.08 0.04 0  0.09 0.04 0  0.1 0.04 0  0.11 0.04 0  0.12 0.04 0  0.13 0.04 0  0.14 0.04 0  0.15 0.04 0  0.16 0.04 0  0.17 0.04 0  0.18 0.04 0  0.19 0.04 0  0.2 0.04 0  0.21 0.04 0  0.22 0.04 0  0.23 0.04 0  0.24 0.04 0  0.25 0.04 0  0.26 0.04 0  0.27 0.04 0  0.28 0.04 0  0.29 0.04 0  0.3 0.04 0  0.31 0.04 0  0.32 0.04 0  0.33 0.04 0  0.34 0.04 0  0.35 0.04 0  0.36 0.04 0  0.37 0.04 0  0.38 0.04 0  0.39 0.04 0  0.4 0.04 0  0.41 0.04 0  0.42 0.04 0  0.43 0.04 0  0.44 0.04 0  0.45 0.04 0  0.46 0.04 0  0.47 0.04 0  0.48 0.04 0  0.49 0.04 0  0.5 0.04 0  0.51 0.04 0  0.52 0.04 0  0.53 0.04 0  0.54 0.04 0  0.55 0.04 0  0.5600000000000001 0.04 0  0.57 0.04 0  0.58 0.04 0  0.59 0.04 0  0.6 0.04 0  0.61 0.04 0  0.62 0.04 0  0.63 0.04 0  0.64 0.04 0  0.65 0.04 0  0.66 0.04 0  0.67 0.04 0  0.68 0.04 0  0.6899999999999999 0.04 0  0.7 0.04 0  0.71 0.04 0  0.72 0.04 0  0.73 0.04 0  0.74 0.04 0  0.75 0.04 0  0.76 0.04 0  0.77 0.04 0  0.78 0.04 0  0.79 0.04 0  0.8 0.04 0  0.8100000000000001 0.04 0  0.82 0.04 0  0.83 0.04 0  0.84 0.04 0  0.85 0.04 0  0.86 0.04 0  0.87 0.04 0  0.88 0.04 0  0.89 0.04 0  0.9 0.04 0  0.91 0.04 0  0.92 0.04 0  0.93 0.04 0  0.9399999999999999 0.04 0  0.95 0.04 0  0.96 0.04 0  0.97 0.04 0  0.98 0.04 0  0.99 0.04 0  1 0.04 0  0 0.05 0  0.01 0.05 0  0.02 0.05 0  0.03 0.05 0  0.04 0.05 0  0.05 0.05 0  0.06 0.05 0  0.07000000000000001 0.05 0  0.08 0.05 0  0.09 0.05 0  0.1 0.05 0  0.11 0.05 0  0.12 0.05 0  0.13 0.05 0  0.14 0.05 0  0.15 0.05 0  0.16 0.05 0  0.17 0.05 0  0.18 0.05 0  0.19 0.05 0  0.2 0.05 0  0.21 0.05 0  0.22 0.05 0  0.23 0.05 0  0.24 0.05 0  0.25 0.05 0  0.26 0.05 0  0.27 0.05 0  0.28 0.05 0  0.29 0.05 0  0.3 0.05 0  0.31 0.05 0  0.32 0.05 0  0.33 0.05 0  0.34 0.05 0  0.35 0.05 0  0.36 0.05 0  0.37 0.05 0  0.38 0.05 0  0.39 0.05 0  0.4 0.05 0  0.41 0.05 0  0.42 0.05 0  0.43 0.05 0  0.44 0.05 0  0.45 0.05 0  0.46 0.05 0  0.47 0.05 0  0.48 0.05 0  0.49 0.05 0  0.5 0.05 0  0.51 0.05 0  0.52 0.05 0  0.53 0.05 0  0.54 0.05 0  0.55 0.05 0  0.5600000000000001 0.05 0  0.57 0.05 0  0.58 0.05 0  0.59 0.05 0  0.6 0.05 0  0.61 0.05 0  0.62 0.05 0  0.63 0.05 0  0.64 0.05 0  0.65 0.05 0  0.66 0.05 0  0.67 0.05 0  0.68 0.05 0  0.6899999999999999 0.05 0  0.7 0.05 0  0.71 0.05 0  0.72 0.05 0  0.73 0.05 0  0.74 0.05 0  0.75 0.05 0  0.76 0.05 0  0.77 0.05 0  0.78 0.05 0  0.79 0.05 0  0.8 0.05 0  0.8100000000000001 0.05 0  0.82 0.05 0  0.83 0.05 0  0.84 0.05 0  0.85 0.05 0  0.86 0.05 0  0.87 0.05 0  0.88 0.05 0  0.89 0.05 0  0.9 0.05 0  0.91 0.05 0  0.92 0.05 0  0.93 0.05 0  0.9399999999999999 0.05 0  0.95 0.05 0  0.96 0.05 0  0.97 0.05 0  0.98 0.05 0  0.99 0.05 0  1 0.05 0  0 0.06 0  0.01 0.06 0  0.02 0.06 0  0.03 0.06 0  0.04 0.06 0  0.05 0.06 0  0.06 0.06 0  0.07000000000000001 0.06 0  0.08 0.06 0  0.09 0.06 0  0.1 0.06 0  0.11 0.06 0  0.12 0.06 0  0.13 0.06 0  0.14 0.06 0  0.15 0.06 0  0.16 0.06 0  0.17 0.06 0  0.18 0.06 0  0.19 0.06 0  0.2 0.06 0  0.21 0.06 0  0.22 0.06 0  0.23 0.06 0  0.24 0.06 0  0.25 0.06 0  0.26 0.06 0  0.27 0.06 0  0.28 0.06 0  0.29 0.06 0  0.3 0.06 0  0.31 0.06 0  0.32 0.06 0  0.33 0.06 0  0.34 0.06 0  0.35 0.06 0  0.36 0.06 0  0.37 0.06 0  0.38 0.06 0  0.39 0.06 0  0.4 0.06 0  0.41 0.06 0  0.42 0.06 0  0.43 0.06 0  0.44 0.06 0  0.45 0.06 0  0.46 0.06 0  0.47 0.06 0  0.48 0.06 0  0.49 0.06 0  0.5 0.06 0  0.51 0.06 0  0.52 0.06 0  0.53 0.06 0  0.54 0.06 0  0.55 0.06 0  0.5600000000000001 0.06 0  0.57 0.06 0  0.58 0.06 0  0.59 0.06 0  0.6 0.06 0  0.61 0.06 0  0.62 0.06 0  0.63 0.06 0  0.64 0.06 0  0.65 0.06 0  0.66 0.06 0  0.67 0.06 0  0.68 0.06 0  0.6899999999999999 0.06 0  0.7 0.06 0  0.71 0.06 0  0.72 0.06 0  0.73 0.06 0  0.74 0.06 0  0.75 0.06 0  0.76 0.06 0  0.77 0.06 0  0.78 0.06 0  0.79 0.06 0  0.8 0.06 0  0.8100000000000001 0.06 0  0.82 0.06 0  0.83 0.06 0  0.84 0.06 0  0.85 0.06 0  0.86 0.06 0  0.87 0.06 0  0.88 0.06 0  0.89 0.06 0  0.9 0.06 0  0.91 0.06 0  0.92 0.06 0  0.93 0.06 0  0.9399999999999999 0.06 0  0.95 0.06 0  0.96 0.06 0  0.97 0.06 0  0.98 0.06 0  0.99 0.06 0  1 0.06 0  0 0.07000000000000001 0  0.01 0.07000000000000001 0  0.02 0.07000000000000001 0  0.03 0.07000000000000001 0  0.04 0.07000000000000001 0  0.05 0.07000000000000001 0  0.06 0.07000000000000001 0  0.07000000000000001 0.07000000000000001 0  0.08 0.07000000000000001 0  0.09 0.07000000000000001 0  0.1 0.07000000000000001 0  0.11 0.07000000000000001 0  0.12 0.07000000000000001 0  0.13 0.07000000000000001 0  0.14 0.07000000000000001 0  0.15 0.07000000000000001 0  0.16 0.07000000000000001 0  0.17 0.0700
[...]
<PointData  Scalars="u"> 
<DataArray  type="Float64"  Name="u"  format="ascii">0.0000000000000000e+00  0.0000000000000000e+00  0.0000000000000000e+00  0.0000000000000000e+00  0.0000000000000000e+00  0.0000000000000000e+00  0.0000000000000000e+00  0.0000000000000000e+00  0.0000000000000000e+00  0.0000000000000000e+00  0.0000000000000000e+00  0.0000000000000000e+00  0.0000000000000000e+00  0.0000000000000000e+00  0.0000000000000000e+00  0.0000000000000000e+00  0.0000000000000000e+00  0.0000000000000000e+00  0.0000000000000000e+00  0.0000000000000000e+00  0.0000000000000000e+00  0.0000000000000000e+00  0.0000000000000000e+00  0.0000000000000000e+00  0.0000000000000000e+00  0.0000000000000000e+00  0.0000000000000000e+00  0.0000000000000000e+00  0.0000000000000000e+00  0.0000000000000000e+00  0.0000000000000000e+00  0.0000000000000000e+00  0.0000000000000000e+00  0.0000000000000000e+00  0.0000000000000000e+00  0.0000000000000000e+00  0.0000000000000000e+00  0.0000000000000000e+00  0.0000000000000000e+00  0.0000000000000000e+00  0.0000000000000000e+00  0.0000000000000000e+00  0.0000000000000000e+00  0.0000000000000000e+00  0.0000000000000000e+00  0.0000000000000000e+00  0.0000000000000000e+00  0.0000000000000000e+00  0.0000000000000000e+00  0.0000000000000000e+00  0.0000000000000000e+00  0.0000000000000000e+00  0.0000000000000000e+00  0.0000000000000000e+00  0.0000000000000000e+00  0.0000000000000000e+00  0.0000000000000000e+00  0.0000000000000000e+00  0.0000000000000000e+00  0.0000000000000000e+00  0.0000000000000000e+00  0.0000000000000000e+00  0.0000000000000000e+00  0.0000000000000000e+00  0.0000000000000000e+00  0.0000000000000000e+00  0.0000000000000000e+00  0.0000000000000000e+00  0.0000000000000000e+00  0.0000000000000000e+00  0.0000000000000000e+00  0.0000000000000000e+00  0.0000000000000000e+00  0.0000000000000000e+00  0.0000000000000000e+00  0.0000000000000000e+00  0.0000000000000000e+00  0.0000000000000000e+00  0.0000000000000000e+00  0.0000000000000000e+00  0.0000000000000000e+00  0.0000000000000000e+00  0.0000000000000000e+00  0.0000000000000000e+00  0.0000000000000000e+00  0.0000000000000000e+00  0.0000000000000000e+00  0.0000000000000000e+00  0.0000000000000000e+00  0.0000000000000000e+00  0.0000000000000000e+00  0.0000000000000000e+00  0.0000000000000000e+00  0.0000000000000000e+00  0.0000000000000000e+00  0.0000000000000000e+00  0.0000000000000000e+00  0.0000000000000000e+00  0.0000000000000000e+00  0.0000000000000000e+00  0.0000000000000000e+00  0.0000000000000000e+00  5.6602168379629772e-16  1.2451612090219216e-15  2.1396370974124115e-15  3.3833497940774884e-15  5.1599692814418037e-15  7.7262347516354744e-15  1.1443460801845303e-14  1.6820220693798738e-14  2.4569986986319718e-14  3.5688483620637490e-14  5.1556642368689084e-14  7.4076340245047297e-14  1.0584747437068440e-13  1.5039631885337793e-13  2.1246636461594772e-13  2.9838376311003418e-13  4.1650979783950607e-13  5.7779213005564422e-13  7.9642446180614622e-13  1.0906202182805671e-12  1.4834993244840472e-12  2.0040776111593473e-12  2.6883354061915357e-12  3.5803252371774860e-12  4.7332584214827447e-12  6.2104872800896938e-12  8.0862750495226583e-12  1.0446221307080236e-11  1.3387189702003066e-11  1.7016570591224568e-11  2.1450707974499679e-11  2.6812332283852550e-11  3.3226872159207991e-11  4.0817572378349092e-11  4.9699422851291657e-11  5.9972003703783748e-11  7.1711469406046928e-11  8.4962022526694279e-11  9.9727353422641812e-11  1.1596263164725837e-10  1.3356771222178838e-10  1.5238224969764518e-10  1.7218338228939521e-10  1.9268654938484040e-10  2.1354983754352650e-10  2.3438202013272436e-10  2.5475418012981729e-10  2.7421450814183720e-10  2.9230557758961498e-10  3.0858314760091039e-10  3.2263536087716062e-10  3.3410111210838024e-10  3.4268637645777675e-10  3.4817740957572229e-10  3.5044995051937228e-10  3.4947385555064994e-10  3.4531293416065840e-10  3.3812011418580298e-10  3.2812839559809705e-10  3.1563833152787752e-10  3.0100297691007384e-10  2.8461135627151609e-10  2.6687151968618999e-10  2.4819418691076739e-10  2.2897783940056058e-10  2.0959592897132884e-10  1.9038665341797165e-10  1.7164552606097909e-10  1.5362075773029083e-10  1.3651129134305905e-10  1.2046719083781541e-10  1.0559199220336130e-10  9.1946574229922609e-11  7.9554096096341996e-11  6.8405571038431324e-11  5.8465691777376914e-11  4.9678585502148664e-11  4.1973245977692107e-11  3.5268460980776841e-11  2.9477119476373000e-11  2.4509841098685193e-11  2.0277918488627650e-11  1.6695600078002845e-11  1.3681767247558163e-11  1.1161076399286774e-11  9.0646447963519848e-12  7.3303606635063765e-12  5.9028946480852489e-12  4.7334828411913635e-12  3.7795424821382743e-12  3.0041713281703834e-12  2.3755713745233462e-12  1.8664279203503323e-12  1.4532666111387927e-12  1.1158048652044859e-12  8.3631112893434629e-13  5.9898737355763638e-13  3.8939957224403150e-13  1.9399969492670469e-13  0.0000000000000000e+00  0.0000000000000000e+00  1.1134678974939935e-15  2.4515984571723605e-15  4.2167781792116339e-15  6.6755543462810456e-15  1.0194236962714525e-14  1.5285902731386951e-14  2.2674082120054520e-14  3.3379247665017110e-14  4.8835898348495843e-14  7.1050076261576844e-14  1.0280955485416969e-13  1.4796166625029938e-13  2.1177669438727243e-13  3.0141777559091626e-13  4.2654103417377651e-13  6.0005181583873924e-13  8.3904378089341234e-13  1.1659465167295095e-12  1.6099032775585667e-12  2.2083923565119856e-12  3.0090922471743205e-12  4.0719709872305849e-12  5.4715529200165088e-12  7.2992810140105786e-12  9.6658500201685738e-12  1.2703336345288713e-11  1.6566897174283423e-11  2.1435758328131492e-11  2.7513163623292380e-11  3.5024925832425007e-11  4.4216209787500609e-11  5.5346201337413524e-11  6.8680380818073576e-11  8.4480233375771183e-11  1.0299039404299274e-10  1.2442344045663179e-10  1.4894280103174449e-10  1.7664452386762375e-10  2.0753892654150872e-10  2.4153338781092699e-10  2.7841771419125710e-10  3.1785358311584158e-10  3.5936950125204282e-10  4.0236250371143747e-10  4.4610745498342507e-10  4.8977431159666209e-10  5.3245310519150248e-10  5.7318575542601856e-10  6.1100318959001755e-10  6.4496569922304163e-10  6.7420406832781980e-10  6.9795881441328951e-10  7.1561492292127567e-10  7.2672973177388207e-10  7.3105211250190492e-10  7.2853174944041253e-10  7.1931807183445751e-10  7.0374916846119446e-10  6.8233173362762913e-10  6.5571368980512121e-10  6.2465155568839667e-10  5.8997485128190710e-10  5.5254984957793448e-10  5.1324481528730384e-10  4.7289855020055267e-10  4.3229363872724211e-10  3.9213530718361958e-10  3.5303632586361055e-10  3.1550793624451095e-10  2.7995640880710094e-10  2.4668454978964567e-10  2.1589728569058293e-10  1.8771035994263851e-10  1.6216116623403279e-10  1.3922080142653594e-10  1.1880652928053898e-10  1.0079398539487016e-10  8.5028606690872543e-11  7.1335921064780702e-11  5.9530473631398680e-11  4.9423288007938718e-11  4.0827860374018110e-11  3.3564759410417764e-11  2.7464957616944643e-11  2.2372051354322073e-11  1.8143541512749555e-11  1.4651347585591048e-11  1.1781718675586154e-11  9.4346888253559847e-12  7.5232038278772547e-12  5.9720246193287525e-12  4.7164903158873099e-12  3.7012034322681234e-12  2.8786822044835274e-12  2.2080118195253777e-12  1.6535199464129595e-12  1.1835057072693392e-12  7.6907061460063498e-13  3.8314381436660283e-13  0.0000000000000000e+00  0.0000000000000000e+00  1.7225837113225622e-15  3.7963442152526379e-15  6.5387535206596859e-15  1.0369373904561987e-14  1.5866556290527912e-14  2.3842889295185348e-14  3.5447807155146272e-14  5.2307446194233691e-14  7.6714679261166923e-14  1.1188573143133196e-13  1.6230390359426877e-13  2.3417565863262412e-13  3.3602951853241702e-13  4.7949360426897430e-13  6.8029276268840957e-13  9.5951036720678272e-13  1.3451620661482297e-12  1.8741276740501996e-12  2.5944814131027243e-12  3.5682478700226017e-12  4.8745891943179902e-12  6.6133960711675262e-12  8.9092089816508306e-12  1.1915336031358844e-11  1.5817959211384268e-11  2.0839934185221853e-11  2.7243893821097500e-11  3.5334169908137353e-11  4.5456961260488701e-11  5.7998113371378539e-11  7.3377851159286658e-11  9.2041839682780218e-11  1.1444805479772851e-10  1.4104913995995462e-10  1.7227021346819348e-10  2.0848246918998479e-10  2.4997336723131258e-10  2.9691470861596724e-10  3.4933038493627869e-10  4.0706603325429269e-10  4.6976314449001160e-10  5.3684030694279620e-10  6.0748416211436833e-10  6.8065227393604485e-10  7.5508945949866289e-10  8.2935822832634612e-10  9.0188289274318056e-10  9.7100574041843612e-10  1.0350525206395913e-09  1.0924035155438325e-09  1.1415657653162674e-09  1.1812416857196896e-09  1.2103894110227853e-09  1.2282707203844269e-09  1.2344833149893677e-09  1.2289754150131672e-09  1.2120420144839020e-09  1.1843035260892819e-09  1.1466688265851648e-09  1.1002857558747244e-09  1.0464828417445710e-09  9.8670637225121315e-10  9.2245691728748273e-10  8.5522904809766064e-10  7.8645738743330255e-10  7.1747133158550809e-10  6.4945991289631363e-10  5.8344740639458123e-10  5.2027950131595691e-10  4.6061921160650061e-10  4.0495122069705785e-10  3.5359305478982471e-10  3.0671134704824986e-10  2.6434147003714017e-10  2.2640894453868484e-10  1.9275124489557576e-10  1.6313888035659399e-10  1.3729490833523088e-10  1.1491230456162339e-10  9.5668858902287647e-11  7.9239472754394400e-11  6.5305898840502721e-11  5.3564086143408878e-11  4.3729374358430834e-11  3.5539828633188055e-11  2.8758022764935774e-11  2.3171574033071033e-11  1.8592711768616162e-11  1.4857130209522466e-11  1.1822338855956098e-11  9.3656841727920382e-12  7.3821780005777598e-12  5.7822327464156774e-12  4.4893734181288787e-12  3.4379742197060055e-12  2.5710561578687272e-12  1.8381874093089201e-12  1.1935591025522845e-12  5.9437980884993845e-13  0.0000000000000000e+00  0.0000000000000000e+00  2.4649632776347437e-15  5.4385933245525377e-15  9.3833924607816002e-15  1.4912799137862620e-14  2.2875608806154489e-14  3.4468992043266378e-14  5.1392880542393301e-14  7.6061350240528325e-14  1.1189115275595341e-13  1.6369312554344284e-13  2.3819889804144281e-13  3.4476306715917799e-13  4.9628965739474779e-13  7.1044081107183280e-13  1.0111945780545832e-12  1.4308263090451549e-12  2.0123929407879502e-12  2.8127992813556086e-12  3.9065175584382669e-12  5.3900127309168717e-12  7.3868927219683865e-12  1.0053751026650909e-11  1.3586595642574556e-11  1.8227660556268785e-11  2.4272273578016549e-11  3.2075309578335391e-11  4.2056597596144765e-11  5.4704485342094960e-11  7.0576612472280334e-11  9.0296827542149798e-11  1.1454713049901474e-10  1.4405356345511568e-10  1.7956513722434760e-10  2.2182519435725217e-10  2.7153508492417282e-10  3.2931066599390950e-10  3.9563290444670998e-10  4.7079471474690879e-10  5.5484702209199381e-10  6.4754780857249013e-10  7.4831846399321795e-10  8.5621201209749350e-10  9.6989762175631690e-10  1.0876651798953410e-09  1.2074525870597945e-09  1.3268968868175477e-09  1.4434084696254860e-09  1.5542655701680940e-09  1.6567243143447385e-09  1.7481378925060258e-09  1.8260772479924710e-09  1.8884451370120316e-09  1.9335756280855525e-09  1.9603120696850809e-09  1.9680581755308462e-09  1.9567989903676730e-09  1.9270908794065509e-09  1.8800220797460233e-09  1.8171475168592273e-09  1.7404033170146041e-09  1.6520075931882746e-09  1.5543545795292840e-09  1.4499090474110460e-09  1.3411072328637996e-09  1.2302693703911009e-09  1.1195275208631128e-09  1.0107708670128144e-09  9.0560918116796259e-10  8.0535386967946574e-10  7.1101495290231376e-10  6.2331159415713776e-10  5.4269335397673402e-10  4.6936919443088571e-10  4.0334134776289659e-10  3.4444143673746484e-10  2.9236662985589322e-10  2.4671407490594773e-10  2.0701232918309267e-10  1.7274895500259556e-10  1.4339384745622021e-10  1.1841819163114906e-10  9.7309202281175043e-11  7.9580981420498210e-11  6.4781945084135538e-11  5.2499329432531043e-11  4.2361299826523608e-11  3.4037165914467171e-11  2.7236161733545856e-11  2.1705191452253673e-11  1.7225876083097998e-11  1.3611169998115147e-11  1.0701752656281577e-11  8.3623438396525795e-12  6.4780427034487479e-12  4.9507552873445538e-12  3.6957565862123101e-12  2.6384398272972439e-12  1.7113508434869485e-12  8.5171167311210896e-13  0.0000000000000000e+00  0.0000000000000000e+00  3.4143997682517344e-15  7.5429771547692107e-15  1.3039575742727120e-14  2.0774803451781637e-14  3.1958432654469749e-14  4.8304199784089232e-14  7.2256048540198636e-14  1.0729946410510597e-13  1.5838859300517873e-13  2.3252861825534138e-13  3.3956348571552223e-13  4.9323155213934250e-13  7.1256583009245411e-13  1.0237306942846322e-12  1.4624021779773348e-12  2.0768126967707417e-12  2.9315907787246639e-12  4.1125288194474849e-12  5.7324026731778253e-12  7.9379406988826010e-12  1.0917990561731902e-11  1.4912853122527436e-11  2.0224637959635254e-11  2.7228339728264872e-11  3.6383136834442304e-11  4.8243176612167812e-11  6.3466843760369566e-11  8.2823229058426430e-11  1.0719425092797401e-10  1.3757067094775592e-10  1.7504013260025878e-10  2.2076539271700019e-10  2.7595115986233906e-10  3.4179844810155455e-10  4.1944612559471369e-10  5.0990038455350623e-10  6.1395414388969975e-10  7.3209983561534894e-10  8.6444049231088277e-10  1.0106053777102013e-09  1.1696773924967584e-09  1.3401399472459893e-09  1.5198507552438765e-09  1.7060489489499749e-09  1.8954000412187572e-09  2.0840806187993763e-09  2.2679014663754076e-09  2.4424643704811657e-09  2.6033445107183979e-09  2.7462875027918236e-09  2.8674081769332174e-09  2.9633773356210207e-09  3.0315831866573660e-09  3.0702558860824062e-09  3.0785464845561500e-09  3.0565552459972194e-09  3.0053083966632772e-09  2.9266864239040726e-09  2.8233106537657456e-09  2.6983976474934514e-09  2.5555927362208207e-09  2.3987946645851443e-09  2.2319828775741588e-09  2.0590576172412437e-09  1.8837009372546426e-09  1.7092642772288207e-09  1.5386856523074880e-09  1.3744370623001726e-09  1.2185006089393912e-09  1.0723701609561422e-09  9.3707428547688566e-10  8.1321556808181616e-10  7.0102132000406395e-10  6.0040093298516013e-10  5.1100568675152029e-10  4.3228753501237586e-10  3.6355419624554791e-10  3.0401867461282627e-10  2.5284207348140751e-10  2.0916919922624005e-10  1.7215696515802487e-10  1.4099598915930264e-10  1.1492604031365264e-10  9.3246143748036170e-11  7.5320217678891770e-11  6.0579112312515637e-11  4.8519866166088042e-11  3.8702908821247651e-11  3.0747834517768109e-11  2.4328259672581178e-11  1.9166167782132367e-11  1.5026043203404148e-11  1.1709005260247527e-11  9.0470794839898235e-12  6.8976875954447524e-12  5.1384083707944926e-12  3.6620688749287951e-12  2.3722891924027792e-12  1.1797566363307625e-12  0.0000000000000000e+00  0.0000000000000000e+00  4.6548970054605186e-15  1.0297557581727126e-14  1.7839069951507190e-14  2.8497587323299102e-14  4.3973573566043294e-14  6.6687103781852389e-14  1.0010537091951860e-13  1.4919579103048418e-13  2.2105097298503908e-13  3.2574548456406097e-13  4.7750107066991028e-13  6.9625685090460864e-13  1.0097638204314307e-12  1.4563479856563479e-12  2.0885122545731056e-12  2.9775713616946651e-12  4.2195329698481087e-12  5.9424464601323086e-12  8.3154318832803499e-12  1.1559566431601691e-11  1.5960734399856167e-11  2.1884427810167549e-11  2.9792307746368752e-11  4.0260091964524802e-11  5.3996017815918376e-11  7.1858743527936965e-11  9.4873108686189747e-11  1.2424170357711971e-10  1.6134974073184391e-10  2.0776034212914359e-10  2.6519712995785810e-10  3.3551102695878399e-10  4.2062852598450723e-10  5.2247945855028586e-10  6.4290353216158965e-10  7.8353662311889371e-10  9.4567994836646384e-10  1.1301576630305568e-09  1.3371709252678185e-09  1.5661587510401886e-09  1.8156777151878429e-09  2.0833134002823330e-09  2.3656361526581409e-09  2.6582119761186355e-09  2.9556762290740299e-09  3.2518733284064076e-09  3.5400602398430703e-09  3.8131656649731907e-09  4.0640911590669733e-09  4.2860356151021723e-09  4.4728212578396703e-09  4.6191979864373698e-09  4.7211038332331033e-09  4.7758624407412392e-09  4.7823034878717209e-09  4.7407983682570841e-09  4.6532104242384074e-09  4.5227658953141062e-09  4.3538577237288684e-09  4.1517988904295908e-09  3.9225446620571304e-09  3.6724038878471520e-09  3.4077584049305988e-09  3.1348069989719933e-09  2.8593466656681861e-09  2.5865996296149292e-09  2.3210901932221035e-09  2.0665714352250350e-09  1.8259983752139161e-09  1.6015416627091379e-09  1.3946342092561553e-09  1.2060424263976749e-09  1.0359537479179873e-09  8.8407273821768141e-10  7.4971913578085689e-10  6.3192247042332453e-10  5.2950926544598787e-10  4.4118016298475066e-10  3.6557550110560165e-10  3.0132886847795507e-10  2.4710894193723840e-10  2.0165047393520128e-10  1.6377565856341176e-10  1.3240729531896703e-10  1.0657522305324410e-10  8.5417447259169212e-11  6.8177264145486453e-11  5.4197522499664312e-11  4.2912981491986341e-11  3.3841536233564208e-11  2.6574905060095553e-11  2.0769211155585897e-11  1.6135751463446503e-11  1.2432131817156071e-11  9.4538635073298941e-12  7.0264710016619923e-12  4.9981680771480762e-12  3.2332473348611794e-12  1.6065428171742449e-12  0.0000000000000000e+00  0.0000000000000000e+00  6.2877647221140393e-15  1.3929848828247736e-14  2.4185160108433793e-14  3.8744144207297013e-14  5.9977834663505050e-14  9.1277045050858152e-14  1.3752308430819089e-13  2.0574262093052626e-13  3.0601599052944014e-13  4.5272938908709119e-13  6.6628754609729864e-13  9.7543491943821490e-13  1.4203700443364183e-12  2.0568785215919993e-12  2.9617532738598853e-12  4.2398126335070734e-12  6.0328620368378231e-12  8.5309655740037444e-12  1.1986388476241749e-11  1.6730526842257423e-11  2.3194039703122289e-11  3.1930222082044024e-11  4.3641386867587509e-11  5.9207641310737283e-11  7.9716940259996659e-11  1.0649467360402513e-10  1.4113031760933379e-10  1.8549788978231821e-10  2.4176616354628985e-10  3.1239392227628708e-10  4.0010509148842499e-10  5.0783853501727728e-10  6.3866779558850626e-10  7.9568724790099706e-10  9.8186311566745067e-10  1.1998506094701401e-09  1.4517819880906898e-09  1.7390344178389884e-09  2.0619907459938916e-09  2.4198102303561427e-09  2.8102293025833164e-09  3.2294139922766005e-09  3.6718851735017380e-09  4.1305349552411062e-09  4.5967472231707006e-09  5.0606277815038571e-09  5.5113403206034459e-09  5.9375344447290186e-09  6.3278423518668522e-09  6.6714126571167384e-09  6.9584443869076048e-09  7.1806821650228576e-09  7.3318354709248178e-09  7.4078904902799494e-09  7.4072919155024236e-09  7.3309830925281925e-09  7.1823048801863962e-09  6.9667651374856921e-09  6.6917006379606453e-09  6.3658604606028225e-09  5.9989439443471593e-09  5.6011269721905525e-09  5.1826079367465821e-09  4.7531998255698820e-09  4.3219882569694294e-09  3.8970678795182613e-09  3.4853621619625387e-09  3.0925249460763928e-09  2.7229167147667097e-09  2.3796446209535885e-09  2.0646529981864996e-09  1.7788502254309739e-09  1.5222582148531377e-09  1.2941721305335123e-09  1.0933199041228300e-09  9.1801338502087545e-10  7.6628528786945143e-10  6.3600827969275301e-10  5.2499444812655062e-10  4.3107493637810457e-10  3.5216069609413133e-10  2.8628611096607917e-10  2.3163772241811489e-10  1.8657049939851912e-10  1.4961409761122787e-10  1.1947140820773650e-10  9.5011454413631926e-11  7.5258400375323342e-11  5.9378123609064977e-11  4.6663495451274346e-11  3.6519229369821616e-11  2.8446905014532005e-11  2.2030562224146800e-11  1.6923087672538945e-11  1.2833492166670341e-11  9.5151082174746137e-12  6.7547447246755940e-12  4.3629554378722163e-12  2.1658758065165507e-12  0.0000000000000000e+00  0.0000000000000000e+00  8.4385887589536990e-15  1.8722667204407285e-14  3.2581279837443606e-14  5.2346448845352908e-14  8.1305161543568043e-14  1.2418157030256710e-13  1.8780995511550181e-13  2.8207629929599082e-13  4.2123174662955466e-13  6.2571375902892913e-13  9.2465146651869862e-13  1.3592811882712923e-12  1.9875564785092540e-12  2.8903033284134616e-12  4.1793427066528535e-12  6.0080744562072744e-12  8.5850805020485951e-12  1.2191349126153656e-11  1.7201728674578878e-11  2.4111166131943776e-11  3.3566146029787561e-11  4