<?xml version="1.0"?>
<VTKFile type="UnstructuredGrid"  version="0.1"  >
<UnstructuredGrid>
<Piece  NumberOfPoints="10201" NumberOfCells="20000">
<Points>
<DataArray  type="Float64"  NumberOfComponents="3"  format="ascii">0 0 0  0.01 0 0  0.02 0 0  0.03 0 0  0.04 0 0  0.05 0 0  0.06 0 0  0.07000000000000001 0 0  0.08 0 0  0.09 0 0  0.1 0 0  0.11 0 0  0.12 0 0  0.13 0 0  0.14 0 0  0.15 0 0  0.16 0 0  0.17 0 0  0.18 0 0  0.19 0 0  0.2 0 0  0.21 0 0  0.22 0 0  0.23 0 0  0.24 0 0  0.25 0 0  0.26 0 0  0.27 0 0  0.28 0 0  0.29 0 0  0.3 0 0  0.31 0 0  0.32 0 0  0.33 0 0  0.34 0 0  0.35 0 0  0.36 0 0  0.37 0 0  0.38 0 0  0.39 0 0  0.4 0 0  0.41 0 0  0.42 0 0  0.43 0 0  0.44 0 0  0.45 0 0  0.46 0 0  0.47 0 0  0.48 0 0  0.49 0 0  0.5 0 0  0.51 0 0  0.52 0 0  0.53 0 0  0.54 0 0  0.55 0 0  0.5600000000000001 0 0  0.57 0 0  0.58 0 0  0.59 0 0  0.6 0 0  0.61 0 0  0.62 0 0  0.63 0 0  0.64 0 0  0.65 0 0  0.66 0 0  0.67 0 0  0.68 0 0  0.6899999999999999 0 0  0.7 0 0  0.71 0 0  0.72 0 0  0.73 0 0  0.74 0 0  0.75 0 0  0.76 0 0  0.77 0 0  0.78 0 0  0.79 0 0  0.8 0 0  0.8100000000000001 0 0  0.82 0 0  0.83 0 0  0.84 0 0  0.85 0 0  0.86 0 0  0.87 0 0  0.88 0 0  0.89 0 0  0.9 0 0  0.91 0 0  0.92 0 0  0.93 0 0  0.9399999999999999 0 0  0.95 0 0  0.96 0 0  0.97 0 0  0.98 0 0  0.99 0 0  1 0 0  0 0.01 0  0.01 0.01 0  0.02 0.01 0  0.03 0.01 0  0.04 0.01 0  0.05 0.01 0  0.06 0.01 0  0.07000000000000001 0.01 0  0.08 0.01 0  0.09 0.01 0  0.1 0.01 0  0.11 0.01 0  0.12 0.01 0  0.13 0.01 0  0.14 0.01 0  0.15 0.01 0  0.16 0.01 0  0.17 0.01 0  0.18 0.01 0  0.19 0.01 0  0.2 0.01 0  0.21 0.01 0  0.22 0.01 0  0.23 0.01 0  0.24 0.01 0  0.25 0.01 0  0.26 0.01 0  0.27 0.01 0  0.28 0.01 0  0.29 0.01 0  0.3 0.01 0  0.31 0.01 0  0.32 0.01 0  0.33 0.01 0  0.34 0.01 0  0.35 0.01 0  0.36 0.01 0  0.37 0.01 0  0.38 0.01 0  0.39 0.01 0  0.4 0.01 0  0.41 0.01 0  0.42 0.01 0  0.43 0.01 0  0.44 0.01 0  0.45 0.01 0  0.46 0.01 0  0.47 0.01 0  0.48 0.01 0  0.49 0.01 0  0.5 0.01 0  0.51 0.01 0  0.52 0.01 0  0.53 0.01 0  0.54 0.01 0  0.55 0.01 0  0.5600000000000001 0.01 0  0.57 0.01 0  0.58 0.01 0  0.59 0.01 0  0.6 0.01 0  0.61 0.01 0  0.62 0.01 0  0.63 0.01 0  0.64 0.01 0  0.65 0.01 0  0.66 0.01 0  0.67 0.01 0  0.68 0.01 0  0.6899999999999999 0.01 0  0.7 0.01 0  0.71 0.01 0  0.72 0.01 0  0.73 0.01 0  0.74 0.01 0  0.75 0.01 0  0.76 0.01 0  0.77 0.01 0  0.78 0.01 0  0.79 0.01 0  0.8 0.01 0  0.8100000000000001 0.01 0  0.82 0.01 0  0.83 0.01 0  0.84 0.01 0  0.85 0.01 0  0.86 0.01 0  0.87 0.01 0  0.88 0.01 0  0.89 0.01 0  0.9 0.01 0  0.91 0.01 0  0.92 0.01 0  0.93 0.01 0  0.9399999999999999 0.01 0  0.95 0.01 0  0.96 0.01 0  0.97 0.01 0  0.98 0.01 0  0.99 0.01 0  1 0.01 0  0 0.02 0  0.01 0.02 0  0.02 0.02 0  0.03 0.02 0  0.04 0.02 0  0.05 0.02 0  0.06 0.02 0  0.07000000000000001 0.02 0  0.08 0.02 0  0.09 0.02 0  0.1 0.02 0  0.11 0.02 0  0.12 0.02 0  0.13 0.02 0  0.14 0.02 0  0.15 0.02 0  0.16 0.02 0  0.17 0.02 0  0.18 0.02 0  0.19 0.02 0  0.2 0.02 0  0.21 0.02 0  0.22 0.02 0  0.23 0.02 0  0.24 0.02 0  0.25 0.02 0  0.26 0.02 0  0.27 0.02 0  0.28 0.02 0  0.29 0.02 0  0.3 0.02 0  0.31 0.02 0  0.32 0.02 0  0.33 0.02 0  0.34 0.02 0  0.35 0.02 0  0.36 0.02 0  0.37 0.02 0  0.38 0.02 0  0.39 0.02 0  0.4 0.02 0  0.41 0.02 0  0.42 0.02 0  0.43 0.02 0  0.44 0.02 0  0.45 0.02 0  0.46 0.02 0  0.47 0.02 0  0.48 0.02 0  0.49 0.02 0  0.5 0.02 0  0.51 0.02 0  0.52 0.02 0  0.53 0.02 0  0.54 0.02 0  0.55 0.02 0  0.5600000000000001 0.02 0  0.57 0.02 0  0.58 0.02 0  0.59 0.02 0  0.6 0.02 0  0.61 0.02 0  0.62 0.02 0  0.63 0.02 0  0.64 0.02 0  0.65 0.02 0  0.66 0.02 0  0.67 0.02 0  0.68 0.02 0  0.6899999999999999 0.02 0  0.7 0.02 0  0.71 0.02 0  0.72 0.02 0  0.73 0.02 0  0.74 0.02 0  0.75 0.02 0  0.76 0.02 0  0.77 0.02 0  0.78 0.02 0  0.79 0.02 0  0.8 0.02 0  0.8100000000000001 0.02 0  0.82 0.02 0  0.83 0.02 0  0.84 0.02 0  0.85 0.02 0  0.86 0.02 0  0.87 0.02 0  0.88 0.02 0  0.89 0.02 0  0.9 0.02 0  0.91 0.02 0  0.92 0.02 0  0.93 0.02 0  0.9399999999999999 0.02 0  0.95 0.02 0  0.96 0.02 0  0.97 0.02 0  0.98 0.02 0  0.99 0.02 0  1 0.02 0  0 0.03 0  0.01 0.03 0  0.02 0.03 0  0.03 0.03 0  0.04 0.03 0  0.05 0.03 0  0.06 0.03 0  0.07000000000000001 0.03 0  0.08 0.03 0  0.09 0.03 0  0.1 0.03 0  0.11 0.03 0  0.12 0.03 0  0.13 0.03 0  0.14 0.03 0  0.15 0.03 0  0.16 0.03 0  0.17 0.03 0  0.18 0.03 0  0.19 0.03 0  0.2 0.03 0  0.21 0.03 0  0.22 0.03 0  0.23 0.03 0  0.24 0.03 0  0.25 0.03 0  0.26 0.03 0  0.27 0.03 0  0.28 0.03 0  0.29 0.03 0  0.3 0.03 0  0.31 0.03 0  0.32 0.03 0  0.33 0.03 0  0.34 0.03 0  0.35 0.03 0  0.36 0.03 0  0.37 0.03 0  0.38 0.03 0  0.39 0.03 0  0.4 0.03 0  0.41 0.03 0  0.42 0.03 0  0.43 0.03 0  0.44 0.03 0  0.45 0.03 0  0.46 0.03 0  0.47 0.03 0  0.48 0.03 0  0.49 0.03 0  0.5 0.03 0  0.51 0.03 0  0.52 0.03 0  0.53 0.03 0  0.54 0.03 0  0.55 0.03 0  0.5600000000000001 0.03 0  0.57 0.03 0  0.58 0.03 0  0.59 0.03 0  0.6 0.03 0  0.61 0.03 0  0.62 0.03 0  0.63 0.03 0  0.64 0.03 0  0.65 0.03 0  0.66 0.03 0  0.67 0.03 0  0.68 0.03 0  0.6899999999999999 0.03 0  0.7 0.03 0  0.71 0.03 0  0.72 0.03 0  0.73 0.03 0  0.74 0.03 0  0.75 0.03 0  0.76 0.03 0  0.77 0.03 0  0.78 0.03 0  0.79 0.03 0  0.8 0.03 0  0.8100000000000001 0.03 0  0.82 0.03 0  0.83 0.03 0  0.84 0.03 0  0.85 0.03 0  0.86 0.03 0  0.87 0.03 0  0.88 0.03 0  0.89 0.03 0  0.9 0.03 0  0.91 0.03 0  0.92 0.03 0  0.93 0.03 0  0.9399999999999999 0.03 0  0.95 0.03 0  0.96 0.03 0  0.97 0.03 0  0.98 0.03 0  0.99 0.03 0  1 0.03 0  0 0.04 0  0.01 0.04 0  0.02 0.04 0  0.03 0.04 0  0.04 0.04 0  0.05 0.04 0  0.06 0.04 0  0.07000000000000001 0.04 0  0.08 0.04 0  0.09 0.04 0  0.1 0.04 0  0.11 0.04 0  0.12 0.04 0  0.13 0.04 0  0.14 0.04 0  0.15 0.04 0  0.16 0.04 0  0.17 0.04 0  0.18 0.04 0  0.19 0.04 0  0.2 0.04 0  0.21 0.04 0  0.22 0.04 0  0.23 0.04 0  0.24 0.04 0  0.25 0.04 0  0.26 0.04 0  0.27 0.04 0  0.28 0.04 0  0.29 0.04 0  0.3 0.04 0  0.31 0.04 0  0.32 0.04 0  0.33 0.04 0  0.34 0.04 0  0.35 0.04 0  0.36 0.04 0  0.37 0.04 0  0.38 0.04 0  0.39 0.04 0  0.4 0.04 0  0.41 0.04 0  0.42 0.04 0  0.43 0.04 0  0.44 0.04 0  0.45 0.04 0  0.46 0.04 0  0.47 0.04 0  0.48 0.04 0  0.49 0.04 0  0.5 0.04 0  0.51 0.04 0  0.52 0.04 0  0.53 0.04 0  0.54 0.04 0  0.55 0.04 0  0.5600000000000001 0.04 0  0.57 0.04 0  0.58 0.04 0  0.59 0.04 0  0.6 0.04 0  0.61 0.04 0  0.62 0.04 0  0.63 0.04 0  0.64 0.04 0  0.65 0.04 0  0.66 0.04 0  0.67 0.04 0  0.68 0.04 0  0.6899999999999999 0.04 0  0.7 0.04 0  0.71 0.04 0  0.72 0.04 0  0.73 0.04 0  0.74 0.04 0  0.75 0.04 0  0.76 0.04 0  0.77 0.04 0  0.78 0.04 0  0.79 0.04 0  0.8 0.04 0  0.8100000000000001 0.04 0  0.82 0.04 0  0.83 0.04 0  0.84 0.04 0  0.85 0.04 0  0.86 0.04 0  0.87 0.04 0  0.88 0.04 0  0.89 0.04 0  0.9 0.04 0  0.91 0.04 0  0.92 0.04 0  0.93 0.04 0  0.9399999999999999 0.04 0  0.95 0.04 0  0.96 0.04 0  0.97 0.04 0  0.98 0.04 0  0.99 0.04 0  1 0.04 0  0 0.05 0  0.01 0.05 0  0.02 0.05 0  0.03 0.05 0  0.04 0.05 0  0.05 0.05 0  0.06 0.05 0  0.07000000000000001 0.05 0  0.08 0.05 0  0.09 0.05 0  0.1 0.05 0  0.11 0.05 0  0.12 0.05 0  0.13 0.05 0  0.14 0.05 0  0.15 0.05 0  0.16 0.05 0  0.17 0.05 0  0.18 0.05 0  0.19 0.05 0  0.2 0.05 0  0.21 0.05 0  0.22 0.05 0  0.23 0.05 0  0.24 0.05 0  0.25 0.05 0  0.26 0.05 0  0.27 0.05 0  0.28 0.05 0  0.29 0.05 0  0.3 0.05 0  0.31 0.05 0  0.32 0.05 0  0.33 0.05 0  0.34 0.05 0  0.35 0.05 0  0.36 0.05 0  0.37 0.05 0  0.38 0.05 0  0.39 0.05 0  0.4 0.05 0  0.41 0.05 0  0.42 0.05 0  0.43 0.05 0  0.44 0.05 0  0.45 0.05 0  0.46 0.05 0  0.47 0.05 0  0.48 0.05 0  0.49 0.05 0  0.5 0.05 0  0.51 0.05 0  0.52 0.05 0  0.53 0.05 0  0.54 0.05 0  0.55 0.05 0  0.5600000000000001 0.05 0  0.57 0.05 0  0.58 0.05 0  0.59 0.05 0  0.6 0.05 0  0.61 0.05 0  0.62 0.05 0  0.63 0.05 0  0.64 0.05 0  0.65 0.05 0  0.66 0.05 0  0.67 0.05 0  0.68 0.05 0  0.6899999999999999 0.05 0  0.7 0.05 0  0.71 0.05 0  0.72 0.05 0  0.73 0.05 0  0.74 0.05 0  0.75 0.05 0  0.76 0.05 0  0.77 0.05 0  0.78 0.05 0  0.79 0.05 0  0.8 0.05 0  0.8100000000000001 0.05 0  0.82 0.05 0  0.83 0.05 0  0.84 0.05 0  0.85 0.05 0  0.86 0.05 0  0.87 0.05 0  0.88 0.05 0  0.89 0.05 0  0.9 0.05 0  0.91 0.05 0  0.92 0.05 0  0.93 0.05 0  0.9399999999999999 0.05 0  0.95 0.05 0  0.96 0.05 0  0.97 0.05 0  0.98 0.05 0  0.99 0.05 0  1 0.05 0  0 0.06 0  0.01 0.06 0  0.02 0.06 0  0.03 0.06 0  0.04 0.06 0  0.05 0.06 0  0.06 0.06 0  0.07000000000000001 0.06 0  0.08 0.06 0  0.09 0.06 0  0.1 0.06 0  0.11 0.06 0  0.12 0.06 0  0.13 0.06 0  0.14 0.06 0  0.15 0.06 0  0.16 0.06 0  0.17 0.06 0  0.18 0.06 0  0.19 0.06 0  0.2 0.06 0  0.21 0.06 0  0.22 0.06 0  0.23 0.06 0  0.24 0.06 0  0.25 0.06 0  0.26 0.06 0  0.27 0.06 0  0.28 0.06 0  0.29 0.06 0  0.3 0.06 0  0.31 0.06 0  0.32 0.06 0  0.33 0.06 0  0.34 0.06 0  0.35 0.06 0  0.36 0.06 0  0.37 0.06 0  0.38 0.06 0  0.39 0.06 0  0.4 0.06 0  0.41 0.06 0  0.42 0.06 0  0.43 0.06 0  0.44 0.06 0  0.45 0.06 0  0.46 0.06 0  0.47 0.06 0  0.48 0.06 0  0.49 0.06 0  0.5 0.06 0  0.51 0.06 0  0.52 0.06 0  0.53 0.06 0  0.54 0.06 0  0.55 0.06 0  0.5600000000000001 0.06 0  0.57 0.06 0  0.58 0.06 0  0.59 0.06 0  0.6 0.06 0  0.61 0.06 0  0.62 0.06 0  0.63 0.06 0  0.64 0.06 0  0.65 0.06 0  0.66 0.06 0  0.67 0.06 0  0.68 0.06 0  0.6899999999999999 0.06 0  0.7 0.06 0  0.71 0.06 0  0.72 0.06 0  0.73 0.06 0  0.74 0.06 0  0.75 0.06 0  0.76 0.06 0  0.77 0.06 0  0.78 0.06 0  0.79 0.06 0  0.8 0.06 0  0.8100000000000001 0.06 0  0.82 0.06 0  0.83 0.06 0  0.84 0.06 0  0.85 0.06 0  0.86 0.06 0  0.87 0.06 0  0.88 0.06 0  0.89 0.06 0  0.9 0.06 0  0.91 0.06 0  0.92 0.06 0  0.93 0.06 0  0.9399999999999999 0.06 0  0.95 0.06 0  0.96 0.06 0  0.97 0.06 0  0.98 0.06 0  0.99 0.06 0  1 0.06 0  0 0.07000000000000001 0  0.01 0.07000000000000001 0  0.02 0.07000000000000001 0  0.03 0.07000000000000001 0  0.04 0.07000000000000001 0  0.05 0.07000000000000001 0  0.06 0.07000000000000001 0  0.07000000000000001 0.07000000000000001 0  0.08 0.07000000000000001 0  0.09 0.07000000000000001 0  0.1 0.07000000000000001 0  0.11 0.07000000000000001 0  0.12 0.07000000000000001 0  0.13 0.07000000000000001 0  0.14 0.07000000000000001 0  0.15 0.07000000000000001 0  0.16 0.07000000000000001 0  0.17 0.0700
[...]
<PointData  Scalars="u"> 
<DataArray  type="Float64"  Name="u"  format="ascii">0.0000000000000000e+00  0.0000000000000000e+00  0.0000000000000000e+00  0.0000000000000000e+00  0.0000000000000000e+00  0.0000000000000000e+00  0.0000000000000000e+00  0.0000000000000000e+00  0.0000000000000000e+00  0.0000000000000000e+00  0.0000000000000000e+00  0.0000000000000000e+00  0.0000000000000000e+00  0.0000000000000000e+00  0.0000000000000000e+00  0.0000000000000000e+00  0.0000000000000000e+00  0.0000000000000000e+00  0.0000000000000000e+00  0.0000000000000000e+00  0.0000000000000000e+00  0.0000000000000000e+00  0.0000000000000000e+00  0.0000000000000000e+00  0.0000000000000000e+00  0.0000000000000000e+00  0.0000000000000000e+00  0.0000000000000000e+00  0.0000000000000000e+00  0.0000000000000000e+00  0.0000000000000000e+00  0.0000000000000000e+00  0.0000000000000000e+00  0.0000000000000000e+00  0.0000000000000000e+00  0.0000000000000000e+00  0.0000000000000000e+00  0.0000000000000000e+00  0.0000000000000000e+00  0.0000000000000000e+00  0.0000000000000000e+00  0.0000000000000000e+00  0.0000000000000000e+00  0.0000000000000000e+00  0.0000000000000000e+00  0.0000000000000000e+00  0.0000000000000000e+00  0.0000000000000000e+00  0.0000000000000000e+00  0.0000000000000000e+00  0.0000000000000000e+00  0.0000000000000000e+00  0.0000000000000000e+00  0.0000000000000000e+00  0.0000000000000000e+00  0.0000000000000000e+00  0.0000000000000000e+00  0.0000000000000000e+00  0.0000000000000000e+00  0.0000000000000000e+00  0.0000000000000000e+00  0.0000000000000000e+00  0.0000000000000000e+00  0.0000000000000000e+00  0.0000000000000000e+00  0.0000000000000000e+00  0.0000000000000000e+00  0.0000000000000000e+00  0.0000000000000000e+00  0.0000000000000000e+00  0.0000000000000000e+00  0.0000000000000000e+00  0.0000000000000000e+00  0.0000000000000000e+00  0.0000000000000000e+00  0.0000000000000000e+00  0.0000000000000000e+00  0.0000000000000000e+00  0.0000000000000000e+00  0.0000000000000000e+00  0.0000000000000000e+00  0.0000000000000000e+00  0.0000000000000000e+00  0.0000000000000000e+00  0.0000000000000000e+00  0.0000000000000000e+00  0.0000000000000000e+00  0.0000000000000000e+00  0.0000000000000000e+00  0.0000000000000000e+00  0.0000000000000000e+00  0.0000000000000000e+00  0.0000000000000000e+00  0.0000000000000000e+00  0.0000000000000000e+00  0.0000000000000000e+00  0.0000000000000000e+00  0.0000000000000000e+00  0.0000000000000000e+00  0.0000000000000000e+00  0.0000000000000000e+00  0.0000000000000000e+00  7.2490920642655648e-09  1.4266079062093708e-08  2.1147924739226042e-08  2.7980961001956274e-08  3.4843543127165931e-08  4.1807023344881220e-08  4.8936564410183173e-08  5.6291789271970534e-08  6.3927279174178568e-08  7.1892933563663530e-08  8.0234204236814386e-08  8.8992215126785830e-08  9.8203778360853505e-08  1.0790131676437188e-07  1.1811270285332649e-07  1.2886102452318667e-07  1.4016428808153846e-07  1.5203506995340073e-07  1.6448012927187647e-07  1.7749999460560926e-07  1.9108853921224390e-07  2.0523256037790612e-07  2.1991137953110222e-07  2.3509648082055745e-07  2.5075120662765779e-07  2.6683052894693580e-07  2.8328091561180106e-07  3.0004030986884589e-07  3.1703824072160649e-07  3.3419607969651867e-07  3.5142745717392964e-07  3.6863884814758453e-07  3.8573033323462838e-07  4.0259653600395278e-07  4.1912773231924015e-07  4.3521112154841628e-07  4.5073224336574078e-07  4.6557651770268131e-07  4.7963087946118935e-07  4.9278547418396200e-07  5.0493537628498850e-07  5.1598228797346514e-07  5.2583617491769396e-07  5.3441679420341989e-07  5.4165507138285159e-07  5.4749428643901111e-07  5.5189103326011444e-07  5.5481592358366703e-07  5.5625401408504563e-07  5.5620494401875850e-07  5.5468278017256027e-07  5.5171557542179817e-07  5.4734465641614319e-07  5.4162366445109005e-07  5.3461738097574106e-07  5.2640037514060656e-07  5.1705551505961024e-07  5.0667238691745013e-07  4.9534566667246592e-07  4.8317348796483040e-07  4.7025584711011428e-07  4.5669308198297676e-07  4.4258445647090569e-07  4.2802687632855937e-07  4.1311375602019299e-07  3.9793404981646304e-07  3.8257145429590127e-07  3.6710378372829667e-07  3.5160251477170103e-07  3.3613249262466432e-07  3.2075178731304801e-07  3.0551168617772839e-07  2.9045680684313361e-07  2.7562531392900078e-07  2.6104922243508245e-07  2.4675477098002384e-07  2.3276284880207073e-07  2.1908946152021396e-07  2.0574622200408180e-07  1.9274085421256267e-07  1.8007769944994067e-07  1.6775821608293543e-07  1.5578146530524730e-07  1.4414457698449736e-07  1.3284319094908112e-07  1.2187187025000450e-07  1.1122448395550130e-07  1.0089455790233252e-07  9.0875592541578918e-08  8.1161347587422679e-08  7.1746093616969064e-08  6.2624831091180717e-08  5.3793477484878009e-08  4.5249023337253303e-08  3.6989658060256639e-08  2.9014866219338579e-08  2.1325494472394158e-08  1.3923787122557208e-08  6.8133791787847931e-09  0.0000000000000000e+00  0.0000000000000000e+00  1.6028441704586945e-08  3.1545272512023922e-08  4.6763927052268055e-08  6.1875802451989871e-08  7.7054554928183476e-08  9.2458339989462879e-08  1.0823163166873880e-07  1.2450666711947024e-07  1.4140455263050600e-07  1.5903606226390114e-07  1.7750215694669096e-07  1.9689424927751107e-07  2.1729423751431438e-07  2.3877433117470462e-07  2.6139669037028681e-07  2.8521290136264555e-07  3.1026331181178957e-07  3.3657625071679847e-07  3.6416716003673389e-07  3.9303766732380808e-07  4.2317463127651117e-07  4.5454919478219728e-07  4.8711588259861298e-07  5.2081178313272723e-07  5.5555585560516553e-07  5.9124840501800081e-07  6.2777076754494817e-07  6.6498524801161170e-07  7.0273534882086266e-07  7.4084632582594191e-07  7.7912610112893737e-07  8.1736655551502569e-07  8.5534521423264977e-07  8.9282732919952791e-07  9.2956834866222256e-07  9.6531675218190868e-07  9.9981721499065090e-07  1.0328140517923870e-06  1.0640548765865416e-06  1.0932944027423884e-06  1.1202982970435525e-06  1.1448469934274936e-06  1.1667393672699347e-06  1.1857961697981995e-06  1.2018631248887916e-06  1.2148135972435739e-06  1.2245507516523878e-06  1.2310091374107182e-06  1.2341556494154014e-06  1.2339898372547545e-06  1.2305435548290840e-06  1.2238799646689333e-06  1.2140919321129632e-06  1.2012998638516150e-06  1.1856490621274359e-06  1.1673066793622212e-06  1.1464583676184671e-06  1.1233047227996640e-06  1.0980576247992990e-06  1.0709365721077183e-06  1.0421651030746474e-06  1.0119673866670036e-06  9.8056505383900895e-07  9.4817432729095034e-07  9.1500349319174877e-07  8.8125074409874930e-07  8.4710240846942117e-07  8.1273156936110711e-07  7.7829706357059725e-07  7.4394284285848247e-07  7.0979767119030182e-07  6.7597512614756537e-07  6.4257386875758348e-07  6.0967814382311197e-07  5.7735847220494988e-07  5.4567249718979424e-07  5.1466594881140288e-07  4.8437369253368607e-07  4.5482083181002072e-07  4.2602383748559975e-07  3.9799168061865310e-07  3.7072694890292180e-07  3.4422693035099323e-07  3.1848465115045922e-07  2.9348985756552613e-07  2.6922993438440643e-07  2.4569075468776519e-07  2.2285745763364437e-07  2.0071515253119864e-07  1.7924954873093617e-07  1.5844751182138433e-07  1.3829754732335415e-07  1.1879021354615256e-07  9.9918465545204193e-08  8.1677932219068929e-08  6.4067128510934537e-08  4.7087604445331110e-08  3.0744032763121732e-08  1.5044244144595509e-08  0.0000000000000000e+00  0.0000000000000000e+00  2.6633980682955686e-08  5.2419671278685784e-08  7.7712063734608453e-08  1.0283026502274310e-07  1.2806387892514766e-07  1.5367674971498980e-07  1.7991000832364740e-07  2.0698448950612585e-07  2.3510258136898492e-07  2.6444956003054635e-07  2.9519445593523973e-07  3.2749049378526404e-07  3.6147514493802508e-07  3.9726982933171824e-07  4.3497930345654881e-07  4.7469077149750392e-07  5.1647275843745463e-07  5.6037378650982400e-07  6.0642089978735654e-07  6.5461808571720885e-07  7.0494464685803662e-07  7.5735358069972418e-07  8.1177002996967169e-07  8.6808986993185026e-07  9.2617850251330500e-07  9.8586992926841715e-07  1.0469661758212487e-06  1.1092371391200695e-06  1.1724209252282031e-06  1.2362247391416332e-06  1.3003263790217484e-06  1.3643763751211577e-06  1.4280007985556645e-06  1.4908047470906179e-06  1.5523764946009604e-06  1.6122922683616025e-06  1.6701215945538497e-06  1.7254331282422821e-06  1.7778008606461454e-06  1.8268105749689992e-06  1.8720664035759221e-06  1.9131973251068101e-06  1.9498634312644244e-06  1.9817617903969344e-06  2.0086317392100796e-06  2.0302594452505015e-06  2.0464816010632571e-06  2.0571881355924282e-06  2.0623238585102061e-06  2.0618889874129854e-06  2.0559385446142989e-06  2.0445806478112442e-06  2.0279737553554681e-06  2.0063229604353246e-06  1.9798754575689805e-06  1.9489153281062554e-06  1.9137578079998256e-06  1.8747432104176756e-06  1.8322306777514643e-06  1.7865919325726438e-06  1.7382051858130350e-06  1.6874493439074007e-06  1.6346986360451614e-06  1.5803177593572995e-06  1.5246576151446458e-06  1.4680516843948968e-06  1.4108130669548305e-06  1.3532321867462533e-06  1.2955751460424571e-06  1.2380826955282189e-06  1.1809697738988535e-06  1.1244255611580390e-06  1.0686139834247214e-06  1.0136746036958035e-06  9.5972383227699073e-07  9.0685639207325919e-07  8.5514697718120906e-07  8.0465204780878741e-07  7.5541171004876223e-07  7.0745163507660026e-07  6.6078497860751090e-07  6.1541426766359668e-07  5.7133322765921385e-07  5.2852852835382635e-07  4.8698143223950920e-07  4.4666933336079123e-07  4.0756717838011813e-07  3.6964876490469063e-07  3.3288791470419716e-07  2.9725952151489551e-07  2.6274047469538356e-07  2.2931046113138644e-07  1.9695264854169477e-07  1.6565425377600976e-07  1.3540699988047009e-07  1.0620746571804825e-07  7.8057331935906521e-08  5.0963527530123991e-08  2.4938284829943187e-08  0.0000000000000000e+00  0.0000000000000000e+00  3.9415419724134578e-08  7.7578356434558517e-08  1.1501584060718550e-07  1.5220226863348527e-07  1.8956834554191101e-07  2.2750666814908242e-07  2.6637627096364837e-07  3.0650623427434180e-07  3.4819844449644477e-07  3.9172958494939344e-07  4.3735242590720304e-07  4.8529647581660293e-07  5.3576805080791395e-07  5.8894981687392218e-07  6.4499985823110731e-07  7.0405032627674533e-07  7.6620572607268123e-07  8.3154090125484472e-07  9.0009878348446600e-07  9.7188797877527250e-07  1.0468802699510306e-06  1.1250081217512019e-06  1.2061622822892403e-06  1.2901895811965957e-06  1.3768910303184575e-06  1.4660203366816888e-06  1.5572829390203169e-06  1.6503356778043728e-06  1.7447872038860385e-06  1.8401992220301170e-06  1.9360886523197434e-06  2.0319307744636917e-06  2.1271633973223187e-06  2.2211920687057966e-06  2.3133963091547375e-06  2.4031368187715143e-06  2.4897635693262675e-06  2.5726246562082306e-06  2.6510757479813793e-06  2.7244899371716395e-06  2.7922677663926520e-06  2.8538471809147720e-06  2.9087131440463420e-06  2.9564066466774577e-06  2.9965328480531659e-06  3.0287681017670192e-06  3.0528656489395221e-06  3.0686597987429656e-06  3.0760684633720166e-06  3.0750939681658801e-06  3.0658221153208529e-06  3.0484195386422308e-06  3.0231294441090728e-06  2.9902658837954097e-06  2.9502067563331432e-06  2.9033857635119045e-06  2.8502835782930264e-06  2.7914184936603665e-06  2.7273368242455391e-06  2.6586033241333993e-06  2.5857918658545473e-06  2.5094765989538632e-06  2.4302237736554635e-06  2.3485843781521167e-06  2.2650876990623841e-06  2.1802358756199101e-06  2.0944994809417899e-06  2.0083141297020520e-06  1.9220780817839965e-06  1.8361507866982381e-06  1.7508522940720908e-06  1.6664634413601447e-06  1.5832267208502308e-06  1.5013477235917386e-06  1.4209970574611214e-06  1.3423126395250548e-06  1.2654022684578604e-06  1.1903463903219339e-06  1.1172009798803613e-06  1.0460004692020012e-06  9.7676066514781132e-07  9.0948160699025967e-07  8.4415032460291848e-07  7.8074346613731930e-07  7.1922977172820866e-07  6.5957237645197896e-07  6.0173093147668152e-07  5.4566353709963648e-07  4.9132848521735707e-07  4.3868581178263188e-07  3.8769866206099778e-07  3.3833447309763761e-07  2.9056597884391635e-07  2.4437204396905816e-07  1.9973833259811762e-07  1.5665781818376213e-07  1.1513114056691190e-07  7.5166816095887738e-08  3.6781308864317822e-08  0.0000000000000000e+00  0.0000000000000000e+00  5.4786525755145215e-08  1.0783678484592540e-07  1.5988684322080767e-07  2.1159991272588171e-07  2.6357842484177079e-07  3.1637187239141549e-07  3.7048319549661999e-07  4.2637385114244216e-07  4.8446769142532022e-07  5.4515375905140014e-07  6.0878809552157558e-07  6.7569464753685245e-07  7.4616535029678545e-07  8.2045946236840601e-07  8.9880222550870469e-07  9.8138292406368749e-07  1.0683524221561690e-06  1.1598202625933569e-06  1.2558514190045299e-06  1.3564628018257480e-06  1.4616196289728660e-06  1.5712317828899421e-06  1.6851502865380826e-06  1.8031640411162786e-06  1.9249969771078656e-06  2.0503057767751655e-06  2.1786783295790411e-06  2.3096330812577736e-06  2.4426194315639596e-06  2.5770193241117527e-06  2.7121501537560662e-06  2.8472690919518254e-06  2.9815788984550725e-06  3.1142352487180321e-06  3.2443555610068773e-06  3.3710292567083642e-06  3.4933293330455891e-06  3.6103250715184015e-06  3.7210956502570304e-06  3.8247443768823610e-06  3.9204132133327325e-06  4.0072972283756890e-06  4.0846585898973650e-06  4.1518396998520566e-06  4.2082750816214331e-06  4.2535016533140374e-06  4.2871670611037582e-06  4.3090358028999122e-06  4.3189929422717033e-06  4.3170452924994757e-06  4.3033200370267041e-06  4.2780608410789523e-06  4.2416215952445840e-06  4.1944580109601730e-06  4.1371173561467142e-06  4.0702266734723523e-06  3.9944798615911444e-06  3.9106240200211146e-06  3.8194454609865558e-06  3.7217557775215606e-06  3.6183783282932243e-06  3.5101354585465172e-06  3.3978367263649127e-06  3.2822683473684724e-06  3.1641840122975692e-06  3.0442971736857342e-06  2.9232748426372915e-06  2.8017328867094560e-06  2.6802327765954655e-06  2.5592796936759672e-06  2.4393218829644500e-06  2.3207511164527980e-06  2.2039041199075615e-06  2.0890648110226950e-06  1.9764671975508128e-06  1.8662987895566177e-06  1.7587043891802627e-06  1.6537901332197240e-06  1.5516276774783714e-06  1.4522584263327209e-06  1.3556977256458043e-06  1.2619389514142250e-06  1.1709574399595223e-06  1.0827142177514381e-06  9.9715949988912741e-07  9.1423593576869477e-07  8.3388158851177041e-07  7.5603264136088789e-07  6.8062582954846684e-07  6.0760060023317607e-07  5.3690100610531631e-07  4.6847734033588282e-07  4.0228752182889881e-07  3.3829824037786386e-07  2.7648587146407280e-07  2.1683717019796219e-07  1.5934975340017578e-07  1.0403237808174467e-07  5.0905026704669387e-08  0.0000000000000000e+00  0.0000000000000000e+00  7.3235976534232601e-08  1.4415822600232483e-07  2.1375670410008635e-07  2.8292414007193843e-07  3.5247193769846439e-07  4.2314079300105951e-07  4.9560934202782903e-07  5.7050102735006199e-07  6.4838935105195247e-07  7.2980165936850599e-07  8.1522158609887310e-07  9.0509026824193122e-07  9.9980643774678818e-07  1.0997254876379906e-06  1.2051576088686271e-06  1.3163650958741449e-06  1.4335589237207053e-06  1.5568947076937302e-06  1.6864681668172885e-06  1.8223102257072427e-06  1.9643819038076013e-06  2.1125691567828823e-06  2.2666778508467032e-06  2.4264290661636645e-06  2.5914549390960283e-06  2.7612952637831895e-06  2.9353950800505435e-06  3.1131034756035037e-06  3.2936738245393756e-06  3.4762656701578593e-06  3.6599484368016432e-06  3.8437071222259650e-06  4.0264500783891658e-06  4.2070189346880753e-06  4.3842006542508839e-06  4.5567416423445264e-06  4.7233637483766795e-06  4.8827819222126437e-06  5.0337232050770639e-06  5.1749466591825561e-06  5.3052637727603427e-06  5.4235588227641440e-06  5.5288086403374506e-06  5.6201012077556453e-06  5.6966525226457766e-06  5.7578211973025838e-06  5.8031203178719826e-06  5.8322261685039379e-06  5.8449835261505268e-06  5.8414073479259961e-06  5.8216807991036294e-06  5.7861496993599064e-06  5.7353135909316731e-06  5.6698137482554497e-06  5.5904185484256068e-06  5.4980067005774629e-06  5.3935488866672703e-06  5.2780883943319882e-06  5.1527213245221472e-06  5.0185769339719167e-06  4.8767986282466172e-06  4.7285260590953381e-06  4.5748787048236123e-06  4.4169412293650919e-06  4.2557508295617288e-06  4.0922866953441549e-06  3.9274616278710462e-06  3.7621157892606908e-06  3.5970124964660151e-06  3.4328359223606146e-06  3.2701905296569654e-06  3.1096020376066962e-06  2.9515197067142920e-06  2.7963197217002922e-06  2.6443094561911116e-06  2.4957324124814416e-06  2.3507736445967429e-06  2.2095654912456254e-06  2.0721934657115375e-06  1.9387021710960020e-06  1.8091011306064267e-06  1.6833704430079012e-06  1.5614661923599409e-06  1.4433255583493765e-06  1.3288715886820758e-06  1.2180176080142121e-06  1.1106712487988483e-06  1.0067380982867450e-06  9.0612496289895280e-07  8.0874275646821892e-07  7.1450902263238718e-07  6.2335010416978149e-07  5.3520297350618590e-07  4.5001673919859707e-07  3.6775384310098312e-07  2.8839096230897120e-07  2.1191962899799548e-07  1.3834658001249440e-07  6.7693850303114428e-08  0.0000000000000000e+00  0.0000000000000000e+00  9.5339824283712047e-08  1.8767838950981873e-07  2.7831385311330290e-07  3.6841781245930829e-07  4.5905588595309866e-07  5.5120174531820380e-07  6.4574854691345265e-07  7.4351801089588331e-07  8.4526736786537690e-07  9.5169436215044238e-07  1.0634404765557687e-06  1.1810925248282288e-06  1.3051827450268092e-06  1.4361875191606606e-06  1.5745248416644678e-06  1.7205506612848775e-06  1.8745542274991657e-06  2.0367525833636382e-06  2.2072843612923038e-06  2.3862030561762076e-06  2.5734699708038924e-06  2.7689470508935542e-06  2.9723898501635561e-06  3.1834408885090981e-06  3.4016236870692333e-06  3.6263377811156222e-06  3.8568550234653289e-06  4.0923174955987721e-06  4.3317373389054063e-06  4.5739988026137044e-06  4.8178627763224304e-06  5.0619740323268630e-06  5.3048713453367688e-06  5.5450005846131280e-06  5.7807307867590060e-06  6.0103731181186068e-06  6.2322025267684176e-06  6.4444817693092519e-06  6.6454873819909015e-06  6.8335370548736296e-06  7.0070177680830423e-06  7.1644139672821974e-06  7.3043349975509851e-06  7.4255409864523322e-06  7.5269663724249248e-06  7.6077403162642448e-06  7.6672033116981278e-06  7.7049194239275557e-06  7.7206837280867640e-06  7.7145246862556341e-06  7.6867013834785779e-06  7.6376957305022822e-06  7.5681999234023166e-06  7.4790996179394187e-06  7.3714534204092877e-06  7.2464694096678671e-06  7.1054794818927477e-06  6.9499123479689737e-06  6.7812660132492251e-06  6.6010805333464024e-06  6.4109117721567145e-06  6.2123067956237322e-06  6.0067814239483049e-06  5.7958003434864380e-06  5.5807600547040810e-06  5.3629748108269676e-06  5.1436655887393561e-06  4.9239520334814414e-06  4.7048472332507946e-06  4.4872551146828718e-06  4.2719701987265286e-06  4.0596794249908026e-06  3.8509657355873123e-06  3.6463131062508844e-06  3.4461127205943744e-06  3.2506700003260197e-06  3.0602122277579737e-06  2.8748965247581066e-06  2.6948179824927748e-06  2.5200177672250145e-06  2.3504910577409669e-06  2.1861946986619376e-06  2.0270544802392640e-06  1.8729719787616420e-06  1.7238309121886315e-06  1.5795029829967470e-06  1.4398531945615989e-06  1.3047446388785450e-06  1.1740427622915879e-06  1.0476191224441204e-06  9.2535465419366234e-07  8.0714246505661299e-07  6.9289018216910010e-07  5.8252187304782112e-07  4.7597956186642434e-07  3.7322436175343146e-07  2.7423724195753898e-07  1.7901944678656263e-07  8.7592585432141015e-08  0.0000000000000000e+00  0.0000000000000000e+00  1.2177575701514665e-07  2.3973361414293805e-07  3.5554560400327534e-07  4.7072194765926072e-07  5.8663736078227243e-07  7.0454928843934387e-07  8.2561276490680585e-07  9.5089222070554882e-07  1.0813705193045550e-06  1.2179554654669552e-06  1.3614839947599190e-06  1.5127242288470818e-06  1.6723755634810650e-06  1.8410669453318168e-06  2.0193534896782060e-06  2.2077115933144327e-06  2.4065327055067232e-06  2.6161159341379976e-06  2.8366596838461608e-06  3.0682525473893834e-06  3.3108636998568594e-06  3