<?xml version="1.0"?>
<VTKFile type="UnstructuredGrid"  version="0.1"  >
<UnstructuredGrid>
<Piece  NumberOfPoints="10201" NumberOfCells="20000">
<Points>
<DataArray  type="Float64"  NumberOfComponents="3"  format="ascii">0 0 0  0.01 0 0  0.02 0 0  0.03 0 0  0.04 0 0  0.05 0 0  0.06 0 0  0.07000000000000001 0 0  0.08 0 0  0.09 0 0  0.1 0 0  0.11 0 0  0.12 0 0  0.13 0 0  0.14 0 0  0.15 0 0  0.16 0 0  0.17 0 0  0.18 0 0  0.19 0 0  0.2 0 0  0.21 0 0  0.22 0 0  0.23 0 0  0.24 0 0  0.25 0 0  0.26 0 0  0.27 0 0  0.28 0 0  0.29 0 0  0.3 0 0  0.31 0 0  0.32 0 0  0.33 0 0  0.34 0 0  0.35 0 0  0.36 0 0  0.37 0 0  0.38 0 0  0.39 0 0  0.4 0 0  0.41 0 0  0.42 0 0  0.43 0 0  0.44 0 0  0.45 0 0  0.46 0 0  0.47 0 0  0.48 0 0  0.49 0 0  0.5 0 0  0.51 0 0  0.52 0 0  0.53 0 0  0.54 0 0  0.55 0 0  0.5600000000000001 0 0  0.57 0 0  0.58 0 0  0.59 0 0  0.6 0 0  0.61 0 0  0.62 0 0  0.63 0 0  0.64 0 0  0.65 0 0  0.66 0 0  0.67 0 0  0.68 0 0  0.6899999999999999 0 0  0.7 0 0  0.71 0 0  0.72 0 0  0.73 0 0  0.74 0 0  0.75 0 0  0.76 0 0  0.77 0 0  0.78 0 0  0.79 0 0  0.8 0 0  0.8100000000000001 0 0  0.82 0 0  0.83 0 0  0.84 0 0  0.85 0 0  0.86 0 0  0.87 0 0  0.88 0 0  0.89 0 0  0.9 0 0  0.91 0 0  0.92 0 0  0.93 0 0  0.9399999999999999 0 0  0.95 0 0  0.96 0 0  0.97 0 0  0.98 0 0  0.99 0 0  1 0 0  0 0.01 0  0.01 0.01 0  0.02 0.01 0  0.03 0.01 0  0.04 0.01 0  0.05 0.01 0  0.06 0.01 0  0.07000000000000001 0.01 0  0.08 0.01 0  0.09 0.01 0  0.1 0.01 0  0.11 0.01 0  0.12 0.01 0  0.13 0.01 0  0.14 0.01 0  0.15 0.01 0  0.16 0.01 0  0.17 0.01 0  0.18 0.01 0  0.19 0.01 0  0.2 0.01 0  0.21 0.01 0  0.22 0.01 0  0.23 0.01 0  0.24 0.01 0  0.25 0.01 0  0.26 0.01 0  0.27 0.01 0  0.28 0.01 0  0.29 0.01 0  0.3 0.01 0  0.31 0.01 0  0.32 0.01 0  0.33 0.01 0  0.34 0.01 0  0.35 0.01 0  0.36 0.01 0  0.37 0.01 0  0.38 0.01 0  0.39 0.01 0  0.4 0.01 0  0.41 0.01 0  0.42 0.01 0  0.43 0.01 0  0.44 0.01 0  0.45 0.01 0  0.46 0.01 0  0.47 0.01 0  0.48 0.01 0  0.49 0.01 0  0.5 0.01 0  0.51 0.01 0  0.52 0.01 0  0.53 0.01 0  0.54 0.01 0  0.55 0.01 0  0.5600000000000001 0.01 0  0.57 0.01 0  0.58 0.01 0  0.59 0.01 0  0.6 0.01 0  0.61 0.01 0  0.62 0.01 0  0.63 0.01 0  0.64 0.01 0  0.65 0.01 0  0.66 0.01 0  0.67 0.01 0  0.68 0.01 0  0.6899999999999999 0.01 0  0.7 0.01 0  0.71 0.01 0  0.72 0.01 0  0.73 0.01 0  0.74 0.01 0  0.75 0.01 0  0.76 0.01 0  0.77 0.01 0  0.78 0.01 0  0.79 0.01 0  0.8 0.01 0  0.8100000000000001 0.01 0  0.82 0.01 0  0.83 0.01 0  0.84 0.01 0  0.85 0.01 0  0.86 0.01 0  0.87 0.01 0  0.88 0.01 0  0.89 0.01 0  0.9 0.01 0  0.91 0.01 0  0.92 0.01 0  0.93 0.01 0  0.9399999999999999 0.01 0  0.95 0.01 0  0.96 0.01 0  0.97 0.01 0  0.98 0.01 0  0.99 0.01 0  1 0.01 0  0 0.02 0  0.01 0.02 0  0.02 0.02 0  0.03 0.02 0  0.04 0.02 0  0.05 0.02 0  0.06 0.02 0  0.07000000000000001 0.02 0  0.08 0.02 0  0.09 0.02 0  0.1 0.02 0  0.11 0.02 0  0.12 0.02 0  0.13 0.02 0  0.14 0.02 0  0.15 0.02 0  0.16 0.02 0  0.17 0.02 0  0.18 0.02 0  0.19 0.02 0  0.2 0.02 0  0.21 0.02 0  0.22 0.02 0  0.23 0.02 0  0.24 0.02 0  0.25 0.02 0  0.26 0.02 0  0.27 0.02 0  0.28 0.02 0  0.29 0.02 0  0.3 0.02 0  0.31 0.02 0  0.32 0.02 0  0.33 0.02 0  0.34 0.02 0  0.35 0.02 0  0.36 0.02 0  0.37 0.02 0  0.38 0.02 0  0.39 0.02 0  0.4 0.02 0  0.41 0.02 0  0.42 0.02 0  0.43 0.02 0  0.44 0.02 0  0.45 0.02 0  0.46 0.02 0  0.47 0.02 0  0.48 0.02 0  0.49 0.02 0  0.5 0.02 0  0.51 0.02 0  0.52 0.02 0  0.53 0.02 0  0.54 0.02 0  0.55 0.02 0  0.5600000000000001 0.02 0  0.57 0.02 0  0.58 0.02 0  0.59 0.02 0  0.6 0.02 0  0.61 0.02 0  0.62 0.02 0  0.63 0.02 0  0.64 0.02 0  0.65 0.02 0  0.66 0.02 0  0.67 0.02 0  0.68 0.02 0  0.6899999999999999 0.02 0  0.7 0.02 0  0.71 0.02 0  0.72 0.02 0  0.73 0.02 0  0.74 0.02 0  0.75 0.02 0  0.76 0.02 0  0.77 0.02 0  0.78 0.02 0  0.79 0.02 0  0.8 0.02 0  0.8100000000000001 0.02 0  0.82 0.02 0  0.83 0.02 0  0.84 0.02 0  0.85 0.02 0  0.86 0.02 0  0.87 0.02 0  0.88 0.02 0  0.89 0.02 0  0.9 0.02 0  0.91 0.02 0  0.92 0.02 0  0.93 0.02 0  0.9399999999999999 0.02 0  0.95 0.02 0  0.96 0.02 0  0.97 0.02 0  0.98 0.02 0  0.99 0.02 0  1 0.02 0  0 0.03 0  0.01 0.03 0  0.02 0.03 0  0.03 0.03 0  0.04 0.03 0  0.05 0.03 0  0.06 0.03 0  0.07000000000000001 0.03 0  0.08 0.03 0  0.09 0.03 0  0.1 0.03 0  0.11 0.03 0  0.12 0.03 0  0.13 0.03 0  0.14 0.03 0  0.15 0.03 0  0.16 0.03 0  0.17 0.03 0  0.18 0.03 0  0.19 0.03 0  0.2 0.03 0  0.21 0.03 0  0.22 0.03 0  0.23 0.03 0  0.24 0.03 0  0.25 0.03 0  0.26 0.03 0  0.27 0.03 0  0.28 0.03 0  0.29 0.03 0  0.3 0.03 0  0.31 0.03 0  0.32 0.03 0  0.33 0.03 0  0.34 0.03 0  0.35 0.03 0  0.36 0.03 0  0.37 0.03 0  0.38 0.03 0  0.39 0.03 0  0.4 0.03 0  0.41 0.03 0  0.42 0.03 0  0.43 0.03 0  0.44 0.03 0  0.45 0.03 0  0.46 0.03 0  0.47 0.03 0  0.48 0.03 0  0.49 0.03 0  0.5 0.03 0  0.51 0.03 0  0.52 0.03 0  0.53 0.03 0  0.54 0.03 0  0.55 0.03 0  0.5600000000000001 0.03 0  0.57 0.03 0  0.58 0.03 0  0.59 0.03 0  0.6 0.03 0  0.61 0.03 0  0.62 0.03 0  0.63 0.03 0  0.64 0.03 0  0.65 0.03 0  0.66 0.03 0  0.67 0.03 0  0.68 0.03 0  0.6899999999999999 0.03 0  0.7 0.03 0  0.71 0.03 0  0.72 0.03 0  0.73 0.03 0  0.74 0.03 0  0.75 0.03 0  0.76 0.03 0  0.77 0.03 0  0.78 0.03 0  0.79 0.03 0  0.8 0.03 0  0.8100000000000001 0.03 0  0.82 0.03 0  0.83 0.03 0  0.84 0.03 0  0.85 0.03 0  0.86 0.03 0  0.87 0.03 0  0.88 0.03 0  0.89 0.03 0  0.9 0.03 0  0.91 0.03 0  0.92 0.03 0  0.93 0.03 0  0.9399999999999999 0.03 0  0.95 0.03 0  0.96 0.03 0  0.97 0.03 0  0.98 0.03 0  0.99 0.03 0  1 0.03 0  0 0.04 0  0.01 0.04 0  0.02 0.04 0  0.03 0.04 0  0.04 0.04 0  0.05 0.04 0  0.06 0.04 0  0.07000000000000001 0.04 0  0.08 0.04 0  0.09 0.04 0  0.1 0.04 0  0.11 0.04 0  0.12 0.04 0  0.13 0.04 0  0.14 0.04 0  0.15 0.04 0  0.16 0.04 0  0.17 0.04 0  0.18 0.04 0  0.19 0.04 0  0.2 0.04 0  0.21 0.04 0  0.22 0.04 0  0.23 0.04 0  0.24 0.04 0  0.25 0.04 0  0.26 0.04 0  0.27 0.04 0  0.28 0.04 0  0.29 0.04 0  0.3 0.04 0  0.31 0.04 0  0.32 0.04 0  0.33 0.04 0  0.34 0.04 0  0.35 0.04 0  0.36 0.04 0  0.37 0.04 0  0.38 0.04 0  0.39 0.04 0  0.4 0.04 0  0.41 0.04 0  0.42 0.04 0  0.43 0.04 0  0.44 0.04 0  0.45 0.04 0  0.46 0.04 0  0.47 0.04 0  0.48 0.04 0  0.49 0.04 0  0.5 0.04 0  0.51 0.04 0  0.52 0.04 0  0.53 0.04 0  0.54 0.04 0  0.55 0.04 0  0.5600000000000001 0.04 0  0.57 0.04 0  0.58 0.04 0  0.59 0.04 0  0.6 0.04 0  0.61 0.04 0  0.62 0.04 0  0.63 0.04 0  0.64 0.04 0  0.65 0.04 0  0.66 0.04 0  0.67 0.04 0  0.68 0.04 0  0.6899999999999999 0.04 0  0.7 0.04 0  0.71 0.04 0  0.72 0.04 0  0.73 0.04 0  0.74 0.04 0  0.75 0.04 0  0.76 0.04 0  0.77 0.04 0  0.78 0.04 0  0.79 0.04 0  0.8 0.04 0  0.8100000000000001 0.04 0  0.82 0.04 0  0.83 0.04 0  0.84 0.04 0  0.85 0.04 0  0.86 0.04 0  0.87 0.04 0  0.88 0.04 0  0.89 0.04 0  0.9 0.04 0  0.91 0.04 0  0.92 0.04 0  0.93 0.04 0  0.9399999999999999 0.04 0  0.95 0.04 0  0.96 0.04 0  0.97 0.04 0  0.98 0.04 0  0.99 0.04 0  1 0.04 0  0 0.05 0  0.01 0.05 0  0.02 0.05 0  0.03 0.05 0  0.04 0.05 0  0.05 0.05 0  0.06 0.05 0  0.07000000000000001 0.05 0  0.08 0.05 0  0.09 0.05 0  0.1 0.05 0  0.11 0.05 0  0.12 0.05 0  0.13 0.05 0  0.14 0.05 0  0.15 0.05 0  0.16 0.05 0  0.17 0.05 0  0.18 0.05 0  0.19 0.05 0  0.2 0.05 0  0.21 0.05 0  0.22 0.05 0  0.23 0.05 0  0.24 0.05 0  0.25 0.05 0  0.26 0.05 0  0.27 0.05 0  0.28 0.05 0  0.29 0.05 0  0.3 0.05 0  0.31 0.05 0  0.32 0.05 0  0.33 0.05 0  0.34 0.05 0  0.35 0.05 0  0.36 0.05 0  0.37 0.05 0  0.38 0.05 0  0.39 0.05 0  0.4 0.05 0  0.41 0.05 0  0.42 0.05 0  0.43 0.05 0  0.44 0.05 0  0.45 0.05 0  0.46 0.05 0  0.47 0.05 0  0.48 0.05 0  0.49 0.05 0  0.5 0.05 0  0.51 0.05 0  0.52 0.05 0  0.53 0.05 0  0.54 0.05 0  0.55 0.05 0  0.5600000000000001 0.05 0  0.57 0.05 0  0.58 0.05 0  0.59 0.05 0  0.6 0.05 0  0.61 0.05 0  0.62 0.05 0  0.63 0.05 0  0.64 0.05 0  0.65 0.05 0  0.66 0.05 0  0.67 0.05 0  0.68 0.05 0  0.6899999999999999 0.05 0  0.7 0.05 0  0.71 0.05 0  0.72 0.05 0  0.73 0.05 0  0.74 0.05 0  0.75 0.05 0  0.76 0.05 0  0.77 0.05 0  0.78 0.05 0  0.79 0.05 0  0.8 0.05 0  0.8100000000000001 0.05 0  0.82 0.05 0  0.83 0.05 0  0.84 0.05 0  0.85 0.05 0  0.86 0.05 0  0.87 0.05 0  0.88 0.05 0  0.89 0.05 0  0.9 0.05 0  0.91 0.05 0  0.92 0.05 0  0.93 0.05 0  0.9399999999999999 0.05 0  0.95 0.05 0  0.96 0.05 0  0.97 0.05 0  0.98 0.05 0  0.99 0.05 0  1 0.05 0  0 0.06 0  0.01 0.06 0  0.02 0.06 0  0.03 0.06 0  0.04 0.06 0  0.05 0.06 0  0.06 0.06 0  0.07000000000000001 0.06 0  0.08 0.06 0  0.09 0.06 0  0.1 0.06 0  0.11 0.06 0  0.12 0.06 0  0.13 0.06 0  0.14 0.06 0  0.15 0.06 0  0.16 0.06 0  0.17 0.06 0  0.18 0.06 0  0.19 0.06 0  0.2 0.06 0  0.21 0.06 0  0.22 0.06 0  0.23 0.06 0  0.24 0.06 0  0.25 0.06 0  0.26 0.06 0  0.27 0.06 0  0.28 0.06 0  0.29 0.06 0  0.3 0.06 0  0.31 0.06 0  0.32 0.06 0  0.33 0.06 0  0.34 0.06 0  0.35 0.06 0  0.36 0.06 0  0.37 0.06 0  0.38 0.06 0  0.39 0.06 0  0.4 0.06 0  0.41 0.06 0  0.42 0.06 0  0.43 0.06 0  0.44 0.06 0  0.45 0.06 0  0.46 0.06 0  0.47 0.06 0  0.48 0.06 0  0.49 0.06 0  0.5 0.06 0  0.51 0.06 0  0.52 0.06 0  0.53 0.06 0  0.54 0.06 0  0.55 0.06 0  0.5600000000000001 0.06 0  0.57 0.06 0  0.58 0.06 0  0.59 0.06 0  0.6 0.06 0  0.61 0.06 0  0.62 0.06 0  0.63 0.06 0  0.64 0.06 0  0.65 0.06 0  0.66 0.06 0  0.67 0.06 0  0.68 0.06 0  0.6899999999999999 0.06 0  0.7 0.06 0  0.71 0.06 0  0.72 0.06 0  0.73 0.06 0  0.74 0.06 0  0.75 0.06 0  0.76 0.06 0  0.77 0.06 0  0.78 0.06 0  0.79 0.06 0  0.8 0.06 0  0.8100000000000001 0.06 0  0.82 0.06 0  0.83 0.06 0  0.84 0.06 0  0.85 0.06 0  0.86 0.06 0  0.87 0.06 0  0.88 0.06 0  0.89 0.06 0  0.9 0.06 0  0.91 0.06 0  0.92 0.06 0  0.93 0.06 0  0.9399999999999999 0.06 0  0.95 0.06 0  0.96 0.06 0  0.97 0.06 0  0.98 0.06 0  0.99 0.06 0  1 0.06 0  0 0.07000000000000001 0  0.01 0.07000000000000001 0  0.02 0.07000000000000001 0  0.03 0.07000000000000001 0  0.04 0.07000000000000001 0  0.05 0.07000000000000001 0  0.06 0.07000000000000001 0  0.07000000000000001 0.07000000000000001 0  0.08 0.07000000000000001 0  0.09 0.07000000000000001 0  0.1 0.07000000000000001 0  0.11 0.07000000000000001 0  0.12 0.07000000000000001 0  0.13 0.07000000000000001 0  0.14 0.07000000000000001 0  0.15 0.07000000000000001 0  0.16 0.07000000000000001 0  0.17 0.0700
[...]
<PointData  Scalars="u"> 
<DataArray  type="Float64"  Name="u"  format="ascii">0.0000000000000000e+00  0.0000000000000000e+00  0.0000000000000000e+00  0.0000000000000000e+00  0.0000000000000000e+00  0.0000000000000000e+00  0.0000000000000000e+00  0.0000000000000000e+00  0.0000000000000000e+00  0.0000000000000000e+00  0.0000000000000000e+00  0.0000000000000000e+00  0.0000000000000000e+00  0.0000000000000000e+00  0.0000000000000000e+00  0.0000000000000000e+00  0.0000000000000000e+00  0.0000000000000000e+00  0.0000000000000000e+00  0.0000000000000000e+00  0.0000000000000000e+00  0.0000000000000000e+00  0.0000000000000000e+00  0.0000000000000000e+00  0.0000000000000000e+00  0.0000000000000000e+00  0.0000000000000000e+00  0.0000000000000000e+00  0.0000000000000000e+00  0.0000000000000000e+00  0.0000000000000000e+00  0.0000000000000000e+00  0.0000000000000000e+00  0.0000000000000000e+00  0.0000000000000000e+00  0.0000000000000000e+00  0.0000000000000000e+00  0.0000000000000000e+00  0.0000000000000000e+00  0.0000000000000000e+00  0.0000000000000000e+00  0.0000000000000000e+00  0.0000000000000000e+00  0.0000000000000000e+00  0.0000000000000000e+00  0.0000000000000000e+00  0.0000000000000000e+00  0.0000000000000000e+00  0.0000000000000000e+00  0.0000000000000000e+00  0.0000000000000000e+00  0.0000000000000000e+00  0.0000000000000000e+00  0.0000000000000000e+00  0.0000000000000000e+00  0.0000000000000000e+00  0.0000000000000000e+00  0.0000000000000000e+00  0.0000000000000000e+00  0.0000000000000000e+00  0.0000000000000000e+00  0.0000000000000000e+00  0.0000000000000000e+00  0.0000000000000000e+00  0.0000000000000000e+00  0.0000000000000000e+00  0.0000000000000000e+00  0.0000000000000000e+00  0.0000000000000000e+00  0.0000000000000000e+00  0.0000000000000000e+00  0.0000000000000000e+00  0.0000000000000000e+00  0.0000000000000000e+00  0.0000000000000000e+00  0.0000000000000000e+00  0.0000000000000000e+00  0.0000000000000000e+00  0.0000000000000000e+00  0.0000000000000000e+00  0.0000000000000000e+00  0.0000000000000000e+00  0.0000000000000000e+00  0.0000000000000000e+00  0.0000000000000000e+00  0.0000000000000000e+00  0.0000000000000000e+00  0.0000000000000000e+00  0.0000000000000000e+00  0.0000000000000000e+00  0.0000000000000000e+00  0.0000000000000000e+00  0.0000000000000000e+00  0.0000000000000000e+00  0.0000000000000000e+00  0.0000000000000000e+00  0.0000000000000000e+00  0.0000000000000000e+00  0.0000000000000000e+00  0.0000000000000000e+00  0.0000000000000000e+00  0.0000000000000000e+00  2.2659228593345273e-16  5.0966460160829573e-16  8.9296570712588269e-16  1.4365975983400956e-15  2.2256668205231524e-15  3.3819558720289418e-15  5.0801657174319121e-15  7.5704488396104707e-15  1.1209491141014651e-14  1.6503070967357250e-14  2.4163838733622903e-14  3.5189026245916922e-14  5.0963901581891107e-14  7.3398001859517014e-14  1.0510243894157416e-13  1.4961777529178592e-13  2.1170294656718532e-13  2.9769623507836800e-13  4.1595907000009073e-13  5.7741206549262641e-13  7.9616975819518305e-13  1.0902754788584919e-12  1.4825301982827850e-12  2.0013986043056737e-12  2.6819618383027940e-12  3.5668692740298255e-12  4.7072219042857961e-12  6.1632983109875996e-12  8.0050124976703895e-12  1.0311973453154621e-11  1.3173002283795056e-11  1.6684957741301777e-11  2.0950728874303376e-11  2.6076278022938654e-11  3.2166661317204134e-11  3.9321018574488793e-11  4.7626609139882221e-11  5.7152071082611618e-11  6.7940191418535063e-11  8.0000584761707506e-11  9.3302774605573177e-11  1.0777024150538941e-10  1.2327603223019578e-10  1.3964050213352366e-10  1.5663168246553594e-10  1.7396862406368603e-10  1.9132787498378224e-10  2.0835301582470129e-10  2.2466692306168268e-10  2.3988618262931267e-10  2.5363686008494384e-10  2.6557067510568773e-10  2.7538054689878455e-10  2.8281448536902921e-10  2.8768690267121581e-10  2.8988660267569392e-10  2.8938095394835452e-10  2.8621603990927846e-10  2.8051287874025227e-10  2.7246008598278029e-10  2.6230358860237670e-10  2.5033417091236881e-10  2.3687372869681267e-10  2.2226112558198819e-10  2.0683849095132347e-10  1.9093868403101408e-10  1.7487449129780901e-10  1.5892994323478711e-10  1.4335395050228009e-10  1.2835628528798679e-10  1.1410578372851793e-10  1.0073052820768301e-10  8.8319687897006643e-11  7.6926651936183551e-11  6.6573078757079190e-11  5.7253501610385293e-11  4.8940167530418789e-11  4.1587837656126900e-11  3.5138334348736589e-11  2.9524679201915587e-11  2.4674721369153503e-11  2.0514204512562269e-11  1.6969261256489832e-11  1.3968355557947099e-11  1.1443716004312205e-11  9.3323174596829554e-12  7.5764758324575438e-12  6.1241223364269118e-12  4.9288207921814780e-12  3.9495854937637026e-12  3.1505490084283674e-12  2.5005198513707088e-12  1.9724599670052075e-12  1.5429019120407462e-12  1.1913161087729067e-12  8.9943019804663989e-13  6.5049642896466432e-13  4.2850086583289672e-13  2.1731134851736201e-13  0.0000000000000000e+00  0.0000000000000000e+00  4.5123536101342077e-16  1.0157672286948723e-15  1.7812954722329343e-15  2.8688528166585137e-15  4.4501203397207335e-15  6.7712201093626789e-15  1.0185889119816824e-14  1.5201602262199561e-14  2.2543338155363135e-14  3.3241092407469823e-14  4.8748967942950422e-14  7.1105726042601883e-14  1.0314905032114565e-13  1.4879839870020764e-13  2.1342406817457221e-13  3.0432275461391024e-13  4.3132211709361791e-13  6.0753817095225681e-13  8.5030908941518850e-13  1.1823263729722499e-12  1.6329783765419954e-12  2.2399107883624799e-12  3.0507927397136829e-12  4.1252548321888881e-12  5.5369358781622490e-12  7.3755385363809150e-12  9.7487511597883140e-12  1.2783846129060116e-11  1.6628717258003902e-11  2.1452075675366239e-11  2.7442491637340450e-11  3.4805957000014824e-11  4.3761658200610963e-11  5.4535700800297869e-11  6.7352620451591739e-11  8.2424654811625865e-11  9.9938934797399963e-11  1.2004297381479287e-10  1.4282907532363509e-10  1.6831852055049986e-10  1.9644661188182245e-10  2.2704980282763004e-10  2.5985621224228573e-10  2.9448077337405619e-10  3.3042609140067519e-10  3.6708977401158819e-10  4.0377857211796103e-10  4.3972915248211148e-10  4.7413476639050521e-10  5.0617653428454572e-10  5.3505759519929774e-10  5.6003802771127931e-10  5.8046827990657724e-10  5.9581887541104318e-10  6.0570439408336831e-10  6.0990013939284544e-10  6.0835045850190576e-10  6.0116831862290348e-10  5.8862639907300852e-10  5.7114056759099736e-10  5.4924711515325704e-10  5.2357548369488075e-10  4.9481841248098505e-10  4.6370144794727057e-10  4.3095362354258346e-10  3.9728084995916841e-10  3.6334320107556190e-10  3.2973687971548616e-10  2.9698124121063707e-10  2.6551087724413792e-10  2.3567244439842546e-10  2.0772567810038787e-10  1.8184787018964431e-10  1.5814100534369583e-10  1.3664073948660631e-10  1.1732644896857133e-10  1.0013166735092708e-10  8.4954341406887267e-11  7.1666465064391970e-11  6.0122777392727508e-11  5.0168329136655554e-11  4.1644825463097471e-11  3.4395736995359226e-11  2.8270235694118504e-11  2.3126057335188610e-11  1.8831420117159416e-11  1.5266141932977066e-11  1.2322099989135461e-11  9.9031686543773975e-12  7.9247573027245050e-12  6.3130517204085703e-12  5.0040421653877907e-12  3.9423997869737670e-12  3.0802419318891019e-12  2.3758069182032625e-12  1.7920414767684782e-12  1.2950914042419095e-12  8.5268190042613680e-13  4.3238557917696721e-13  0.0000000000000000e+00  0.0000000000000000e+00  7.0632525652671589e-16  1.5914111905283890e-15  2.7943849277198143e-15  4.5078383530362189e-15  7.0057071684946819e-15  1.0681823368714043e-14  1.6103847402733811e-14  2.4088503828175034e-14  3.5805951563012708e-14  5.2923520918593720e-14  7.7802005082698453e-14  1.1376123915323609e-13  1.6543582383439371e-13  2.3924646612389739e-13  3.4401731526559285e-13  4.9177451096467697e-13  6.9876536782347786e-13  9.8674037528492849e-13  1.3845403809751560e-12  1.9300275182301707e-12  2.6723889118561593e-12  3.6748250072259917e-12  5.0176075100040001e-12  6.8014535781422482e-12  9.1511118032632219e-12  1.2218991397802608e-11  1.6188590169845229e-11  2.1277392753686633e-11  2.7738824245467394e-11  3.5862764907744436e-11  4.5974070945099055e-11  5.8428518959609950e-11  7.3605613353823740e-11  9.1897781983792611e-11  1.1369564820031444e-10  1.3936931368249304e-10  1.6924591400057237e-10  2.0358410409256694e-10  2.4254656727961646e-10  2.8617207963906301e-10  3.3434905132844503e-10  3.8679275144047854e-10  4.4302854733114009e-10  5.0238340604904570e-10  5.6398758491369211e-10  6.2678787595255804e-10  6.8957299047093864e-10  7.5101073240421712e-10  8.0969559678258821e-10  8.6420444621175924e-10  9.1315707398648328e-10  9.5527785952990955e-10  9.8945443985515143e-10  1.0147894044590974e-09  1.0306414730223957e-09  1.0366533944018043e-09  1.0327648319255477e-09  1.0192096661958212e-09  9.9649833119338404e-10  9.6538688360514476e-10  9.2683538735757806e-10  8.8195880255130517e-10  8.3197386312312029e-10  7.7814541027430443e-10  7.2173535184858096e-10  6.6395689981635721e-10  6.0593607278853012e-10  5.4868171699318516e-10  4.9306457171454310e-10  4.3980524598775216e-10  3.8947042765735994e-10  3.4247624029440045e-10  2.9909740644655976e-10  2.5948076040870693e-10  2.2366166176228804e-10  1.9158196673682368e-10  1.6310838929854020e-10  1.3805029947994002e-10  1.1617623755623882e-10  9.7228648638050009e-11  8.0936547878348478e-11  6.7026001986610239e-11  5.5228453173284540e-11  4.5287016080998659e-11  3.6960948746546877e-11  3.0028539203381322e-11  2.4288665067068230e-11  1.9561279758567344e-11  1.5687061094871186e-11  1.2526430399862717e-11  9.9581168545206412e-12  7.8774054710819898e-12  6.1941700470055982e-12  4.8307564104342774e-12  3.7197477403648283e-12  2.8016147129237993e-12  2.0222320468285418e-12  1.3302358537130811e-12  6.7421353834172255e-13  0.0000000000000000e+00  0.0000000000000000e+00  1.0221684556052856e-15  2.3054744670656449e-15  4.0547554721657029e-15  6.5544863697620594e-15  1.0210677362074339e-14  1.5609115039532579e-14  2.3597166510430433e-14  3.5398369955303118e-14  5.2772070200839372e-14  7.8234206843752117e-14  1.1536013758896493e-13  1.6919615837781863e-13  2.4681317222804724e-13  3.5804365085395906e-13  5.1645133856980217e-13  7.4059152407282237e-13  1.0556272702913942e-12  1.4953724360261870e-12  2.1048338319055705e-12  2.9433200640448834e-12  4.0881706330810904e-12  5.6391323474756235e-12  7.7233675632434611e-12  1.0501016881326028e-11  1.4171155240747601e-11  1.8977873974918109e-11  2.5216094049567036e-11  3.3236572662853440e-11  4.3449416486276917e-11  5.6325275076354309e-11  7.2393277702869331e-11  9.2234720889481671e-11  1.1647153995183017e-10  1.4574873303312954e-10  1.8071017329958706e-10  2.2196765709160239e-10  2.7006359084136000e-10  3.2542839546140839e-10  3.8833445870093209e-10  4.5884922550596837e-10  5.3679069602183747e-10  6.2168910124850544e-10  7.1275874855809333e-10  8.0888388954208622e-10  9.0862190807087496e-10  1.0102261488497646e-09  1.1116893518821175e-09  1.2108070277195239e-09  1.3052583529205386e-09  1.3927004690302058e-09  1.4708706267307864e-09  1.5376896088465049e-09  1.5913594286612153e-09  1.6304485069163901e-09  1.6539583789588252e-09  1.6613673921092475e-09  1.6526486742351132e-09  1.6282616923134478e-09  1.5891187586343106e-09  1.5365296748408496e-09  1.4721291575030289e-09  1.3977926449284295e-09  1.3155464897491456e-09  1.2274784071990750e-09  1.1356534436819713e-09  1.0420397650890366e-09  9.4844737375487269e-10  8.5648158592565352e-10  7.6751186511282517e-10  6.8265551331011310e-10  6.0277484283079179e-10  5.2848582404315150e-10  4.6017583502784508e-10  3.9802800912939643e-10  3.4204974833147387e-10  2.9210319674732063e-10  2.4793579839708887e-10  2.0920944845749769e-10  1.7552714551678994e-10  1.4645643118325245e-10  1.2154923954968749e-10  1.0035805870686976e-10  8.2448524011217368e-11  6.7408718820958663e-11  5.4855558146796977e-11  4.4438682146437618e-11  3.5842298956752980e-11  2.8785399452182791e-11  2.3020728872812350e-11  1.8332849370686567e-11  1.4535569387741933e-11  1.1468954923347588e-11  8.9960773954771932e-12  6.9995952535350378e-12  5.3782137649818723e-12  4.0430221032921024e-12  2.9136737079239902e-12  1.9143638650633913e-12  9.6958380020210103e-13  0.0000000000000000e+00  0.0000000000000000e+00  1.4313366891135129e-15  3.2322022086238601e-15  5.6951154179250996e-15  9.2277595071841673e-15  1.4414246815605891e-14  2.2100717324906811e-14  3.3516114226327177e-14  5.0442152993310051e-14  7.5451224015158969e-14  1.1223700621184017e-13  1.6607012346725380e-13  2.4442040494290889e-13  3.5779827224276490e-13  5.2088035365312837e-13  7.5399822567888890e-13  1.0850834119929130e-12  1.5521750909705628e-12  2.2066073354700621e-12  3.1169972479755891e-12  4.3741502318137161e-12  6.0969790723873601e-12  8.4394938950117381e-12  1.1598854364703489e-11  1.5824377828477800e-11  2.1427262762866926e-11  2.8790613657764330e-11  3.8379143245065779e-11  5.0747688599688795e-11  6.6547424598120399e-11  8.6528415975235247e-11  1.1153695159649963e-10  1.4250599373343726e-10  1.8043709872069775e-10  2.2637237136747961e-10  2.8135544496158477e-10  3.4638115680277627e-10  4.2233451551524567e-10  5.0992069613929243e-10  6.0958907716337982e-10  7.2145563406867642e-10  8.4522917523088393e-10  9.8014777519298980e-10  1.1249321538637995e-09  1.2777625204105113e-09  1.4362844537337013e-09  1.5976477125862671e-09  1.7585795382367756e-09  1.9154912106674729e-09  2.0646136118316282e-09  2.2021546609669542e-09  2.3244690589920166e-09  2.4282291223078986e-09  2.5105848337030622e-09  2.5693017068735987e-09  2.6028666321253324e-09  2.6105543879393679e-09  2.5924506937705585e-09  2.5494311931863081e-09  2.4830992138673525e-09  2.3956881954929487e-09  2.2899370198791613e-09  2.1689479326359137e-09  2.0360372412231698e-09  1.8945885538996997e-09  1.7479171271646082e-09  1.5991521227808833e-09  1.4511414796600565e-09  1.3063819211686090e-09  1.1669745572137906e-09  1.0346047675723619e-09  9.1054367541349340e-10  7.9566758618609345e-10  6.9049127296708583e-10  5.9521088987648590e-10  5.0975251765474059e-10  4.3382280356080933e-10  3.6695876316965168e-10  3.0857448365481177e-10  2.5800313951084935e-10  2.1453335177907436e-10  1.7743945715442413e-10  1.4600568600291940e-10  1.1954457347849028e-10  9.7410150615219728e-11  7.9006594116103696e-11  6.3793069871605473e-11  5.1285502598260064e-11  4.1055958429159672e-11  3.2730253106325166e-11  2.5984307484603124e-11  2.0539673554311836e-11  1.6158554759716832e-11  1.2638548492066682e-11  9.8072492021958040e-12  7.5167699709902041e-12  5.6381717966920044e-12  4.0557394859509346e-12  2.6610233861385062e-12  1.3466007239656330e-12  0.0000000000000000e+00  0.0000000000000000e+00  1.9721047285197760e-15  4.4591028428068268e-15  7.8726143070957549e-15  1.2788475097159053e-14  2.0035165302778010e-14  3.0818002179725841e-14  4.6895222578452071e-14  7.0827018594508480e-14  1.0632586691011786e-13  1.5874586894070365e-13  2.3576065573294358e-13  3.4829401379400872e-13  5.1178492301381281e-13  7.4788907692717768e-13  1.0867416736177990e-12  1.5699301957639615e-12  2.2543490467170020e-12  3.2171271448529906e-12  4.5618303686010438e-12  6.4261369511335155e-12  8.9911577306245371e-12  1.2492515237641018e-11  1.7233195612676253e-11  2.3598034949530452e-11  3.2069488068001866e-11  4.3244047904566190e-11  5.7848339183795858e-11  7.6753512007192973e-11  1.0098613352699492e-10  1.3173335838574496e-10  1.7033980698147790e-10  2.1829336593595533e-10  2.7719712914146414e-10  3.4872500444728373e-10  4.3455919430419777e-10  5.3630886661387900e-10  6.5541086972521284e-10  7.9301525905332436e-10  9.4986056797034209e-10  1.1261459753634545e-09  1.3214095360708939e-09  1.5344231477195002e-09  1.7631156245092177e-09  2.0045348750630115e-09  2.2548585713972919e-09  2.5094598221207490e-09  2.7630303667236463e-09  3.0097590059694567e-09  3.2435578452175267e-09  3.4583240234034402e-09  3.6482205274077377e-09  3.8079569868463878e-09  3.9330504016239110e-09  4.0200467585764499e-09  4.0666873850772049e-09  4.0720083668791715e-09  4.0363669256639982e-09  3.9613946823261959e-09  3.8498835610646217e-09  3.7056151075113554e-09  3.5331477252089852e-09  3.3375784890773918e-09  3.1242966904960246e-09  2.8987452222465125e-09  2.6662035991115436e-09  2.4316032131961744e-09  2.1993817677255351e-09  1.9733801307169162e-09  1.7567814512967575e-09  1.5520895460895366e-09  1.3611414463466929e-09  1.1851476520433446e-09  1.0247530339346375e-09  8.8011136065815322e-10  7.5096696759338665e-10  6.3673797329427188e-10  5.3659653738693146e-10  4.4954280831597844e-10  3.7447032431229512e-10  3.1022163063271677e-10  2.5563371407605092e-10  2.0957351138999836e-10  1.7096422137121185e-10  1.3880345587364359e-10  1.1217442638187249e-10  9.0251408433073211e-11  7.2300684726338177e-11  5.7678065898155762e-11  4.5823948583819612e-11  3.6256711902515028e-11  2.8565089607135667e-11  2.2399995240460479e-11  1.7466127601587155e-11  1.3513547048771636e-11  1.0329292056569793e-11  7.7290035116864871e-12  5.5484491865448243e-12  3.6348094590906624e-12  1.8376303221716157e-12  0.0000000000000000e+00  0.0000000000000000e+00  2.6917164389476553e-15  6.0944862197719538e-15  1.0782574727925814e-14  1.7562510482567912e-14  2.7599752347661374e-14  4.2597530425640579e-14  6.5051693585466982e-14  9.8613009706169656e-14  1.4859950434180740e-13  2.2271589771946143e-13  3.3205563610413868e-13  4.9248398078535372e-13  7.2652850241918045e-13  1.0659361502098353e-12  1.5550932234173384e-12  2.2555445111353197e-12  3.2518876650307151e-12  4.6593537789771459e-12  6.6334081146711979e-12  9.3817061693569119e-12  1.3178707145203966e-11  1.8383163890338123e-11  2.5458558018418187e-11  3.4996313096915046e-11  4.7741281379532932e-11  6.4618549950421646e-11  8.6760049998155719e-11  1.1552879363767587e-10  1.5253784304738814e-10  1.9966039971313183e-10  2.5902677910183174e-10  3.3300362743387939e-10  4.2415068227302285e-10  5.3515082412603303e-10  6.6871024470296649e-10  8.2742736012197412e-10  1.0136316433733459e-09  1.2291967578490573e-09  1.4753360381986586e-09  1.7523921526240159e-09  2.0596362440987146e-09  2.3950944645799877e-09  2.7554210538618866e-09  3.1358365144275249e-09  3.5301467002181065e-09  3.9308537200967619e-09  4.3293627042631103e-09  4.7162802525091174e-09  5.0817916047193129e-09  5.4160952497844376e-09  5.7098668630576334e-09  5.9547200634069296e-09  6.1436301733266817e-09  6.2712892354462831e-09  6.3343658368586269e-09  6.3316512475669232e-09  6.2640830789357372e-09  6.1346479947761388e-09  5.9481748025995020e-09  5.7110374786162944e-09  5.4307935571786989e-09  5.1157864064528962e-09  4.7747401500540129e-09  4.4163736519727104e-09  4.0490555963615757e-09  3.6805169625907422e-09  3.3176308676297506e-09  2.9662635206291304e-09  2.6311944808169670e-09  2.3160999300573184e-09  2.0235894801879733e-09  1.7552851735931591e-09  1.5119307025971920e-09  1.2935192688054451e-09  1.0994296719742971e-09  9.2856188908694200e-10  7.7946532498480072e-10  6.5045487207555957e-10  5.3971174480953816e-10  4.4536764470128325e-10  3.6557210323370276e-10  2.9854382422658831e-10  2.4260751699671685e-10  1.9621811098659060e-10  1.5797441751681912e-10  1.2662430517594191e-10  1.0106333085401065e-10  8.0328562004100185e-11  6.3589073414178508e-11  5.0134331442799280e-11  3.9361410213323754e-11  3.0761730532127908e-11  2.3907780509610804e-11  1.8440070369811535e-11  1.4054394485097832e-11  1.0489324462063121e-11  7.5137472229999233e-12  4.9142133763487776e-12  2.4819182935107683e-12  0.0000000000000000e+00  0.0000000000000000e+00  3.6498000561236813e-15  8.2753919460912544e-15  1.4673064497524791e-14  2.3965700258841399e-14  3.7783206653886496e-14  5.8518638600295462e-14  8.9695073069256228e-14  1.3648994439180022e-13  2.0648051762285362e-13  3.1069641062566117e-13  4.6509365055329495e-13  6.9260069904134533e-13  1.0259310043210817e-12  1.5114092282590691e-12  2.2141187308355099e-12  3.2247441028862636e-12  4.6685503221663887e-12  6.7170023502855545e-12  9.6025748079733937e-12  1.3637315347800514e-11  1.9235687031590985e-11  2