<?xml version="1.0"?>
<VTKFile type="UnstructuredGrid"  version="0.1"  >
<UnstructuredGrid>
<Piece  NumberOfPoints="10201" NumberOfCells="20000">
<Points>
<DataArray  type="Float64"  NumberOfComponents="3"  format="ascii">0 0 0  0.01 0 0  0.02 0 0  0.03 0 0  0.04 0 0  0.05 0 0  0.06 0 0  0.07000000000000001 0 0  0.08 0 0  0.09 0 0  0.1 0 0  0.11 0 0  0.12 0 0  0.13 0 0  0.14 0 0  0.15 0 0  0.16 0 0  0.17 0 0  0.18 0 0  0.19 0 0  0.2 0 0  0.21 0 0  0.22 0 0  0.23 0 0  0.24 0 0  0.25 0 0  0.26 0 0  0.27 0 0  0.28 0 0  0.29 0 0  0.3 0 0  0.31 0 0  0.32 0 0  0.33 0 0  0.34 0 0  0.35 0 0  0.36 0 0  0.37 0 0  0.38 0 0  0.39 0 0  0.4 0 0  0.41 0 0  0.42 0 0  0.43 0 0  0.44 0 0  0.45 0 0  0.46 0 0  0.47 0 0  0.48 0 0  0.49 0 0  0.5 0 0  0.51 0 0  0.52 0 0  0.53 0 0  0.54 0 0  0.55 0 0  0.5600000000000001 0 0  0.57 0 0  0.58 0 0  0.59 0 0  0.6 0 0  0.61 0 0  0.62 0 0  0.63 0 0  0.64 0 0  0.65 0 0  0.66 0 0  0.67 0 0  0.68 0 0  0.6899999999999999 0 0  0.7 0 0  0.71 0 0  0.72 0 0  0.73 0 0  0.74 0 0  0.75 0 0  0.76 0 0  0.77 0 0  0.78 0 0  0.79 0 0  0.8 0 0  0.8100000000000001 0 0  0.82 0 0  0.83 0 0  0.84 0 0  0.85 0 0  0.86 0 0  0.87 0 0  0.88 0 0  0.89 0 0  0.9 0 0  0.91 0 0  0.92 0 0  0.93 0 0  0.9399999999999999 0 0  0.95 0 0  0.96 0 0  0.97 0 0  0.98 0 0  0.99 0 0  1 0 0  0 0.01 0  0.01 0.01 0  0.02 0.01 0  0.03 0.01 0  0.04 0.01 0  0.05 0.01 0  0.06 0.01 0  0.07000000000000001 0.01 0  0.08 0.01 0  0.09 0.01 0  0.1 0.01 0  0.11 0.01 0  0.12 0.01 0  0.13 0.01 0  0.14 0.01 0  0.15 0.01 0  0.16 0.01 0  0.17 0.01 0  0.18 0.01 0  0.19 0.01 0  0.2 0.01 0  0.21 0.01 0  0.22 0.01 0  0.23 0.01 0  0.24 0.01 0  0.25 0.01 0  0.26 0.01 0  0.27 0.01 0  0.28 0.01 0  0.29 0.01 0  0.3 0.01 0  0.31 0.01 0  0.32 0.01 0  0.33 0.01 0  0.34 0.01 0  0.35 0.01 0  0.36 0.01 0  0.37 0.01 0  0.38 0.01 0  0.39 0.01 0  0.4 0.01 0  0.41 0.01 0  0.42 0.01 0  0.43 0.01 0  0.44 0.01 0  0.45 0.01 0  0.46 0.01 0  0.47 0.01 0  0.48 0.01 0  0.49 0.01 0  0.5 0.01 0  0.51 0.01 0  0.52 0.01 0  0.53 0.01 0  0.54 0.01 0  0.55 0.01 0  0.5600000000000001 0.01 0  0.57 0.01 0  0.58 0.01 0  0.59 0.01 0  0.6 0.01 0  0.61 0.01 0  0.62 0.01 0  0.63 0.01 0  0.64 0.01 0  0.65 0.01 0  0.66 0.01 0  0.67 0.01 0  0.68 0.01 0  0.6899999999999999 0.01 0  0.7 0.01 0  0.71 0.01 0  0.72 0.01 0  0.73 0.01 0  0.74 0.01 0  0.75 0.01 0  0.76 0.01 0  0.77 0.01 0  0.78 0.01 0  0.79 0.01 0  0.8 0.01 0  0.8100000000000001 0.01 0  0.82 0.01 0  0.83 0.01 0  0.84 0.01 0  0.85 0.01 0  0.86 0.01 0  0.87 0.01 0  0.88 0.01 0  0.89 0.01 0  0.9 0.01 0  0.91 0.01 0  0.92 0.01 0  0.93 0.01 0  0.9399999999999999 0.01 0  0.95 0.01 0  0.96 0.01 0  0.97 0.01 0  0.98 0.01 0  0.99 0.01 0  1 0.01 0  0 0.02 0  0.01 0.02 0  0.02 0.02 0  0.03 0.02 0  0.04 0.02 0  0.05 0.02 0  0.06 0.02 0  0.07000000000000001 0.02 0  0.08 0.02 0  0.09 0.02 0  0.1 0.02 0  0.11 0.02 0  0.12 0.02 0  0.13 0.02 0  0.14 0.02 0  0.15 0.02 0  0.16 0.02 0  0.17 0.02 0  0.18 0.02 0  0.19 0.02 0  0.2 0.02 0  0.21 0.02 0  0.22 0.02 0  0.23 0.02 0  0.24 0.02 0  0.25 0.02 0  0.26 0.02 0  0.27 0.02 0  0.28 0.02 0  0.29 0.02 0  0.3 0.02 0  0.31 0.02 0  0.32 0.02 0  0.33 0.02 0  0.34 0.02 0  0.35 0.02 0  0.36 0.02 0  0.37 0.02 0  0.38 0.02 0  0.39 0.02 0  0.4 0.02 0  0.41 0.02 0  0.42 0.02 0  0.43 0.02 0  0.44 0.02 0  0.45 0.02 0  0.46 0.02 0  0.47 0.02 0  0.48 0.02 0  0.49 0.02 0  0.5 0.02 0  0.51 0.02 0  0.52 0.02 0  0.53 0.02 0  0.54 0.02 0  0.55 0.02 0  0.5600000000000001 0.02 0  0.57 0.02 0  0.58 0.02 0  0.59 0.02 0  0.6 0.02 0  0.61 0.02 0  0.62 0.02 0  0.63 0.02 0  0.64 0.02 0  0.65 0.02 0  0.66 0.02 0  0.67 0.02 0  0.68 0.02 0  0.6899999999999999 0.02 0  0.7 0.02 0  0.71 0.02 0  0.72 0.02 0  0.73 0.02 0  0.74 0.02 0  0.75 0.02 0  0.76 0.02 0  0.77 0.02 0  0.78 0.02 0  0.79 0.02 0  0.8 0.02 0  0.8100000000000001 0.02 0  0.82 0.02 0  0.83 0.02 0  0.84 0.02 0  0.85 0.02 0  0.86 0.02 0  0.87 0.02 0  0.88 0.02 0  0.89 0.02 0  0.9 0.02 0  0.91 0.02 0  0.92 0.02 0  0.93 0.02 0  0.9399999999999999 0.02 0  0.95 0.02 0  0.96 0.02 0  0.97 0.02 0  0.98 0.02 0  0.99 0.02 0  1 0.02 0  0 0.03 0  0.01 0.03 0  0.02 0.03 0  0.03 0.03 0  0.04 0.03 0  0.05 0.03 0  0.06 0.03 0  0.07000000000000001 0.03 0  0.08 0.03 0  0.09 0.03 0  0.1 0.03 0  0.11 0.03 0  0.12 0.03 0  0.13 0.03 0  0.14 0.03 0  0.15 0.03 0  0.16 0.03 0  0.17 0.03 0  0.18 0.03 0  0.19 0.03 0  0.2 0.03 0  0.21 0.03 0  0.22 0.03 0  0.23 0.03 0  0.24 0.03 0  0.25 0.03 0  0.26 0.03 0  0.27 0.03 0  0.28 0.03 0  0.29 0.03 0  0.3 0.03 0  0.31 0.03 0  0.32 0.03 0  0.33 0.03 0  0.34 0.03 0  0.35 0.03 0  0.36 0.03 0  0.37 0.03 0  0.38 0.03 0  0.39 0.03 0  0.4 0.03 0  0.41 0.03 0  0.42 0.03 0  0.43 0.03 0  0.44 0.03 0  0.45 0.03 0  0.46 0.03 0  0.47 0.03 0  0.48 0.03 0  0.49 0.03 0  0.5 0.03 0  0.51 0.03 0  0.52 0.03 0  0.53 0.03 0  0.54 0.03 0  0.55 0.03 0  0.5600000000000001 0.03 0  0.57 0.03 0  0.58 0.03 0  0.59 0.03 0  0.6 0.03 0  0.61 0.03 0  0.62 0.03 0  0.63 0.03 0  0.64 0.03 0  0.65 0.03 0  0.66 0.03 0  0.67 0.03 0  0.68 0.03 0  0.6899999999999999 0.03 0  0.7 0.03 0  0.71 0.03 0  0.72 0.03 0  0.73 0.03 0  0.74 0.03 0  0.75 0.03 0  0.76 0.03 0  0.77 0.03 0  0.78 0.03 0  0.79 0.03 0  0.8 0.03 0  0.8100000000000001 0.03 0  0.82 0.03 0  0.83 0.03 0  0.84 0.03 0  0.85 0.03 0  0.86 0.03 0  0.87 0.03 0  0.88 0.03 0  0.89 0.03 0  0.9 0.03 0  0.91 0.03 0  0.92 0.03 0  0.93 0.03 0  0.9399999999999999 0.03 0  0.95 0.03 0  0.96 0.03 0  0.97 0.03 0  0.98 0.03 0  0.99 0.03 0  1 0.03 0  0 0.04 0  0.01 0.04 0  0.02 0.04 0  0.03 0.04 0  0.04 0.04 0  0.05 0.04 0  0.06 0.04 0  0.07000000000000001 0.04 0  0.08 0.04 0  0.09 0.04 0  0.1 0.04 0  0.11 0.04 0  0.12 0.04 0  0.13 0.04 0  0.14 0.04 0  0.15 0.04 0  0.16 0.04 0  0.17 0.04 0  0.18 0.04 0  0.19 0.04 0  0.2 0.04 0  0.21 0.04 0  0.22 0.04 0  0.23 0.04 0  0.24 0.04 0  0.25 0.04 0  0.26 0.04 0  0.27 0.04 0  0.28 0.04 0  0.29 0.04 0  0.3 0.04 0  0.31 0.04 0  0.32 0.04 0  0.33 0.04 0  0.34 0.04 0  0.35 0.04 0  0.36 0.04 0  0.37 0.04 0  0.38 0.04 0  0.39 0.04 0  0.4 0.04 0  0.41 0.04 0  0.42 0.04 0  0.43 0.04 0  0.44 0.04 0  0.45 0.04 0  0.46 0.04 0  0.47 0.04 0  0.48 0.04 0  0.49 0.04 0  0.5 0.04 0  0.51 0.04 0  0.52 0.04 0  0.53 0.04 0  0.54 0.04 0  0.55 0.04 0  0.5600000000000001 0.04 0  0.57 0.04 0  0.58 0.04 0  0.59 0.04 0  0.6 0.04 0  0.61 0.04 0  0.62 0.04 0  0.63 0.04 0  0.64 0.04 0  0.65 0.04 0  0.66 0.04 0  0.67 0.04 0  0.68 0.04 0  0.6899999999999999 0.04 0  0.7 0.04 0  0.71 0.04 0  0.72 0.04 0  0.73 0.04 0  0.74 0.04 0  0.75 0.04 0  0.76 0.04 0  0.77 0.04 0  0.78 0.04 0  0.79 0.04 0  0.8 0.04 0  0.8100000000000001 0.04 0  0.82 0.04 0  0.83 0.04 0  0.84 0.04 0  0.85 0.04 0  0.86 0.04 0  0.87 0.04 0  0.88 0.04 0  0.89 0.04 0  0.9 0.04 0  0.91 0.04 0  0.92 0.04 0  0.93 0.04 0  0.9399999999999999 0.04 0  0.95 0.04 0  0.96 0.04 0  0.97 0.04 0  0.98 0.04 0  0.99 0.04 0  1 0.04 0  0 0.05 0  0.01 0.05 0  0.02 0.05 0  0.03 0.05 0  0.04 0.05 0  0.05 0.05 0  0.06 0.05 0  0.07000000000000001 0.05 0  0.08 0.05 0  0.09 0.05 0  0.1 0.05 0  0.11 0.05 0  0.12 0.05 0  0.13 0.05 0  0.14 0.05 0  0.15 0.05 0  0.16 0.05 0  0.17 0.05 0  0.18 0.05 0  0.19 0.05 0  0.2 0.05 0  0.21 0.05 0  0.22 0.05 0  0.23 0.05 0  0.24 0.05 0  0.25 0.05 0  0.26 0.05 0  0.27 0.05 0  0.28 0.05 0  0.29 0.05 0  0.3 0.05 0  0.31 0.05 0  0.32 0.05 0  0.33 0.05 0  0.34 0.05 0  0.35 0.05 0  0.36 0.05 0  0.37 0.05 0  0.38 0.05 0  0.39 0.05 0  0.4 0.05 0  0.41 0.05 0  0.42 0.05 0  0.43 0.05 0  0.44 0.05 0  0.45 0.05 0  0.46 0.05 0  0.47 0.05 0  0.48 0.05 0  0.49 0.05 0  0.5 0.05 0  0.51 0.05 0  0.52 0.05 0  0.53 0.05 0  0.54 0.05 0  0.55 0.05 0  0.5600000000000001 0.05 0  0.57 0.05 0  0.58 0.05 0  0.59 0.05 0  0.6 0.05 0  0.61 0.05 0  0.62 0.05 0  0.63 0.05 0  0.64 0.05 0  0.65 0.05 0  0.66 0.05 0  0.67 0.05 0  0.68 0.05 0  0.6899999999999999 0.05 0  0.7 0.05 0  0.71 0.05 0  0.72 0.05 0  0.73 0.05 0  0.74 0.05 0  0.75 0.05 0  0.76 0.05 0  0.77 0.05 0  0.78 0.05 0  0.79 0.05 0  0.8 0.05 0  0.8100000000000001 0.05 0  0.82 0.05 0  0.83 0.05 0  0.84 0.05 0  0.85 0.05 0  0.86 0.05 0  0.87 0.05 0  0.88 0.05 0  0.89 0.05 0  0.9 0.05 0  0.91 0.05 0  0.92 0.05 0  0.93 0.05 0  0.9399999999999999 0.05 0  0.95 0.05 0  0.96 0.05 0  0.97 0.05 0  0.98 0.05 0  0.99 0.05 0  1 0.05 0  0 0.06 0  0.01 0.06 0  0.02 0.06 0  0.03 0.06 0  0.04 0.06 0  0.05 0.06 0  0.06 0.06 0  0.07000000000000001 0.06 0  0.08 0.06 0  0.09 0.06 0  0.1 0.06 0  0.11 0.06 0  0.12 0.06 0  0.13 0.06 0  0.14 0.06 0  0.15 0.06 0  0.16 0.06 0  0.17 0.06 0  0.18 0.06 0  0.19 0.06 0  0.2 0.06 0  0.21 0.06 0  0.22 0.06 0  0.23 0.06 0  0.24 0.06 0  0.25 0.06 0  0.26 0.06 0  0.27 0.06 0  0.28 0.06 0  0.29 0.06 0  0.3 0.06 0  0.31 0.06 0  0.32 0.06 0  0.33 0.06 0  0.34 0.06 0  0.35 0.06 0  0.36 0.06 0  0.37 0.06 0  0.38 0.06 0  0.39 0.06 0  0.4 0.06 0  0.41 0.06 0  0.42 0.06 0  0.43 0.06 0  0.44 0.06 0  0.45 0.06 0  0.46 0.06 0  0.47 0.06 0  0.48 0.06 0  0.49 0.06 0  0.5 0.06 0  0.51 0.06 0  0.52 0.06 0  0.53 0.06 0  0.54 0.06 0  0.55 0.06 0  0.5600000000000001 0.06 0  0.57 0.06 0  0.58 0.06 0  0.59 0.06 0  0.6 0.06 0  0.61 0.06 0  0.62 0.06 0  0.63 0.06 0  0.64 0.06 0  0.65 0.06 0  0.66 0.06 0  0.67 0.06 0  0.68 0.06 0  0.6899999999999999 0.06 0  0.7 0.06 0  0.71 0.06 0  0.72 0.06 0  0.73 0.06 0  0.74 0.06 0  0.75 0.06 0  0.76 0.06 0  0.77 0.06 0  0.78 0.06 0  0.79 0.06 0  0.8 0.06 0  0.8100000000000001 0.06 0  0.82 0.06 0  0.83 0.06 0  0.84 0.06 0  0.85 0.06 0  0.86 0.06 0  0.87 0.06 0  0.88 0.06 0  0.89 0.06 0  0.9 0.06 0  0.91 0.06 0  0.92 0.06 0  0.93 0.06 0  0.9399999999999999 0.06 0  0.95 0.06 0  0.96 0.06 0  0.97 0.06 0  0.98 0.06 0  0.99 0.06 0  1 0.06 0  0 0.07000000000000001 0  0.01 0.07000000000000001 0  0.02 0.07000000000000001 0  0.03 0.07000000000000001 0  0.04 0.07000000000000001 0  0.05 0.07000000000000001 0  0.06 0.07000000000000001 0  0.07000000000000001 0.07000000000000001 0  0.08 0.07000000000000001 0  0.09 0.07000000000000001 0  0.1 0.07000000000000001 0  0.11 0.07000000000000001 0  0.12 0.07000000000000001 0  0.13 0.07000000000000001 0  0.14 0.07000000000000001 0  0.15 0.07000000000000001 0  0.16 0.07000000000000001 0  0.17 0.0700
[...]
<PointData  Scalars="u"> 
<DataArray  type="Float64"  Name="u"  format="ascii">0.0000000000000000e+00  0.0000000000000000e+00  0.0000000000000000e+00  0.0000000000000000e+00  0.0000000000000000e+00  0.0000000000000000e+00  0.0000000000000000e+00  0.0000000000000000e+00  0.0000000000000000e+00  0.0000000000000000e+00  0.0000000000000000e+00  0.0000000000000000e+00  0.0000000000000000e+00  0.0000000000000000e+00  0.0000000000000000e+00  0.0000000000000000e+00  0.0000000000000000e+00  0.0000000000000000e+00  0.0000000000000000e+00  0.0000000000000000e+00  0.0000000000000000e+00  0.0000000000000000e+00  0.0000000000000000e+00  0.0000000000000000e+00  0.0000000000000000e+00  0.0000000000000000e+00  0.0000000000000000e+00  0.0000000000000000e+00  0.0000000000000000e+00  0.0000000000000000e+00  0.0000000000000000e+00  0.0000000000000000e+00  0.0000000000000000e+00  0.0000000000000000e+00  0.0000000000000000e+00  0.0000000000000000e+00  0.0000000000000000e+00  0.0000000000000000e+00  0.0000000000000000e+00  0.0000000000000000e+00  0.0000000000000000e+00  0.0000000000000000e+00  0.0000000000000000e+00  0.0000000000000000e+00  0.0000000000000000e+00  0.0000000000000000e+00  0.0000000000000000e+00  0.0000000000000000e+00  0.0000000000000000e+00  0.0000000000000000e+00  0.0000000000000000e+00  0.0000000000000000e+00  0.0000000000000000e+00  0.0000000000000000e+00  0.0000000000000000e+00  0.0000000000000000e+00  0.0000000000000000e+00  0.0000000000000000e+00  0.0000000000000000e+00  0.0000000000000000e+00  0.0000000000000000e+00  0.0000000000000000e+00  0.0000000000000000e+00  0.0000000000000000e+00  0.0000000000000000e+00  0.0000000000000000e+00  0.0000000000000000e+00  0.0000000000000000e+00  0.0000000000000000e+00  0.0000000000000000e+00  0.0000000000000000e+00  0.0000000000000000e+00  0.0000000000000000e+00  0.0000000000000000e+00  0.0000000000000000e+00  0.0000000000000000e+00  0.0000000000000000e+00  0.0000000000000000e+00  0.0000000000000000e+00  0.0000000000000000e+00  0.0000000000000000e+00  0.0000000000000000e+00  0.0000000000000000e+00  0.0000000000000000e+00  0.0000000000000000e+00  0.0000000000000000e+00  0.0000000000000000e+00  0.0000000000000000e+00  0.0000000000000000e+00  0.0000000000000000e+00  0.0000000000000000e+00  0.0000000000000000e+00  0.0000000000000000e+00  0.0000000000000000e+00  0.0000000000000000e+00  0.0000000000000000e+00  0.0000000000000000e+00  0.0000000000000000e+00  0.0000000000000000e+00  0.0000000000000000e+00  0.0000000000000000e+00  0.0000000000000000e+00  1.2153626169795497e-07  2.2890044827744763e-07  3.2471091100475850e-07  4.1112004594757110e-07  4.8989654139936578e-07  5.6248772915681012e-07  6.3007151133944433e-07  6.9359952377287763e-07  7.5383299883715129e-07  8.1137256617445542e-07  8.6668303333099503e-07  9.2011402202435794e-07  9.7191719562882050e-07  1.0222606956668453e-06  1.0712413060085569e-06  1.1188947800237522e-06  1.1652046954633483e-06  1.2101101421233672e-06  1.2535124964598148e-06  1.2952814936692765e-06  1.3352607699782513e-06  1.3732730148731652e-06  1.4091248438337021e-06  1.4426114760682593e-06  1.4735212782206699e-06  1.5016402136021884e-06  1.5267562169208971e-06  1.5486634965787702e-06  1.5671667503453312e-06  1.5820852656591582e-06  1.5932568631021235e-06  1.6005416309514893e-06  1.6038253904015167e-06  1.6030228253386385e-06  1.5980802077233029e-06  1.5889776499093793e-06  1.5757308187804782e-06  1.5583920534643202e-06  1.5370508385375661e-06  1.5118335978440070e-06  1.4829027899491520e-06  1.4504553043135449e-06  1.4147201768040381e-06  1.3759556633672039e-06  1.3344457306605359e-06  1.2904960412268391e-06  1.2444295274669006e-06  1.1965816623444462e-06  1.1472955447019107e-06  1.0969169227126711e-06  1.0457892800049457e-06  9.9424910527591027e-07  9.4262145794417227e-07  8.9121592998936118e-07  8.4032308824774224e-07  7.9021146290047071e-07  7.4112512765547430e-07  6.9328189619141692e-07  6.4687213879806147e-07  6.0205820373417653e-07  5.5897441042697257e-07  5.1772756688289429e-07  4.7839795200173221e-07  4.4104069511478563e-07  4.0568748003667504e-07  3.7234849908530948e-07  3.4101458359346242e-07  3.1165944100451004e-07  2.8424193423711166e-07  2.5870834610729255e-07  2.3499457969968855e-07  2.1302825420006692e-07  1.9273066440787408e-07  1.7401858057638271e-07  1.5680587309028042e-07  1.4100495357450536e-07  1.2652803019597379e-07  1.1328818010075860e-07  1.0120024610967839e-07  9.0181568008034956e-08  8.0152561078325162e-08  7.1037156030407119e-08  6.2763115288633291e-08  5.5262240812936125e-08  4.8470488373344932e-08  4.2328002571952010e-08  3.6779086010759359e-08  3.1772114924576979e-08  2.7259412409118096e-08  2.3197089136827391e-08  1.9544860215690580e-08  1.6265845646874349e-08  1.3326360702974980e-08  1.0695701498589124e-08  8.3459300700876535e-09  6.2516624267238699e-09  4.3898622791379473e-09  2.7396424829235282e-09  1.2820755811892044e-09  0.0000000000000000e+00  0.0000000000000000e+00  2.6311223712978736e-07  4.9555707884567474e-07  7.0300027735634711e-07  8.9010618187727492e-07  1.0607071371400364e-06  1.2179390270712567e-06  1.3643539098597806e-06  1.5020135937699007e-06  1.6325673635624643e-06  1.7573165518833591e-06  1.8772682189293528e-06  1.9931798414246594e-06  2.1055966075139558e-06  2.2148826583838221e-06  2.3212474023693374e-06  2.4247678462385741e-06  2.5254077355241959e-06  2.6230341662976145e-06  2.7174322205107939e-06  2.8083180824606225e-06  2.8953510121206158e-06  2.9781444795883999e-06  3.0562767017085455e-06  3.1293007654380138e-06  3.1967544714736902e-06  3.2581699851360266e-06  3.3130833388798792e-06  3.3610437917426211e-06  3.4016230154517764e-06  3.4344240449367846e-06  3.4590899029488527e-06  3.4753117848683180e-06  3.4828366711530517e-06  3.4814742218861913e-06  3.4711028011364219e-06  3.4516744788886971e-06  3.4232188655294945e-06  3.3858456484535301e-06  3.3397457221986144e-06  3.2851908321859213e-06  3.2225316868658612e-06  3.1521945327027139e-06  3.0746762294897896e-06  2.9905379081931611e-06  2.9003973378799471e-06  2.8049201701873117e-06  2.7048102671282332e-06  2.6007993488489666e-06  2.4936362205633610e-06  2.3840758510005386e-06  2.2728685775190810e-06  2.1607497053284973e-06  2.0484297503706691e-06  1.9365855482721461e-06  1.8258524168128240e-06  1.7168175184061094e-06  1.6100145242679803e-06  1.5059196355180956e-06  1.4049489706365796e-06  1.3074572855658546e-06  1.2137379540831466e-06  1.1240241032850732e-06  1.0384907730936606e-06  9.5725795012979156e-07  8.8039431517886572e-07  8.0792153946892307e-07  7.3981896743640056e-07  6.7602853166148119e-07  6.1645975814386502e-07  5.6099473591498031e-07  5.0949294300050819e-07  4.6179583988191372e-07  4.1773116089926343e-07  3.7711685268357686e-07  3.3976462606765640e-07  3.0548310353545970e-07  2.7408055783227555e-07  2.4536724872098317e-07  2.1915737401024715e-07  1.9527065797763958e-07  1.7353360532029513e-07  1.5378045199644602e-07  1.3585384601275554e-07  1.1960529161713832e-07  1.0489538972497429e-07  9.1593905975278559e-08  7.9579695798405084e-08  6.8740513468381083e-08  5.8972729473036486e-08  5.0180977797345929e-08  4.2277751986259442e-08  3.5182966214118515e-08  2.8823495097629406e-08  2.3132703688234861e-08  1.8049976991451028e-08  1.3520256496042250e-08  9.4935895548165515e-09  5.9246960324509952e-09  2.7725553750725011e-09  0.0000000000000000e+00  0.0000000000000000e+00  4.2849880971552507e-07  8.0707529434197476e-07  1.1449668966460011e-06  1.4497809207304225e-06  1.7277672510954302e-06  1.9840396701219394e-06  2.2227597568364267e-06  2.4472896142052362e-06  2.6603186805712345e-06  2.8639690363550329e-06  3.0598829094704538e-06  3.2492954890754046e-06  3.4330956587971316e-06  3.6118768420222733e-06  3.7859798001684641e-06  3.9555289289456576e-06  4.1204633480166741e-06  4.2805638681409810e-06  4.4354767400163105e-06  4.5847349348582386e-06  4.7277775734362056e-06  4.8639680037820092e-06  4.9926109247888093e-06  5.1129688607557009e-06  5.2242782085247164e-06  5.3257650026633892e-06  5.4166604741261746e-06  5.4962164134034208e-06  5.5637202901811569e-06  5.6185100282115558e-06  5.6599882869824118e-06  5.6876360616890281e-06  5.7010253809558694e-06  5.6998308588302473e-06  5.6838398448746138e-06  5.6529609147004414e-06  5.6072304537646223e-06  5.5468171100876497e-06  5.4720239266925435e-06  5.3832880114010917e-06  5.2811776589474982e-06  5.1663869063455013e-06  5.0397275746329035e-06  4.9021189255543856e-06  4.7545751370625137e-06  4.5981908731236360e-06  4.4341252875930336e-06  4.2635848554657478e-06  4.0878054646524326e-06  3.9080342252690037e-06  3.7255114598014074e-06  3.5414533259101203e-06  3.3570354945876884e-06  3.1733782613835168e-06  2.9915334098620217e-06  2.8124730774853095e-06  2.6370807983319456e-06  2.4661448183470363e-06  2.3003537010130851e-06  2.1402941680119793e-06  1.9864510537051936e-06  1.8392091965287929e-06  1.6988570463645837e-06  1.5655917354991217e-06  1.4395253420402781e-06  1.3206920680585617e-06  1.2090560591158677e-06  1.1045196056673087e-06  1.0069314882255637e-06  9.1609525519013851e-07  8.3177725290433895e-07  7.5371425997217734e-07  6.8162061051608413e-07  6.1519472251907330e-07  5.5412497660095938e-07  4.9809491675467981e-07  4.4678776722637050e-07  3.9989027862606886e-07  3.5709593148405842e-07  3.1810753697190211e-07  2.8263928266556745e-07  2.5041827640538481e-07  2.2118564391767127e-07  1.9469723633770314e-07  1.7072400253866231e-07  1.4905207862671898e-07  1.2948264347133100e-07  1.1183158501994065e-07  9.5929017666801363e-08  8.1618686327502718e-08  6.8757288288498334e-08  5.7213739487073371e-08  4.6868407726959668e-08  3.7612331511685082e-08  2.9346439718862070e-08  2.1980784260177506e-08  1.5433795174585321e-08  9.6315652791742261e-09  4.5071695116936651e-09  0.0000000000000000e+00  0.0000000000000000e+00  6.2210276416635051e-07  1.1717670665734630e-06  1.6624299270869159e-06  2.1051579260367767e-06  2.5090420216204088e-06  2.8815200763936614e-06  3.2286447506163662e-06  3.5553058911145243e-06  3.8654150932742293e-06  4.1620588815305177e-06  4.4476259186120192e-06  4.7239127851132490e-06  4.9922121421412296e-06  5.2533864782452946e-06  5.5079301283979795e-06  5.7560218211226189e-06  5.9975696460680754e-06  6.2322500266005813e-06  6.4595420202957959e-06  6.6787580460905215e-06  6.8890719431573535e-06  7.0895450973392308e-06  7.2791512213145877e-06  7.4568002405902239e-06  7.6213616158294830e-06  7.7716873206040220e-06  7.9066345908282213e-06  8.0250884670058312e-06  8.1259840627314610e-06  8.2083284129647730e-06  8.2712216842618518e-06  8.3138774676526980e-06  8.3356418247598287e-06  8.3360107208041200e-06  8.3146454561200471e-06  8.2713857023431035e-06  8.2062597618600651e-06  8.1194917002449203e-06  8.0115050513819433e-06  7.8829228631137887e-06  7.7345639359300080e-06  7.5674352058207329e-06  7.3827203313960834e-06  7.1817646602745290e-06  6.9660568654558933e-06  6.7372076533682986e-06  6.4969260458621109e-06  6.2469938232228313e-06  5.9892387795258791e-06  5.7255074815831661e-06  5.4576382358426529e-06  5.1874349529042164e-06  4.9166425574176107e-06  4.6469245242191104e-06  4.3798430332667473e-06  4.1168421310486025e-06  3.8592341702884989e-06  3.6081896790033335e-06  3.3647306903143626e-06  3.1297274515103958e-06  2.9038983295736086e-06  2.6878126445520190e-06  2.4818960944480321e-06  2.2864383870859051e-06  2.1016026659050731e-06  1.9274363068919602e-06  1.7638826711018732e-06  1.6107934189561360e-06  1.4679410258251035e-06  1.3350311802379830e-06  1.2117147933382820e-06  1.0975993980782830e-06  9.9225976660568930e-07  8.9524762225234327e-07  8.0610036686673562e-07  7.2434878378512577e-07  6.4952371079806112e-07  5.8116170571912085e-07  5.1880974960839678e-07  4.6202904961134312e-07  4.1039801520070305e-07  3.6351448893678523e-07  3.2099731633920888e-07  2.8248733976207593e-07  2.4764789893872063e-07  2.1616491672292175e-07  1.8774664305020734e-07  1.6212312375331939e-07  1.3904545399177035e-07  1.1828486902337535e-07  9.9631718111608553e-08  8.2894360718590549e-08  6.7898017915373298e-08  5.4483606237483832e-08  4.2506576073998163e-08  3.1835772121601845e-08  2.2352329456789750e-08  1.3948615358415802e-08  6.5272240492263741e-09  0.0000000000000000e+00  0.0000000000000000e+00  8.4907112268719901e-07  1.5993420060550156e-06  2.2691996146919157e-06  2.8737865326737946e-06  3.4255404563362385e-06  3.9346365226787882e-06  4.4093545170464502e-06  4.8563835357646021e-06  5.2810746711540086e-06  5.6876505873866225e-06  6.0793794290121867e-06  6.4587193071578983e-06  6.8274386048911235e-06  7.1867165018816654e-06  7.5372274127566176e-06  7.8792124408037183e-06  8.2125404497086356e-06  8.5367609344433117e-06  8.8511505143620726e-06  9.1547545652356956e-06  9.4464252424381242e-06  9.7248569164868947e-06  9.9886198377549700e-06  1.0236192663838617e-05  1.0465994316385674e-05  1.0676415480854866e-05  1.0865849920410008e-05  1.1032725642635886e-05  1.1175535834579917e-05  1.1292869368195713e-05  1.1383440575759631e-05  1.1446117905058940e-05  1.1479950989418293e-05  1.1484195610574039e-05  1.1458335995773872e-05  1.1402103876893280e-05  1.1315493751052372e-05  1.1198773820741242e-05  1.1052492157440378e-05  1.0877477725583592e-05  1.0674836021521662e-05  1.0445939221488370e-05  1.0192410888552398e-05  9.9161054548914822e-06  9.6190828650605814e-06  9.3035789300890051e-06  8.9719720927907330e-06  8.6267474334189547e-06  8.2704588443830148e-06  7.9056903672051529e-06  7.5350177101283873e-06  7.1609709489247200e-06  6.7859993570454323e-06  6.4124392172693811e-06  6.0424853406314740e-06  5.6781668666821800e-06  5.3213277503899166e-06  4.9736121642956016e-06  4.6364548689492704e-06  4.3110764387015919e-06  3.9984830809546853e-06  3.6994706608144626e-06  3.4146324437371651e-06  3.1443699983251295e-06  2.8889066601547330e-06  2.6483029440140106e-06  2.4224733034342974e-06  2.2112036691646426e-06  2.0141692478841428e-06  1.8309521243457897e-06  1.6610582797363311e-06  1.5039337120964625e-06  1.3589794174814635e-06  1.2255650601136399e-06  1.1030412237527376e-06  9.9075019326072115e-07  8.8803526389226771e-07  7.9424861580713347e-07  7.0875782275809077e-07  6.3095108731210527e-07  5.6024131103277582e-07  4.9606911767848546e-07  4.3790495162928188e-07  3.8525037344026619e-07  3.3763867058940612e-07  2.9463489503006306e-07  2.5583543086312894e-07  2.2086718599070937e-07  1.8938649156939019e-07  1.6107778290201710e-07  1.3565212544540445e-07  1.1284564012798025e-07  9.2417873346768476e-08  7.4150148961022810e-08  5.7843932379618293e-08  4.3319230467581152e-08  3.0413045458019051e-08  1.8977896308718167e-08  8.8804168512598429e-09  0.0000000000000000e+00  0.0000000000000000e+00  1.1154019161329885e-06  2.1011169521238953e-06  2.9813765957470672e-06  3.7761342883944421e-06  4.5017767515880618e-06  5.1717084520845776e-06  5.7968364979691495e-06  6.3859726703632540e-06  6.9461666164635300e-06  7.4829819686233163e-06  8.0007252571358225e-06  8.5026358940954578e-06  8.9910441734142051e-06  9.4675031161399708e-06  9.9328990552011456e-06  1.0387545069383806e-05  1.0831260717022168e-05  1.1263440963669231e-05  1.1683116726314901e-05  1.2089009053757122e-05  1.2479578615174971e-05  1.2853071865604766e-05  1.3207564988580561e-05  1.3541006475069292e-05  1.3851258977973284e-05  1.4136140878302667e-05  1.4393467809424102e-05  1.4621094207658546e-05  1.4816954790260852e-05  1.4979105705963590e-05  1.5105764960382569e-05  1.5195351591179721e-05  1.5246522959262941e-05  1.5258209436322160e-05  1.5229645709788565e-05  1.5160397897931399e-05  1.5050385673916150e-05  1.4899898641037207e-05  1.4709606283560629e-05  1.4480560938585913e-05  1.4214193392032075e-05  1.3912300892089566e-05  1.3577027589843319e-05  1.3210837650744194e-05  1.2816481521843663e-05  1.2396956076555330e-05  1.1955459578857445e-05  1.1495342600142750e-05  1.1020056173214032e-05  1.0533098569949709e-05  1.0037962135300886e-05  9.5380815971398886e-06  9.0367851992462238e-06  8.5372498772083698e-06  8.0424615214370073e-06  7.5551811578684301e-06  7.0779176373986196e-06  6.6129071728796522e-06  6.1620998110294023e-06  5.7271526884335617e-06  5.3094297068874003e-06  4.9100070822661374e-06  4.5296840788644819e-06  4.1689981407955281e-06  3.8282435739226429e-06  3.5074929137957425e-06  3.2066201330543567e-06  2.9253248901639539e-06  2.6631570937040473e-06  2.4195411459267408e-06  2.1937993293022147e-06  1.9851739041497587e-06  1.7928475889243949e-06  1.6159621929810587e-06  1.4536352614165552e-06  1.3049746706774832e-06  1.1690911807567612e-06  1.0451090045465618e-06  9.3217449750953444e-07  8.2946310202601200e-07  7.3618470168447771e-07  6.5158755273781397e-07  5.7496096438084746e-07  5.0563689785194742e-07  4.4299064799177229e-07  3.8644076105653237e-07  3.3544833038325613e-07  2.8951579787883143e-07  2.4818537502530501e-07  2.1103718277427225e-07  1.7768719581048786e-07  1.4778506353749250e-07  1.2101186800422050e-07  9.7077867988108705e-08  7.5720268640771953e-08  5.6701047493694223e-08  3.9804860177992426e-08  2.4837042868046937e-08  1.1621723032881557e-08  0.0000000000000000e+00  0.0000000000000000e+00  1.4280685119076281e-06  2.6902511851561278e-06  3.8176879960956224e-06  4.8360167945281518e-06  5.7662890588379706e-06  6.6257232642479922e-06  7.4283294475914089e-06  8.1854266298618555e-06  8.9060712695108693e-06  9.5974119805461046e-06  1.0264983285803573e-05  1.0912949112395830e-05  1.1544305009453558e-05  1.2161046623507293e-05  1.2764310757885626e-05  1.3354494329902652e-05  1.3931355689791142e-05  1.4494102049728181e-05  1.5041466165576242e-05  1.5571774897462353e-05  1.6083011830532815e-05  1.6572875749396334e-05  1.7038836416577128e-05  1.7478188796606767e-05  1.7888106585054895e-05  1.8265695639578810e-05  1.8608047663486234e-05  1.8912294258601461e-05  1.9175661242314446e-05  1.9395522914081752e-05  1.9569455761363547e-05  1.9695290917420152e-05  1.9771164528144944e-05  1.9795565057676731e-05  1.9767376468982896e-05  1.9685916162117435e-05  1.9550966545223921e-05  1.9362799156372844e-05  1.9122190351215148e-05  1.8830427723225786e-05  1.8489306628336121e-05  1.8101116439249601e-05  1.7668616448661208e-05  1.7195001663691250e-05  1.6683859071960398e-05  1.6139115296494102e-05  1.5564976874374139e-05  1.4965864674914949e-05  1.4346344200433908e-05  1.3711053672161970e-05  1.3064631884913962e-05  1.2411647810836507e-05  1.1756533844137472e-05  1.1103524409837808e-05  1.0456601420043642e-05  9.8194477651419745e-06  9.1954096920421840e-06  8.5874685663341952e-06  7.9982221595828988e-06  7.4298752653897217e-06  6.8842391444039345e-06  6.3627390418602184e-06  5.8664288201699777e-06  5.3960116080953999e-06  4.9518652875082714e-06  4.5340716154844761e-06  4.1424478073884559e-06  3.7765794774343330e-06  3.4358539375070433e-06  3.1194929829024468e-06  2.8265844355076655e-06  2.5561118620542224e-06  2.3069820299510978e-06  2.0780497998338507e-06  1.8681402778978514e-06  1.6760681593741386e-06  1.5006542855797974e-06  1.3407395104227794e-06  1.1951960285911915e-06  1.0629363581338596e-06  9.4292019643918150e-07  8.3415938271092506e-07  7.3572120399524862e-07  6.4673027767808907e-07  5.6636923306749093e-07  4.9387839993482404e-07  4.2855469421954950e-07  3.6974987177153557e-07  3.1686830104138400e-07  2.6936438583677172e-07  2.2673975024264005e-07  1.8854027997971264e-07  1.5435309812495919e-07  1.2380353839334662e-07  9.6552166140665289e-08  7.2291885877439712e-08  5.0745164315785762e-08  3.1661389699783962e-08  1.4814381152441802e-08  0.0000000000000000e+00  0.0000000000000000e+00  1.7951584421333069e-06  3.3820091302220483e-06  4.7998629903397519e-06  6.0810783190478107e-06  7.2522199922706409e-06  8.3350137376854504e-06  9.3471365991458592e-06  1.0302871214221666e-05  1.1213647058395421e-05  1.2088488051377034e-05  1.2934382773602387e-05  1.3756590907735930e-05  1.4558897318732415e-05  1.5343823346776095e-05  1.6112803350669750e-05  1.6866333254310748e-05  1.7604096772618903e-05  1.8325074088932843e-05  1.9027636992176091e-05  1.9709633832379222e-05  2.0368467094804714e-05  2