<?xml version="1.0"?>
<VTKFile type="UnstructuredGrid"  version="0.1"  >
<UnstructuredGrid>
<Piece  NumberOfPoints="10201" NumberOfCells="20000">
<Points>
<DataArray  type="Float64"  NumberOfComponents="3"  format="ascii">0 0 0  0.01 0 0  0.02 0 0  0.03 0 0  0.04 0 0  0.05 0 0  0.06 0 0  0.07000000000000001 0 0  0.08 0 0  0.09 0 0  0.1 0 0  0.11 0 0  0.12 0 0  0.13 0 0  0.14 0 0  0.15 0 0  0.16 0 0  0.17 0 0  0.18 0 0  0.19 0 0  0.2 0 0  0.21 0 0  0.22 0 0  0.23 0 0  0.24 0 0  0.25 0 0  0.26 0 0  0.27 0 0  0.28 0 0  0.29 0 0  0.3 0 0  0.31 0 0  0.32 0 0  0.33 0 0  0.34 0 0  0.35 0 0  0.36 0 0  0.37 0 0  0.38 0 0  0.39 0 0  0.4 0 0  0.41 0 0  0.42 0 0  0.43 0 0  0.44 0 0  0.45 0 0  0.46 0 0  0.47 0 0  0.48 0 0  0.49 0 0  0.5 0 0  0.51 0 0  0.52 0 0  0.53 0 0  0.54 0 0  0.55 0 0  0.5600000000000001 0 0  0.57 0 0  0.58 0 0  0.59 0 0  0.6 0 0  0.61 0 0  0.62 0 0  0.63 0 0  0.64 0 0  0.65 0 0  0.66 0 0  0.67 0 0  0.68 0 0  0.6899999999999999 0 0  0.7 0 0  0.71 0 0  0.72 0 0  0.73 0 0  0.74 0 0  0.75 0 0  0.76 0 0  0.77 0 0  0.78 0 0  0.79 0 0  0.8 0 0  0.8100000000000001 0 0  0.82 0 0  0.83 0 0  0.84 0 0  0.85 0 0  0.86 0 0  0.87 0 0  0.88 0 0  0.89 0 0  0.9 0 0  0.91 0 0  0.92 0 0  0.93 0 0  0.9399999999999999 0 0  0.95 0 0  0.96 0 0  0.97 0 0  0.98 0 0  0.99 0 0  1 0 0  0 0.01 0  0.01 0.01 0  0.02 0.01 0  0.03 0.01 0  0.04 0.01 0  0.05 0.01 0  0.06 0.01 0  0.07000000000000001 0.01 0  0.08 0.01 0  0.09 0.01 0  0.1 0.01 0  0.11 0.01 0  0.12 0.01 0  0.13 0.01 0  0.14 0.01 0  0.15 0.01 0  0.16 0.01 0  0.17 0.01 0  0.18 0.01 0  0.19 0.01 0  0.2 0.01 0  0.21 0.01 0  0.22 0.01 0  0.23 0.01 0  0.24 0.01 0  0.25 0.01 0  0.26 0.01 0  0.27 0.01 0  0.28 0.01 0  0.29 0.01 0  0.3 0.01 0  0.31 0.01 0  0.32 0.01 0  0.33 0.01 0  0.34 0.01 0  0.35 0.01 0  0.36 0.01 0  0.37 0.01 0  0.38 0.01 0  0.39 0.01 0  0.4 0.01 0  0.41 0.01 0  0.42 0.01 0  0.43 0.01 0  0.44 0.01 0  0.45 0.01 0  0.46 0.01 0  0.47 0.01 0  0.48 0.01 0  0.49 0.01 0  0.5 0.01 0  0.51 0.01 0  0.52 0.01 0  0.53 0.01 0  0.54 0.01 0  0.55 0.01 0  0.5600000000000001 0.01 0  0.57 0.01 0  0.58 0.01 0  0.59 0.01 0  0.6 0.01 0  0.61 0.01 0  0.62 0.01 0  0.63 0.01 0  0.64 0.01 0  0.65 0.01 0  0.66 0.01 0  0.67 0.01 0  0.68 0.01 0  0.6899999999999999 0.01 0  0.7 0.01 0  0.71 0.01 0  0.72 0.01 0  0.73 0.01 0  0.74 0.01 0  0.75 0.01 0  0.76 0.01 0  0.77 0.01 0  0.78 0.01 0  0.79 0.01 0  0.8 0.01 0  0.8100000000000001 0.01 0  0.82 0.01 0  0.83 0.01 0  0.84 0.01 0  0.85 0.01 0  0.86 0.01 0  0.87 0.01 0  0.88 0.01 0  0.89 0.01 0  0.9 0.01 0  0.91 0.01 0  0.92 0.01 0  0.93 0.01 0  0.9399999999999999 0.01 0  0.95 0.01 0  0.96 0.01 0  0.97 0.01 0  0.98 0.01 0  0.99 0.01 0  1 0.01 0  0 0.02 0  0.01 0.02 0  0.02 0.02 0  0.03 0.02 0  0.04 0.02 0  0.05 0.02 0  0.06 0.02 0  0.07000000000000001 0.02 0  0.08 0.02 0  0.09 0.02 0  0.1 0.02 0  0.11 0.02 0  0.12 0.02 0  0.13 0.02 0  0.14 0.02 0  0.15 0.02 0  0.16 0.02 0  0.17 0.02 0  0.18 0.02 0  0.19 0.02 0  0.2 0.02 0  0.21 0.02 0  0.22 0.02 0  0.23 0.02 0  0.24 0.02 0  0.25 0.02 0  0.26 0.02 0  0.27 0.02 0  0.28 0.02 0  0.29 0.02 0  0.3 0.02 0  0.31 0.02 0  0.32 0.02 0  0.33 0.02 0  0.34 0.02 0  0.35 0.02 0  0.36 0.02 0  0.37 0.02 0  0.38 0.02 0  0.39 0.02 0  0.4 0.02 0  0.41 0.02 0  0.42 0.02 0  0.43 0.02 0  0.44 0.02 0  0.45 0.02 0  0.46 0.02 0  0.47 0.02 0  0.48 0.02 0  0.49 0.02 0  0.5 0.02 0  0.51 0.02 0  0.52 0.02 0  0.53 0.02 0  0.54 0.02 0  0.55 0.02 0  0.5600000000000001 0.02 0  0.57 0.02 0  0.58 0.02 0  0.59 0.02 0  0.6 0.02 0  0.61 0.02 0  0.62 0.02 0  0.63 0.02 0  0.64 0.02 0  0.65 0.02 0  0.66 0.02 0  0.67 0.02 0  0.68 0.02 0  0.6899999999999999 0.02 0  0.7 0.02 0  0.71 0.02 0  0.72 0.02 0  0.73 0.02 0  0.74 0.02 0  0.75 0.02 0  0.76 0.02 0  0.77 0.02 0  0.78 0.02 0  0.79 0.02 0  0.8 0.02 0  0.8100000000000001 0.02 0  0.82 0.02 0  0.83 0.02 0  0.84 0.02 0  0.85 0.02 0  0.86 0.02 0  0.87 0.02 0  0.88 0.02 0  0.89 0.02 0  0.9 0.02 0  0.91 0.02 0  0.92 0.02 0  0.93 0.02 0  0.9399999999999999 0.02 0  0.95 0.02 0  0.96 0.02 0  0.97 0.02 0  0.98 0.02 0  0.99 0.02 0  1 0.02 0  0 0.03 0  0.01 0.03 0  0.02 0.03 0  0.03 0.03 0  0.04 0.03 0  0.05 0.03 0  0.06 0.03 0  0.07000000000000001 0.03 0  0.08 0.03 0  0.09 0.03 0  0.1 0.03 0  0.11 0.03 0  0.12 0.03 0  0.13 0.03 0  0.14 0.03 0  0.15 0.03 0  0.16 0.03 0  0.17 0.03 0  0.18 0.03 0  0.19 0.03 0  0.2 0.03 0  0.21 0.03 0  0.22 0.03 0  0.23 0.03 0  0.24 0.03 0  0.25 0.03 0  0.26 0.03 0  0.27 0.03 0  0.28 0.03 0  0.29 0.03 0  0.3 0.03 0  0.31 0.03 0  0.32 0.03 0  0.33 0.03 0  0.34 0.03 0  0.35 0.03 0  0.36 0.03 0  0.37 0.03 0  0.38 0.03 0  0.39 0.03 0  0.4 0.03 0  0.41 0.03 0  0.42 0.03 0  0.43 0.03 0  0.44 0.03 0  0.45 0.03 0  0.46 0.03 0  0.47 0.03 0  0.48 0.03 0  0.49 0.03 0  0.5 0.03 0  0.51 0.03 0  0.52 0.03 0  0.53 0.03 0  0.54 0.03 0  0.55 0.03 0  0.5600000000000001 0.03 0  0.57 0.03 0  0.58 0.03 0  0.59 0.03 0  0.6 0.03 0  0.61 0.03 0  0.62 0.03 0  0.63 0.03 0  0.64 0.03 0  0.65 0.03 0  0.66 0.03 0  0.67 0.03 0  0.68 0.03 0  0.6899999999999999 0.03 0  0.7 0.03 0  0.71 0.03 0  0.72 0.03 0  0.73 0.03 0  0.74 0.03 0  0.75 0.03 0  0.76 0.03 0  0.77 0.03 0  0.78 0.03 0  0.79 0.03 0  0.8 0.03 0  0.8100000000000001 0.03 0  0.82 0.03 0  0.83 0.03 0  0.84 0.03 0  0.85 0.03 0  0.86 0.03 0  0.87 0.03 0  0.88 0.03 0  0.89 0.03 0  0.9 0.03 0  0.91 0.03 0  0.92 0.03 0  0.93 0.03 0  0.9399999999999999 0.03 0  0.95 0.03 0  0.96 0.03 0  0.97 0.03 0  0.98 0.03 0  0.99 0.03 0  1 0.03 0  0 0.04 0  0.01 0.04 0  0.02 0.04 0  0.03 0.04 0  0.04 0.04 0  0.05 0.04 0  0.06 0.04 0  0.07000000000000001 0.04 0  0.08 0.04 0  0.09 0.04 0  0.1 0.04 0  0.11 0.04 0  0.12 0.04 0  0.13 0.04 0  0.14 0.04 0  0.15 0.04 0  0.16 0.04 0  0.17 0.04 0  0.18 0.04 0  0.19 0.04 0  0.2 0.04 0  0.21 0.04 0  0.22 0.04 0  0.23 0.04 0  0.24 0.04 0  0.25 0.04 0  0.26 0.04 0  0.27 0.04 0  0.28 0.04 0  0.29 0.04 0  0.3 0.04 0  0.31 0.04 0  0.32 0.04 0  0.33 0.04 0  0.34 0.04 0  0.35 0.04 0  0.36 0.04 0  0.37 0.04 0  0.38 0.04 0  0.39 0.04 0  0.4 0.04 0  0.41 0.04 0  0.42 0.04 0  0.43 0.04 0  0.44 0.04 0  0.45 0.04 0  0.46 0.04 0  0.47 0.04 0  0.48 0.04 0  0.49 0.04 0  0.5 0.04 0  0.51 0.04 0  0.52 0.04 0  0.53 0.04 0  0.54 0.04 0  0.55 0.04 0  0.5600000000000001 0.04 0  0.57 0.04 0  0.58 0.04 0  0.59 0.04 0  0.6 0.04 0  0.61 0.04 0  0.62 0.04 0  0.63 0.04 0  0.64 0.04 0  0.65 0.04 0  0.66 0.04 0  0.67 0.04 0  0.68 0.04 0  0.6899999999999999 0.04 0  0.7 0.04 0  0.71 0.04 0  0.72 0.04 0  0.73 0.04 0  0.74 0.04 0  0.75 0.04 0  0.76 0.04 0  0.77 0.04 0  0.78 0.04 0  0.79 0.04 0  0.8 0.04 0  0.8100000000000001 0.04 0  0.82 0.04 0  0.83 0.04 0  0.84 0.04 0  0.85 0.04 0  0.86 0.04 0  0.87 0.04 0  0.88 0.04 0  0.89 0.04 0  0.9 0.04 0  0.91 0.04 0  0.92 0.04 0  0.93 0.04 0  0.9399999999999999 0.04 0  0.95 0.04 0  0.96 0.04 0  0.97 0.04 0  0.98 0.04 0  0.99 0.04 0  1 0.04 0  0 0.05 0  0.01 0.05 0  0.02 0.05 0  0.03 0.05 0  0.04 0.05 0  0.05 0.05 0  0.06 0.05 0  0.07000000000000001 0.05 0  0.08 0.05 0  0.09 0.05 0  0.1 0.05 0  0.11 0.05 0  0.12 0.05 0  0.13 0.05 0  0.14 0.05 0  0.15 0.05 0  0.16 0.05 0  0.17 0.05 0  0.18 0.05 0  0.19 0.05 0  0.2 0.05 0  0.21 0.05 0  0.22 0.05 0  0.23 0.05 0  0.24 0.05 0  0.25 0.05 0  0.26 0.05 0  0.27 0.05 0  0.28 0.05 0  0.29 0.05 0  0.3 0.05 0  0.31 0.05 0  0.32 0.05 0  0.33 0.05 0  0.34 0.05 0  0.35 0.05 0  0.36 0.05 0  0.37 0.05 0  0.38 0.05 0  0.39 0.05 0  0.4 0.05 0  0.41 0.05 0  0.42 0.05 0  0.43 0.05 0  0.44 0.05 0  0.45 0.05 0  0.46 0.05 0  0.47 0.05 0  0.48 0.05 0  0.49 0.05 0  0.5 0.05 0  0.51 0.05 0  0.52 0.05 0  0.53 0.05 0  0.54 0.05 0  0.55 0.05 0  0.5600000000000001 0.05 0  0.57 0.05 0  0.58 0.05 0  0.59 0.05 0  0.6 0.05 0  0.61 0.05 0  0.62 0.05 0  0.63 0.05 0  0.64 0.05 0  0.65 0.05 0  0.66 0.05 0  0.67 0.05 0  0.68 0.05 0  0.6899999999999999 0.05 0  0.7 0.05 0  0.71 0.05 0  0.72 0.05 0  0.73 0.05 0  0.74 0.05 0  0.75 0.05 0  0.76 0.05 0  0.77 0.05 0  0.78 0.05 0  0.79 0.05 0  0.8 0.05 0  0.8100000000000001 0.05 0  0.82 0.05 0  0.83 0.05 0  0.84 0.05 0  0.85 0.05 0  0.86 0.05 0  0.87 0.05 0  0.88 0.05 0  0.89 0.05 0  0.9 0.05 0  0.91 0.05 0  0.92 0.05 0  0.93 0.05 0  0.9399999999999999 0.05 0  0.95 0.05 0  0.96 0.05 0  0.97 0.05 0  0.98 0.05 0  0.99 0.05 0  1 0.05 0  0 0.06 0  0.01 0.06 0  0.02 0.06 0  0.03 0.06 0  0.04 0.06 0  0.05 0.06 0  0.06 0.06 0  0.07000000000000001 0.06 0  0.08 0.06 0  0.09 0.06 0  0.1 0.06 0  0.11 0.06 0  0.12 0.06 0  0.13 0.06 0  0.14 0.06 0  0.15 0.06 0  0.16 0.06 0  0.17 0.06 0  0.18 0.06 0  0.19 0.06 0  0.2 0.06 0  0.21 0.06 0  0.22 0.06 0  0.23 0.06 0  0.24 0.06 0  0.25 0.06 0  0.26 0.06 0  0.27 0.06 0  0.28 0.06 0  0.29 0.06 0  0.3 0.06 0  0.31 0.06 0  0.32 0.06 0  0.33 0.06 0  0.34 0.06 0  0.35 0.06 0  0.36 0.06 0  0.37 0.06 0  0.38 0.06 0  0.39 0.06 0  0.4 0.06 0  0.41 0.06 0  0.42 0.06 0  0.43 0.06 0  0.44 0.06 0  0.45 0.06 0  0.46 0.06 0  0.47 0.06 0  0.48 0.06 0  0.49 0.06 0  0.5 0.06 0  0.51 0.06 0  0.52 0.06 0  0.53 0.06 0  0.54 0.06 0  0.55 0.06 0  0.5600000000000001 0.06 0  0.57 0.06 0  0.58 0.06 0  0.59 0.06 0  0.6 0.06 0  0.61 0.06 0  0.62 0.06 0  0.63 0.06 0  0.64 0.06 0  0.65 0.06 0  0.66 0.06 0  0.67 0.06 0  0.68 0.06 0  0.6899999999999999 0.06 0  0.7 0.06 0  0.71 0.06 0  0.72 0.06 0  0.73 0.06 0  0.74 0.06 0  0.75 0.06 0  0.76 0.06 0  0.77 0.06 0  0.78 0.06 0  0.79 0.06 0  0.8 0.06 0  0.8100000000000001 0.06 0  0.82 0.06 0  0.83 0.06 0  0.84 0.06 0  0.85 0.06 0  0.86 0.06 0  0.87 0.06 0  0.88 0.06 0  0.89 0.06 0  0.9 0.06 0  0.91 0.06 0  0.92 0.06 0  0.93 0.06 0  0.9399999999999999 0.06 0  0.95 0.06 0  0.96 0.06 0  0.97 0.06 0  0.98 0.06 0  0.99 0.06 0  1 0.06 0  0 0.07000000000000001 0  0.01 0.07000000000000001 0  0.02 0.07000000000000001 0  0.03 0.07000000000000001 0  0.04 0.07000000000000001 0  0.05 0.07000000000000001 0  0.06 0.07000000000000001 0  0.07000000000000001 0.07000000000000001 0  0.08 0.07000000000000001 0  0.09 0.07000000000000001 0  0.1 0.07000000000000001 0  0.11 0.07000000000000001 0  0.12 0.07000000000000001 0  0.13 0.07000000000000001 0  0.14 0.07000000000000001 0  0.15 0.07000000000000001 0  0.16 0.07000000000000001 0  0.17 0.0700
[...]
<PointData  Scalars="u"> 
<DataArray  type="Float64"  Name="u"  format="ascii">0.0000000000000000e+00  0.0000000000000000e+00  0.0000000000000000e+00  0.0000000000000000e+00  0.0000000000000000e+00  0.0000000000000000e+00  0.0000000000000000e+00  0.0000000000000000e+00  0.0000000000000000e+00  0.0000000000000000e+00  0.0000000000000000e+00  0.0000000000000000e+00  0.0000000000000000e+00  0.0000000000000000e+00  0.0000000000000000e+00  0.0000000000000000e+00  0.0000000000000000e+00  0.0000000000000000e+00  0.0000000000000000e+00  0.0000000000000000e+00  0.0000000000000000e+00  0.0000000000000000e+00  0.0000000000000000e+00  0.0000000000000000e+00  0.0000000000000000e+00  0.0000000000000000e+00  0.0000000000000000e+00  0.0000000000000000e+00  0.0000000000000000e+00  0.0000000000000000e+00  0.0000000000000000e+00  0.0000000000000000e+00  0.0000000000000000e+00  0.0000000000000000e+00  0.0000000000000000e+00  0.0000000000000000e+00  0.0000000000000000e+00  0.0000000000000000e+00  0.0000000000000000e+00  0.0000000000000000e+00  0.0000000000000000e+00  0.0000000000000000e+00  0.0000000000000000e+00  0.0000000000000000e+00  0.0000000000000000e+00  0.0000000000000000e+00  0.0000000000000000e+00  0.0000000000000000e+00  0.0000000000000000e+00  0.0000000000000000e+00  0.0000000000000000e+00  0.0000000000000000e+00  0.0000000000000000e+00  0.0000000000000000e+00  0.0000000000000000e+00  0.0000000000000000e+00  0.0000000000000000e+00  0.0000000000000000e+00  0.0000000000000000e+00  0.0000000000000000e+00  0.0000000000000000e+00  0.0000000000000000e+00  0.0000000000000000e+00  0.0000000000000000e+00  0.0000000000000000e+00  0.0000000000000000e+00  0.0000000000000000e+00  0.0000000000000000e+00  0.0000000000000000e+00  0.0000000000000000e+00  0.0000000000000000e+00  0.0000000000000000e+00  0.0000000000000000e+00  0.0000000000000000e+00  0.0000000000000000e+00  0.0000000000000000e+00  0.0000000000000000e+00  0.0000000000000000e+00  0.0000000000000000e+00  0.0000000000000000e+00  0.0000000000000000e+00  0.0000000000000000e+00  0.0000000000000000e+00  0.0000000000000000e+00  0.0000000000000000e+00  0.0000000000000000e+00  0.0000000000000000e+00  0.0000000000000000e+00  0.0000000000000000e+00  0.0000000000000000e+00  0.0000000000000000e+00  0.0000000000000000e+00  0.0000000000000000e+00  0.0000000000000000e+00  0.0000000000000000e+00  0.0000000000000000e+00  0.0000000000000000e+00  0.0000000000000000e+00  0.0000000000000000e+00  0.0000000000000000e+00  0.0000000000000000e+00  0.0000000000000000e+00  1.8190542744069647e-04  3.3331660705494625e-04  4.5883054051074437e-04  5.6232341958753994e-04  6.4710167636617723e-04  7.1597849033144931e-04  7.7134194324360024e-04  8.1521504316547195e-04  8.4930830218081011e-04  8.7506559173403521e-04  8.9370398016942526e-04  9.0624821976821026e-04  9.1356050468562955e-04  9.1636607085481567e-04  9.1527515689482711e-04  9.1080179330280803e-04  9.0337983712056357e-04  8.9337662179472051e-04  8.8110454770207907e-04  8.6683089812942963e-04  8.5078612852493665e-04  8.3317084357832096e-04  8.1416164704114992e-04  7.9391602300114968e-04  7.7257638436729361e-04  7.5027340437390478e-04  7.2712872972948209e-04  7.0325715937549218e-04  6.7876836044196789e-04  6.5376818265817916e-04  6.2835962397415305e-04  6.0264349325787241e-04  5.7671881044734014e-04  5.5068298025742009e-04  5.2463177227607481e-04  4.9865913784673211e-04  4.7285689234224671e-04  4.4731429011707075e-04  4.2211751841164994e-04  3.9734913562083777e-04  3.7308747848393051e-04  3.4940606178216795e-04  3.2637299293548016e-04  3.0405042239321550e-04  2.8249404886058837e-04  2.6175269617004861e-04  2.4186797600200195e-04  2.2287404771957416e-04  2.0479748337264359e-04  1.8765724253633754e-04  1.7146475818621764e-04  1.5622413139569836e-04  1.4193242939406208e-04  1.2858007856501354e-04  1.1615134140357379e-04  1.0462486437229463e-04  9.3974282071347919e-05  8.4168862198460628e-05  7.5174175432112585e-05  6.6952774604269797e-05  5.9464868290196489e-05  5.2668975163255997e-05  4.6522547055836672e-05  4.0982550536518278e-05  3.6005998856732506e-05  3.1550428237434223e-05  2.7574314564594002e-05  2.4037428559856341e-05  2.0901129322120804e-05  1.8128597746011410e-05  1.5685012679974685e-05  1.3537673772183882e-05  1.1656075763492985e-05  1.0011939533091532e-05  8.5792055041886719e-06  7.3339951014243359e-06  6.2545458510195161e-06  5.3211254635496451e-06  4.5159298724884714e-06  3.8229697526459245e-06  3.2279495418037928e-06  2.7181424630175377e-06  2.2822645167580011e-06  1.9103498994791589e-06  1.5936298221841480e-06  1.3244162589872640e-06  1.0959917578295515e-06  9.0250609664033470e-07  7.3888026907541307e-07  6.0071803326235089e-07  4.8422505203576564e-07  3.8613549022903817e-07  3.0364580935748648e-07  2.3435540783202416e-07  1.7621369097071811e-07  1.2747311487757461e-07  8.6647726837935358e-08  5.2476714263167494e-08  2.3892437616923858e-08  0.0000000000000000e+00  0.0000000000000000e+00  3.5011359489898417e-04  6.4160366202011801e-04  8.8324846047876373e-04  1.0825150029221352e-03  1.2457701686270424e-03  1.3784300995926609e-03  1.4850918459108375e-03  1.5696491393637603e-03  1.6353937640877809e-03  1.6851039460643721e-03  1.7211211283023168e-03  1.7454164232008976e-03  1.7596479437379999e-03  1.7652101171815938e-03  1.7632759840070977e-03  1.7548333843532494e-03  1.7407158373310260e-03  1.7216288266262594e-03  1.6981721202551953e-03  1.6708586736857861e-03  1.6401305940913829e-03  1.6063725792503304e-03  1.5699231873461976e-03  1.5310842433323771e-03  1.4901286431953356e-03  1.4473067789323069e-03  1.4028517738820120e-03  1.3569836897397677e-03  1.3099128426889016e-03  1.2618423461417427e-03  1.2129699811762144e-03  1.1634894824667087e-03  1.1135913169448670e-03  1.0634630242060165e-03  1.0132891814307588e-03  9.6325105095995255e-04  9.1352596529641257e-04  8.6428650187109072e-04  8.1569949808222924e-04  7.6792495558897797e-04  7.2111488133630160e-04  6.7541211105775426e-04  6.3094915883773464e-04  5.8784713355265218e-04  5.4621475954161574e-04  5.0614753463024413e-04  4.6772705365476865e-04  4.3102051997634443e-04  3.9608046126183953e-04  3.6294465921018148e-04  3.3163629613334832e-04  3.0216431459348175e-04  2.7452397989707476e-04  2.4869762939184651e-04  2.2465558741799471e-04  2.0235722061343975e-04  1.8175210519587597e-04  1.6278127592183207e-04  1.4537852567521401e-04  1.2947172502811215e-04  1.1498413255520925e-04  1.0183566903514268e-04  8.9944131768500873e-05  7.9226328891406626e-05  6.9599117564907308e-05  6.0980334075369997e-05  5.3289608004883335e-05  4.6449056560647525e-05  4.0383858754366679e-05  3.5022712294917789e-05  3.0298178731700847e-05  2.6146924526183658e-05  2.2509867328904156e-05  1.9332237817592165e-05  1.6563568048408669e-05  1.4157617440733277e-05  1.2072247320176041e-05  1.0269254452904848e-05  8.7141732857235507e-06  7.3760557263201379e-06  6.2272363168046689e-06  5.2430896237645379e-06  4.4017856339019705e-06  3.6840479415147203e-06  3.0729185697699591e-06  2.5535324011514663e-06  2.1129034158483462e-06  1.7397242564197219e-06  1.4241800541107863e-06  1.1577769641564453e-06  9.3318545887842398e-07  7.4409811098449467e-07  5.8510135663985108e-07  4.5156054945817074e-07  3.3951749334924706e-07  2.4559956530882052e-07  1.6693950080476481e-07  1.0110490999779840e-07  4.6036638305291911e-08  0.0000000000000000e+00  0.0000000000000000e+00  5.0742085858260797e-04  9.2991996716524576e-04  1.2802025241261251e-03  1.5690969910756615e-03  1.8058349882895111e-03  1.9982678547243418e-03  2.1530580269527601e-03  2.2758473128635303e-03  2.3714041803964102e-03  2.4437521423673492e-03  2.4962812373525321e-03  2.5318444942143002e-03  2.5528411348248953e-03  2.5612881251647788e-03  2.5588815365064736e-03  2.5470490312269282e-03  2.5269946457459479e-03  2.4997369087499735e-03  2.4661412078530510e-03  2.4269472030639073e-03  2.3827919812210970e-03  2.3342295518890914e-03  2.2817472017655264e-03  2.2257791509417480e-03  2.1667178897824958e-03  2.1049235190823169e-03  2.0407313678283794e-03  1.9744581216653849e-03  1.9064066603466643e-03  1.8368697734198684e-03  1.7661328995162730e-03  1.6944760152967473e-03  1.6221747847860405e-03  1.5495010679515003e-03  1.4767228784201699e-03  1.4041038736607914e-03  1.3319024562784413e-03  1.2603705617868345e-03  1.1897522058619385e-03  1.1202818621893090e-03  1.0521827401778205e-03  9.8566502964890328e-04  9.2092417680242485e-04  8.5813925205394125e-04  7.9747146555688244e-04  7.3906288027635438e-04  6.8303536536858057e-04  6.2948982443241438e-04  5.7850572411388625e-04  5.3014093881442975e-04  4.8443191719204970e-04  4.4139416610683191e-04  4.0102303802054513e-04  3.6329479898109440e-04  3.2816794654218765e-04  2.9558474057077755e-04  2.6547290509340571e-04  2.3774745625892903e-04  2.1231261019169669e-04  1.8906372492993116e-04  1.6788923266059809e-04  1.4867252187585704e-04  1.3129373363451221e-04  1.1563144152636086e-04  1.0156419090354260e-04  8.8971879159314345e-05  7.7736965019136299e-05  6.7745500712912548e-05  5.8887986315287975e-05  5.1060050316827069e-05  4.4162964517553514e-05  3.8104004560151593e-05  3.2796669832764764e-05  2.8160778099089112e-05  2.4122451115622211e-05  2.0614007754389375e-05  1.7573780860606999e-05  1.4945873341909301e-05  1.2679867912806133e-05  1.0730503604062891e-05  9.0573306821435753e-06  7.6243540879054767e-06  6.3996739628029882e-06  5.3551303381922523e-06  4.4659576593226136e-06  3.7104535287576946e-06  3.0696649022282177e-06  2.5270939622341371e-06  2.0684250326955675e-06  1.6812731774880281e-06  1.3549545384561236e-06  1.0802780032706332e-06  8.4935743733193140e-07  6.5544345309033795e-07  4.9277351086961083e-07  3.5643903430263087e-07  2.4226816858119768e-07  1.4672279956553891e-07  6.6808464237387549e-08  0.0000000000000000e+00  0.0000000000000000e+00  6.5614724412503284e-04  1.2025265471873429e-03  1.6555700013267756e-03  2.0292920625889946e-03  2.3356368469843332e-03  2.5847594583386919e-03  2.7852745155778542e-03  2.9444745944078978e-03  3.0685213407850242e-03  3.1626119804141189e-03  3.2311238431158031e-03  3.2777393710183849e-03  3.3055539026611270e-03  3.3171683340503439e-03  3.3147685620153267e-03  3.3001934218002673e-03  3.2749926445768073e-03  3.2404761847325018e-03  3.1977561034079774e-03  3.1477820449054787e-03  3.0913712066698599e-03  3.0292335814486233e-03  2.9619931415261289e-03  2.8902055389286954e-03  2.8143728114068400e-03  2.7349555109402999e-03  2.6523826085802808e-03  2.5670594757456885e-03  2.4793741967565927e-03  2.3897024295844930e-03  2.2984110007293066e-03  2.2058603950376615e-03  2.1124062814295531e-03  2.0184002001977825e-03  1.9241895261060918e-03  1.8301168132688285e-03  1.7365186220933020e-03  1.6437239247621175e-03  1.5520521832017610e-03  1.4618111916236771e-03  1.3732947739708914e-03  1.2867804244419863e-03  1.2025269762486652e-03  1.1207723795300661e-03  1.0417316636349432e-03  9.6559515164321152e-04  8.9252698600618397e-04  8.2266401364008469e-04  7.5611506693162628e-04  6.9296066423801849e-04  6.3325314000681513e-04  5.7701720108641725e-04  5.2425089266122877e-04  4.7492694503918550e-04  4.2899446172083684e-04  3.8638090019739668e-04  3.4699429007575469e-04  3.1072562861350286e-04  2.7745139164572324e-04  2.4703609815211102e-04  2.1933486918632213e-04  1.9419592630682173e-04  1.7146298066931108e-04  1.5097747117159507e-04  1.3258061806433526e-04  1.1611526683877012e-04  1.0142750558431193e-04  8.8368047029121894e-05  7.6793373849119896e-05  6.6566652337079332e-05  5.7558425016226444e-05  4.9647097183646636e-05  4.2719235662249367e-05  3.6669700264173231e-05  3.1401629704384427e-05  2.6826304063123838e-05  2.2862905512000244e-05  1.9438198032539270e-05  1.6486145409987437e-05  1.3947485014472341e-05  1.1769272909454086e-05  9.9044137612998690e-06  8.3111869537004731e-06  6.9527783082934302e-06  5.7968249324365476e-06  4.8149789945225858e-06  3.9824946901307264e-06  3.2778413201068085e-06  2.6823442559121383e-06  2.1798546121845090e-06  1.7564476697277902e-06  1.4001494786213678e-06  1.1006906031209301e-06  8.4928562883800815e-07  6.3843681967956717e-07  4.6176016927011775e-07  3.1383202227582281e-07  1.9005442946064355e-07  8.6537429239476725e-08  0.0000000000000000e+00  0.0000000000000000e+00  7.9826349458652658e-04  1.4630402593190531e-03  2.0143403213066053e-03  2.4692324777673578e-03  2.8422580691283270e-03  3.1457754451641885e-03  3.3902640307786618e-03  3.5845913999116574e-03  3.7362467904234371e-03  3.8515444369207107e-03  3.9357999605919396e-03  3.9934828638951226e-03  4.0283479547911392e-03  4.0435482859134189e-03  4.0417319501858413e-03  4.0251248342766943e-03  3.9956012007083567e-03  3.9547437522687787e-03  3.9038946309315563e-03  3.8441986189994099e-03  3.7766396430278480e-03  3.7020715310587126e-03  3.6212438401914179e-03  3.5348234536745366e-03  3.4434125434917272e-03  3.3475634047463675e-03  3.2477905909024558e-03  3.1445807130154680e-03  3.0384002104247680e-03  2.9297013539675062e-03  2.8189267046533121e-03  2.7065122199978081e-03  2.5928891759805952e-03  2.4784850540300238e-03  2.3637235287249148e-03  2.2490236822378094e-03  2.1347985651295185e-03  2.0214532191518233e-03  1.9093822754466458e-03  1.7989672401882192e-03  1.6905735785761589e-03  1.5845477064817043e-03  1.4812139963808408e-03  1.3808718999802829e-03  1.2837932837808247e-03  1.1902200654954726e-03  1.1003622286732406e-03  1.0143962801641836e-03  9.3246420045150656e-04  8.5467292077635274e-04  7.8109434392200185e-04  7.1176590813186186e-04  6.4669167658935412e-04  5.8584391887489258e-04  5.2916513648509792e-04  4.7657047241962040e-04  4.2795043545952870e-04  3.8317386337887973e-04  3.4209104608479477e-04  3.0453692954072163e-04  2.7033432410384880e-04  2.3929704627354722e-04  2.1123293036665026e-04  1.8594665579579650e-04  1.6324234587979621e-04  1.4292590490966510e-04  1.2480707101167533e-04  1.0870117272912748e-04  9.4430586805303095e-05  8.1825903099071068e-05  7.0726809704072874e-05  6.0982717066204035e-05  5.2453144179826092e-05  4.5007892839774246e-05  3.8527037539676370e-05  3.2900759084534067e-05  2.8029049500177143e-05  2.3821314559454911e-05  2.0195898390462950e-05  1.7079552362011135e-05  1.4406867915914690e-05  1.2119690373641621e-05  1.0166528102199963e-05  8.5019688728457444e-06  7.0861128551654268e-06  5.8840295061423989e-06  4.8652436682004927e-06  4.0032544955436504e-06  3.2750893853778234e-06  2.6608938911103965e-06  2.1435576226570849e-06  1.7083753741607169e-06  1.3427421386692865e-06  1.0358802484773946e-06  7.7859659490517517e-07  5.6306770932625340e-07  3.8265040697278324e-07  2.3171568725935750e-07  1.0550363033293213e-07  0.0000000000000000e+00  0.0000000000000000e+00  9.3543683553796227e-04  1.7145206888554774e-03  2.3607344774599294e-03  2.8941068034487108e-03  3.3316922001609540e-03  3.6879779279405090e-03  3.9752427248982217e-03  4.2038716426677147e-03  4.3826311072786475e-03  4.5189082568577836e-03  4.6189184290408563e-03  4.6878844328331953e-03  4.7301909663383795e-03  4.7495172514233882e-03  4.7489506623343463e-03  4.7310838370583502e-03  4.6980974844276647e-03  4.6518308408812882e-03  4.5938414909976969e-03  4.5254560466551162e-03  4.4478129812791263e-03  4.3618987377492605e-03  4.2685780703520474e-03  4.1686194415942231e-03  4.0627161724718502e-03  3.9515039386002144e-03  3.8355751131086565e-03  3.7154903790890797e-03  3.5917879684094719e-03  3.4649908286844004e-03  3.3356119750219165e-03  3.2041582467926271e-03  3.0711326610927477e-03  2.9370355328390794e-03  2.8023645156009299e-03  2.6676137064145528e-03  2.5332719510126845e-03  2.3998204822051434e-03  2.2677300226353900e-03  2.1374574828898745e-03  2.0094423860537768e-03  1.8841031494386780e-03  1.7618333525810056e-03  1.6429981170600206e-03  1.5279307176870609e-03  1.4169295358218801e-03  1.3102554538212748e-03  1.2081297749746529e-03  1.1107327359998298e-03  1.0182026597313283e-03  9.3063577468152864e-04  8.4808670647782249e-04  7.7056962464876503e-04  6.9806000774863661e-04  6.3049697123819591e-04  5.6778608665077166e-04  5.0980260799167671e-04  4.5639501248289136e-04  4.0738875789912514e-04  3.6259015785052940e-04  3.2179027924477603e-04  2.8476877241304885e-04  2.5129755346678379e-04  2.2114426971603843e-04  1.9407549172190903e-04  1.6985958906341446e-04  1.4826926049992212e-04  1.2908370230341735e-04  1.1209041062116758e-04  9.7086624425804396e-05  8.3880424656580669e-05  7.2291512412196038e-05  6.2151694490765293e-05  5.3305108247845670e-05  4.5608219794275324e-05  3.8929630170482873e-05  3.3149723534755042e-05  2.8160189826627817e-05  2.3863452049692592e-05  2.0172025484673087e-05  1.7007832996126885e-05  1.4301497309820991e-05  1.1991627857863481e-05  1.0024116629523355e-05  8.3514545124336899e-06  6.9320769198674506e-06  5.7297451099355915e-06  4.7129675272755517e-06  3.8544637368159992e-06  3.1306720603543603e-06  2.5213008492848550e-06  2.0089224046322244e-06  1.5786078592586765e-06  1.2176008362953217e-06  9.1502736249197714e-07  6.6163931678237113e-07  4.4958860669528701e-07  2.7222926485237315e-07  1.2394472234074416e-07  0.0000000000000000e+00  0.0000000000000000e+00  1.0690703327764408e-03  1.9595427999037742e-03  2.6983053626531200e-03  3.3082832674293382e-03  3.8089865608810954e-03  4.2169791592693174e-03  4.5462920775798483e-03  4.8087857159928677e-03  5.0144660901403565e-03  5.1717597626373445e-03  5.2877520057736513e-03  5.3683924338021136e-03  5.4186720148277443e-03  5.4427750271118106e-03  5.4442091774898910e-03  5.4259167611204195e-03  5.3903694191413578e-03  5.3396487486533049e-03  5.2755147404476063e-03  5.1994637652882083e-03  5.1127775995137353e-03  5.0165647746946889e-03  4.9117953530115150e-03  4.7993300685603407e-03  4.6799446334304983e-03  4.5543498845539675e-03  4.4232083414339285e-03  4.2871476544055123e-03  4.1467713466334776e-03  4.0026671892695147e-03  3.8554134968250484e-03  3.7055835876935762e-03  3.5537486217730335e-03  3.4004790022304815e-03  3.2463445105797993e-03  3.0919133323738736e-03  2.9377501239014050e-03  2.7844132672616385e-03  2.6324514609839429e-03  2.4823997948670998e-03  2.3347754598447711e-03  2.1900732453813739e-03  2.0487609771781229e-03  1.9112750459450683e-03  1.7780161729505325e-03  1.6493455494733882e-03  1.5255814748722067e-03  1.4069966017289754e-03  1.2938158766803134e-03  1.1862152426416527e-03  1.0843211429290170e-03  9.8821084125498169e-04  8.9791354482138882e-04  8.1341229191178956e-04  7.3464654163992588e-04  6.6151538287248838e-04  5.9388126267543380e-04  5.3157412256034495e-04  4.7439582368624439e-04  4.2212474007116951e-04  3.7452040157536127e-04  3.3132807547203865e-04  2.9228318615635591e-04  2.5711548614675814e-04  2.2555290711342250e-04  1.9732503631751154e-04  1.7216618069714810e-04  1.4981799711754132e-04  1.3003168236765589e-04  1.1256972983818113e-04  9.7207271117641012e-05  8.3733029811946280e-05  7.1949921684794701e-05  6.1675339808907895e-05  5.2741165982457368e-05  4.4993550440197919e-05  3.8292501155609022e-05  3.2511322087927870e-05  2.7535936874063493e-05  2.3264130980771117e-05  1.9604741469757992e-05  1.6476819505064587e-05  1.3808786727073147e-05  1.1537602770903847e-05  9.6079576218390662e-06  7.9714992463805311e-06  6.5861040552114638e-06  5.4151952602998509e-06  4.4271120801749785e-06  3.5945310082384583e-06  2.8939389619429189e-06  2.3051570424660466e-06  1.8109128183986741e-06  1.3964584652230692e-06  1.0492317080597108e-06  7.5855629349424381e-07  5.1537862541690436e-07  3.1203721134422580e-07  1.4206165335637596e-07  0.0000000000000000e+00  0.0000000000000000e+00  1.2003361058957017e-03  2.2002579610576893e-03  3.0300219951107706e-03  3.7154132902555265e-03  4.2783618328002043e-03  4.7374744507727847e-03  5.1085028683193028e-03  5.4047536043941467e-03  5.6374453984426197e-03  5.8160196664675725e-03  5.9484092059071186e-03  6.0412700157926576e-03  6.1001807092743348e-03  6.1298135909247453e-03  6.1340810673981552e-03  6.1162606684224624e-03  6.0791015834192963e-03  6.0249152721206806e-03  5.9556523880672204e-03  5.8729679629343596e-03  5.7782765372019814e-03  5