<?xml version="1.0"?>
<VTKFile type="UnstructuredGrid"  version="0.1"  >
<UnstructuredGrid>
<Piece  NumberOfPoints="10201" NumberOfCells="20000">
<Points>
<DataArray  type="Float64"  NumberOfComponents="3"  format="ascii">0 0 0  0.01 0 0  0.02 0 0  0.03 0 0  0.04 0 0  0.05 0 0  0.06 0 0  0.07000000000000001 0 0  0.08 0 0  0.09 0 0  0.1 0 0  0.11 0 0  0.12 0 0  0.13 0 0  0.14 0 0  0.15 0 0  0.16 0 0  0.17 0 0  0.18 0 0  0.19 0 0  0.2 0 0  0.21 0 0  0.22 0 0  0.23 0 0  0.24 0 0  0.25 0 0  0.26 0 0  0.27 0 0  0.28 0 0  0.29 0 0  0.3 0 0  0.31 0 0  0.32 0 0  0.33 0 0  0.34 0 0  0.35 0 0  0.36 0 0  0.37 0 0  0.38 0 0  0.39 0 0  0.4 0 0  0.41 0 0  0.42 0 0  0.43 0 0  0.44 0 0  0.45 0 0  0.46 0 0  0.47 0 0  0.48 0 0  0.49 0 0  0.5 0 0  0.51 0 0  0.52 0 0  0.53 0 0  0.54 0 0  0.55 0 0  0.5600000000000001 0 0  0.57 0 0  0.58 0 0  0.59 0 0  0.6 0 0  0.61 0 0  0.62 0 0  0.63 0 0  0.64 0 0  0.65 0 0  0.66 0 0  0.67 0 0  0.68 0 0  0.6899999999999999 0 0  0.7 0 0  0.71 0 0  0.72 0 0  0.73 0 0  0.74 0 0  0.75 0 0  0.76 0 0  0.77 0 0  0.78 0 0  0.79 0 0  0.8 0 0  0.8100000000000001 0 0  0.82 0 0  0.83 0 0  0.84 0 0  0.85 0 0  0.86 0 0  0.87 0 0  0.88 0 0  0.89 0 0  0.9 0 0  0.91 0 0  0.92 0 0  0.93 0 0  0.9399999999999999 0 0  0.95 0 0  0.96 0 0  0.97 0 0  0.98 0 0  0.99 0 0  1 0 0  0 0.01 0  0.01 0.01 0  0.02 0.01 0  0.03 0.01 0  0.04 0.01 0  0.05 0.01 0  0.06 0.01 0  0.07000000000000001 0.01 0  0.08 0.01 0  0.09 0.01 0  0.1 0.01 0  0.11 0.01 0  0.12 0.01 0  0.13 0.01 0  0.14 0.01 0  0.15 0.01 0  0.16 0.01 0  0.17 0.01 0  0.18 0.01 0  0.19 0.01 0  0.2 0.01 0  0.21 0.01 0  0.22 0.01 0  0.23 0.01 0  0.24 0.01 0  0.25 0.01 0  0.26 0.01 0  0.27 0.01 0  0.28 0.01 0  0.29 0.01 0  0.3 0.01 0  0.31 0.01 0  0.32 0.01 0  0.33 0.01 0  0.34 0.01 0  0.35 0.01 0  0.36 0.01 0  0.37 0.01 0  0.38 0.01 0  0.39 0.01 0  0.4 0.01 0  0.41 0.01 0  0.42 0.01 0  0.43 0.01 0  0.44 0.01 0  0.45 0.01 0  0.46 0.01 0  0.47 0.01 0  0.48 0.01 0  0.49 0.01 0  0.5 0.01 0  0.51 0.01 0  0.52 0.01 0  0.53 0.01 0  0.54 0.01 0  0.55 0.01 0  0.5600000000000001 0.01 0  0.57 0.01 0  0.58 0.01 0  0.59 0.01 0  0.6 0.01 0  0.61 0.01 0  0.62 0.01 0  0.63 0.01 0  0.64 0.01 0  0.65 0.01 0  0.66 0.01 0  0.67 0.01 0  0.68 0.01 0  0.6899999999999999 0.01 0  0.7 0.01 0  0.71 0.01 0  0.72 0.01 0  0.73 0.01 0  0.74 0.01 0  0.75 0.01 0  0.76 0.01 0  0.77 0.01 0  0.78 0.01 0  0.79 0.01 0  0.8 0.01 0  0.8100000000000001 0.01 0  0.82 0.01 0  0.83 0.01 0  0.84 0.01 0  0.85 0.01 0  0.86 0.01 0  0.87 0.01 0  0.88 0.01 0  0.89 0.01 0  0.9 0.01 0  0.91 0.01 0  0.92 0.01 0  0.93 0.01 0  0.9399999999999999 0.01 0  0.95 0.01 0  0.96 0.01 0  0.97 0.01 0  0.98 0.01 0  0.99 0.01 0  1 0.01 0  0 0.02 0  0.01 0.02 0  0.02 0.02 0  0.03 0.02 0  0.04 0.02 0  0.05 0.02 0  0.06 0.02 0  0.07000000000000001 0.02 0  0.08 0.02 0  0.09 0.02 0  0.1 0.02 0  0.11 0.02 0  0.12 0.02 0  0.13 0.02 0  0.14 0.02 0  0.15 0.02 0  0.16 0.02 0  0.17 0.02 0  0.18 0.02 0  0.19 0.02 0  0.2 0.02 0  0.21 0.02 0  0.22 0.02 0  0.23 0.02 0  0.24 0.02 0  0.25 0.02 0  0.26 0.02 0  0.27 0.02 0  0.28 0.02 0  0.29 0.02 0  0.3 0.02 0  0.31 0.02 0  0.32 0.02 0  0.33 0.02 0  0.34 0.02 0  0.35 0.02 0  0.36 0.02 0  0.37 0.02 0  0.38 0.02 0  0.39 0.02 0  0.4 0.02 0  0.41 0.02 0  0.42 0.02 0  0.43 0.02 0  0.44 0.02 0  0.45 0.02 0  0.46 0.02 0  0.47 0.02 0  0.48 0.02 0  0.49 0.02 0  0.5 0.02 0  0.51 0.02 0  0.52 0.02 0  0.53 0.02 0  0.54 0.02 0  0.55 0.02 0  0.5600000000000001 0.02 0  0.57 0.02 0  0.58 0.02 0  0.59 0.02 0  0.6 0.02 0  0.61 0.02 0  0.62 0.02 0  0.63 0.02 0  0.64 0.02 0  0.65 0.02 0  0.66 0.02 0  0.67 0.02 0  0.68 0.02 0  0.6899999999999999 0.02 0  0.7 0.02 0  0.71 0.02 0  0.72 0.02 0  0.73 0.02 0  0.74 0.02 0  0.75 0.02 0  0.76 0.02 0  0.77 0.02 0  0.78 0.02 0  0.79 0.02 0  0.8 0.02 0  0.8100000000000001 0.02 0  0.82 0.02 0  0.83 0.02 0  0.84 0.02 0  0.85 0.02 0  0.86 0.02 0  0.87 0.02 0  0.88 0.02 0  0.89 0.02 0  0.9 0.02 0  0.91 0.02 0  0.92 0.02 0  0.93 0.02 0  0.9399999999999999 0.02 0  0.95 0.02 0  0.96 0.02 0  0.97 0.02 0  0.98 0.02 0  0.99 0.02 0  1 0.02 0  0 0.03 0  0.01 0.03 0  0.02 0.03 0  0.03 0.03 0  0.04 0.03 0  0.05 0.03 0  0.06 0.03 0  0.07000000000000001 0.03 0  0.08 0.03 0  0.09 0.03 0  0.1 0.03 0  0.11 0.03 0  0.12 0.03 0  0.13 0.03 0  0.14 0.03 0  0.15 0.03 0  0.16 0.03 0  0.17 0.03 0  0.18 0.03 0  0.19 0.03 0  0.2 0.03 0  0.21 0.03 0  0.22 0.03 0  0.23 0.03 0  0.24 0.03 0  0.25 0.03 0  0.26 0.03 0  0.27 0.03 0  0.28 0.03 0  0.29 0.03 0  0.3 0.03 0  0.31 0.03 0  0.32 0.03 0  0.33 0.03 0  0.34 0.03 0  0.35 0.03 0  0.36 0.03 0  0.37 0.03 0  0.38 0.03 0  0.39 0.03 0  0.4 0.03 0  0.41 0.03 0  0.42 0.03 0  0.43 0.03 0  0.44 0.03 0  0.45 0.03 0  0.46 0.03 0  0.47 0.03 0  0.48 0.03 0  0.49 0.03 0  0.5 0.03 0  0.51 0.03 0  0.52 0.03 0  0.53 0.03 0  0.54 0.03 0  0.55 0.03 0  0.5600000000000001 0.03 0  0.57 0.03 0  0.58 0.03 0  0.59 0.03 0  0.6 0.03 0  0.61 0.03 0  0.62 0.03 0  0.63 0.03 0  0.64 0.03 0  0.65 0.03 0  0.66 0.03 0  0.67 0.03 0  0.68 0.03 0  0.6899999999999999 0.03 0  0.7 0.03 0  0.71 0.03 0  0.72 0.03 0  0.73 0.03 0  0.74 0.03 0  0.75 0.03 0  0.76 0.03 0  0.77 0.03 0  0.78 0.03 0  0.79 0.03 0  0.8 0.03 0  0.8100000000000001 0.03 0  0.82 0.03 0  0.83 0.03 0  0.84 0.03 0  0.85 0.03 0  0.86 0.03 0  0.87 0.03 0  0.88 0.03 0  0.89 0.03 0  0.9 0.03 0  0.91 0.03 0  0.92 0.03 0  0.93 0.03 0  0.9399999999999999 0.03 0  0.95 0.03 0  0.96 0.03 0  0.97 0.03 0  0.98 0.03 0  0.99 0.03 0  1 0.03 0  0 0.04 0  0.01 0.04 0  0.02 0.04 0  0.03 0.04 0  0.04 0.04 0  0.05 0.04 0  0.06 0.04 0  0.07000000000000001 0.04 0  0.08 0.04 0  0.09 0.04 0  0.1 0.04 0  0.11 0.04 0  0.12 0.04 0  0.13 0.04 0  0.14 0.04 0  0.15 0.04 0  0.16 0.04 0  0.17 0.04 0  0.18 0.04 0  0.19 0.04 0  0.2 0.04 0  0.21 0.04 0  0.22 0.04 0  0.23 0.04 0  0.24 0.04 0  0.25 0.04 0  0.26 0.04 0  0.27 0.04 0  0.28 0.04 0  0.29 0.04 0  0.3 0.04 0  0.31 0.04 0  0.32 0.04 0  0.33 0.04 0  0.34 0.04 0  0.35 0.04 0  0.36 0.04 0  0.37 0.04 0  0.38 0.04 0  0.39 0.04 0  0.4 0.04 0  0.41 0.04 0  0.42 0.04 0  0.43 0.04 0  0.44 0.04 0  0.45 0.04 0  0.46 0.04 0  0.47 0.04 0  0.48 0.04 0  0.49 0.04 0  0.5 0.04 0  0.51 0.04 0  0.52 0.04 0  0.53 0.04 0  0.54 0.04 0  0.55 0.04 0  0.5600000000000001 0.04 0  0.57 0.04 0  0.58 0.04 0  0.59 0.04 0  0.6 0.04 0  0.61 0.04 0  0.62 0.04 0  0.63 0.04 0  0.64 0.04 0  0.65 0.04 0  0.66 0.04 0  0.67 0.04 0  0.68 0.04 0  0.6899999999999999 0.04 0  0.7 0.04 0  0.71 0.04 0  0.72 0.04 0  0.73 0.04 0  0.74 0.04 0  0.75 0.04 0  0.76 0.04 0  0.77 0.04 0  0.78 0.04 0  0.79 0.04 0  0.8 0.04 0  0.8100000000000001 0.04 0  0.82 0.04 0  0.83 0.04 0  0.84 0.04 0  0.85 0.04 0  0.86 0.04 0  0.87 0.04 0  0.88 0.04 0  0.89 0.04 0  0.9 0.04 0  0.91 0.04 0  0.92 0.04 0  0.93 0.04 0  0.9399999999999999 0.04 0  0.95 0.04 0  0.96 0.04 0  0.97 0.04 0  0.98 0.04 0  0.99 0.04 0  1 0.04 0  0 0.05 0  0.01 0.05 0  0.02 0.05 0  0.03 0.05 0  0.04 0.05 0  0.05 0.05 0  0.06 0.05 0  0.07000000000000001 0.05 0  0.08 0.05 0  0.09 0.05 0  0.1 0.05 0  0.11 0.05 0  0.12 0.05 0  0.13 0.05 0  0.14 0.05 0  0.15 0.05 0  0.16 0.05 0  0.17 0.05 0  0.18 0.05 0  0.19 0.05 0  0.2 0.05 0  0.21 0.05 0  0.22 0.05 0  0.23 0.05 0  0.24 0.05 0  0.25 0.05 0  0.26 0.05 0  0.27 0.05 0  0.28 0.05 0  0.29 0.05 0  0.3 0.05 0  0.31 0.05 0  0.32 0.05 0  0.33 0.05 0  0.34 0.05 0  0.35 0.05 0  0.36 0.05 0  0.37 0.05 0  0.38 0.05 0  0.39 0.05 0  0.4 0.05 0  0.41 0.05 0  0.42 0.05 0  0.43 0.05 0  0.44 0.05 0  0.45 0.05 0  0.46 0.05 0  0.47 0.05 0  0.48 0.05 0  0.49 0.05 0  0.5 0.05 0  0.51 0.05 0  0.52 0.05 0  0.53 0.05 0  0.54 0.05 0  0.55 0.05 0  0.5600000000000001 0.05 0  0.57 0.05 0  0.58 0.05 0  0.59 0.05 0  0.6 0.05 0  0.61 0.05 0  0.62 0.05 0  0.63 0.05 0  0.64 0.05 0  0.65 0.05 0  0.66 0.05 0  0.67 0.05 0  0.68 0.05 0  0.6899999999999999 0.05 0  0.7 0.05 0  0.71 0.05 0  0.72 0.05 0  0.73 0.05 0  0.74 0.05 0  0.75 0.05 0  0.76 0.05 0  0.77 0.05 0  0.78 0.05 0  0.79 0.05 0  0.8 0.05 0  0.8100000000000001 0.05 0  0.82 0.05 0  0.83 0.05 0  0.84 0.05 0  0.85 0.05 0  0.86 0.05 0  0.87 0.05 0  0.88 0.05 0  0.89 0.05 0  0.9 0.05 0  0.91 0.05 0  0.92 0.05 0  0.93 0.05 0  0.9399999999999999 0.05 0  0.95 0.05 0  0.96 0.05 0  0.97 0.05 0  0.98 0.05 0  0.99 0.05 0  1 0.05 0  0 0.06 0  0.01 0.06 0  0.02 0.06 0  0.03 0.06 0  0.04 0.06 0  0.05 0.06 0  0.06 0.06 0  0.07000000000000001 0.06 0  0.08 0.06 0  0.09 0.06 0  0.1 0.06 0  0.11 0.06 0  0.12 0.06 0  0.13 0.06 0  0.14 0.06 0  0.15 0.06 0  0.16 0.06 0  0.17 0.06 0  0.18 0.06 0  0.19 0.06 0  0.2 0.06 0  0.21 0.06 0  0.22 0.06 0  0.23 0.06 0  0.24 0.06 0  0.25 0.06 0  0.26 0.06 0  0.27 0.06 0  0.28 0.06 0  0.29 0.06 0  0.3 0.06 0  0.31 0.06 0  0.32 0.06 0  0.33 0.06 0  0.34 0.06 0  0.35 0.06 0  0.36 0.06 0  0.37 0.06 0  0.38 0.06 0  0.39 0.06 0  0.4 0.06 0  0.41 0.06 0  0.42 0.06 0  0.43 0.06 0  0.44 0.06 0  0.45 0.06 0  0.46 0.06 0  0.47 0.06 0  0.48 0.06 0  0.49 0.06 0  0.5 0.06 0  0.51 0.06 0  0.52 0.06 0  0.53 0.06 0  0.54 0.06 0  0.55 0.06 0  0.5600000000000001 0.06 0  0.57 0.06 0  0.58 0.06 0  0.59 0.06 0  0.6 0.06 0  0.61 0.06 0  0.62 0.06 0  0.63 0.06 0  0.64 0.06 0  0.65 0.06 0  0.66 0.06 0  0.67 0.06 0  0.68 0.06 0  0.6899999999999999 0.06 0  0.7 0.06 0  0.71 0.06 0  0.72 0.06 0  0.73 0.06 0  0.74 0.06 0  0.75 0.06 0  0.76 0.06 0  0.77 0.06 0  0.78 0.06 0  0.79 0.06 0  0.8 0.06 0  0.8100000000000001 0.06 0  0.82 0.06 0  0.83 0.06 0  0.84 0.06 0  0.85 0.06 0  0.86 0.06 0  0.87 0.06 0  0.88 0.06 0  0.89 0.06 0  0.9 0.06 0  0.91 0.06 0  0.92 0.06 0  0.93 0.06 0  0.9399999999999999 0.06 0  0.95 0.06 0  0.96 0.06 0  0.97 0.06 0  0.98 0.06 0  0.99 0.06 0  1 0.06 0  0 0.07000000000000001 0  0.01 0.07000000000000001 0  0.02 0.07000000000000001 0  0.03 0.07000000000000001 0  0.04 0.07000000000000001 0  0.05 0.07000000000000001 0  0.06 0.07000000000000001 0  0.07000000000000001 0.07000000000000001 0  0.08 0.07000000000000001 0  0.09 0.07000000000000001 0  0.1 0.07000000000000001 0  0.11 0.07000000000000001 0  0.12 0.07000000000000001 0  0.13 0.07000000000000001 0  0.14 0.07000000000000001 0  0.15 0.07000000000000001 0  0.16 0.07000000000000001 0  0.17 0.0700
[...]
<PointData  Scalars="u"> 
<DataArray  type="Float64"  Name="u"  format="ascii">0.0000000000000000e+00  0.0000000000000000e+00  0.0000000000000000e+00  0.0000000000000000e+00  0.0000000000000000e+00  0.0000000000000000e+00  0.0000000000000000e+00  0.0000000000000000e+00  0.0000000000000000e+00  0.0000000000000000e+00  0.0000000000000000e+00  0.0000000000000000e+00  0.0000000000000000e+00  0.0000000000000000e+00  0.0000000000000000e+00  0.0000000000000000e+00  0.0000000000000000e+00  0.0000000000000000e+00  0.0000000000000000e+00  0.0000000000000000e+00  0.0000000000000000e+00  0.0000000000000000e+00  0.0000000000000000e+00  0.0000000000000000e+00  0.0000000000000000e+00  0.0000000000000000e+00  0.0000000000000000e+00  0.0000000000000000e+00  0.0000000000000000e+00  0.0000000000000000e+00  0.0000000000000000e+00  0.0000000000000000e+00  0.0000000000000000e+00  0.0000000000000000e+00  0.0000000000000000e+00  0.0000000000000000e+00  0.0000000000000000e+00  0.0000000000000000e+00  0.0000000000000000e+00  0.0000000000000000e+00  0.0000000000000000e+00  0.0000000000000000e+00  0.0000000000000000e+00  0.0000000000000000e+00  0.0000000000000000e+00  0.0000000000000000e+00  0.0000000000000000e+00  0.0000000000000000e+00  0.0000000000000000e+00  0.0000000000000000e+00  0.0000000000000000e+00  0.0000000000000000e+00  0.0000000000000000e+00  0.0000000000000000e+00  0.0000000000000000e+00  0.0000000000000000e+00  0.0000000000000000e+00  0.0000000000000000e+00  0.0000000000000000e+00  0.0000000000000000e+00  0.0000000000000000e+00  0.0000000000000000e+00  0.0000000000000000e+00  0.0000000000000000e+00  0.0000000000000000e+00  0.0000000000000000e+00  0.0000000000000000e+00  0.0000000000000000e+00  0.0000000000000000e+00  0.0000000000000000e+00  0.0000000000000000e+00  0.0000000000000000e+00  0.0000000000000000e+00  0.0000000000000000e+00  0.0000000000000000e+00  0.0000000000000000e+00  0.0000000000000000e+00  0.0000000000000000e+00  0.0000000000000000e+00  0.0000000000000000e+00  0.0000000000000000e+00  0.0000000000000000e+00  0.0000000000000000e+00  0.0000000000000000e+00  0.0000000000000000e+00  0.0000000000000000e+00  0.0000000000000000e+00  0.0000000000000000e+00  0.0000000000000000e+00  0.0000000000000000e+00  0.0000000000000000e+00  0.0000000000000000e+00  0.0000000000000000e+00  0.0000000000000000e+00  0.0000000000000000e+00  0.0000000000000000e+00  0.0000000000000000e+00  0.0000000000000000e+00  0.0000000000000000e+00  0.0000000000000000e+00  0.0000000000000000e+00  0.0000000000000000e+00  1.0754020305195449e-16  2.4585409477215078e-16  4.3639327252879907e-16  7.0947371250870221e-16  1.1087916056826007e-15  1.6976528972869957e-15  2.5677673189579530e-15  3.8515970554696872e-15  5.7395811040149564e-15  8.5039759470863822e-15  1.2531575102161225e-14  1.8368204742478433e-14  2.6778643529046924e-14  3.8826474245268538e-14  5.5979317251777411e-14  8.0245870150505583e-14  1.1435209885447535e-13  1.6196466303053401e-13  2.2797003144196982e-13  3.1881750913279105e-13  4.4293325827217975e-13  6.1120999599627820e-13  8.3757301309085218e-13  1.1396171003018279e-12  1.5393005802185250e-12  2.0636717466512655e-12  2.7455896681166909e-12  3.6243859140667182e-12  4.7463971507615781e-12  6.1652820920360296e-12  7.9420219045221233e-12  1.0144493308963181e-11  1.2846501130934018e-11  1.6126164912818042e-11  2.0063575139123277e-11  2.4737670658424797e-11  3.0222340747956304e-11  3.6581821903987450e-11  4.3865537581374163e-11  5.2102613070322297e-11  6.1296379534129735e-11  7.1419251241899766e-11  8.2408407721321910e-11  9.4162727940334027e-11  1.0654139873739878e-10  1.1936455013336387e-10  1.3241615624633643e-10  1.4544928819961300e-10  1.5819362609831474e-10  1.7036494697867106e-10  1.8167612376459792e-10  1.9184901660944255e-10  2.0062653062036652e-10  2.0778406656524538e-10  2.1313961108174436e-10  2.1656179993432740e-10  2.1797543411817634e-10  2.1736411950296750e-10  2.1476991684415020e-10  2.1029010867034070e-10  2.0407139153813967e-10  1.9630196818436430e-10  1.8720213094350510e-10  1.7701398835088463e-10  1.6599099048644646e-10  1.5438786057392934e-10  1.4245145050523464e-10  1.3041291913615678e-10  1.1848149837436092e-10  1.0683997670149274e-10  9.5641904403999101e-11  8.5010418207029615e-11  7.5038500772468955e-11  6.5790434998074452e-11  5.7304183776571696e-11  4.9594420159221171e-11  4.2655946535359516e-11  3.6467269525674796e-11  3.0994134689863231e-11  2.6192867129533359e-11  2.2013406594557619e-11  1.8401965643595665e-11  1.5303274586342755e-11  1.2662406062832574e-11  1.0426194682403180e-11  8.5442832467882736e-12  6.9698372419296456e-12  5.6599742839201390e-12  4.5759559383179192e-12  3.6831866804996208e-12  2.9510595078471469e-12  2.3526804690751394e-12  1.8644955597437331e-12  1.4658332549362416e-12  1.1383644281895736e-12  8.6546842087849358e-13  6.3147942230612672e-13  4.2077101560093963e-13  2.1661785657379425e-13  0.0000000000000000e+00  0.0000000000000000e+00  2.1765888600739335e-16  4.9797371625715083e-16  8.8464580292620208e-16  1.4396863013507760e-15  2.2526188240805315e-15  3.4533678577106712e-15  5.2304865877853915e-15  7.8568056281107948e-15  1.1725285217251008e-14  1.7398747382072870e-14  2.5678281295013845e-14  3.7696478851156742e-14  5.5043279212910309e-14  7.9934067824566567e-14  1.1543173692149595e-13  1.6573656617117881e-13  2.3655984478371370e-13  3.3559885552703990e-13  4.7313178601575580e-13  6.6275080214438772e-13  9.2224925700920520e-13  1.2746740412748823e-12  1.7495455560994317e-12  2.3842348576938199e-12  3.2254694573559852e-12  4.3309156282396066e-12  5.7707559380927965e-12  7.6291469032483147e-12  1.0005404927543287e-11  1.3014732006021319e-11  1.6788260260023448e-11  2.1472171652447662e-11  2.7225642547805253e-11  3.4217378824897592e-11  4.2620552228844892e-11  5.2606027200095482e-11  6.4333881372203136e-11  7.7943370101975948e-11  9.3541658616298278e-11  1.1119183201131670e-10  1.3090087562857016e-10  1.5260847447625437e-10  1.7617758672912455e-10  2.0138778040633448e-10  2.2793226614501263e-10  2.5541940264975522e-10  2.8337919590097364e-10  3.1127497210938818e-10  3.3852000380113101e-10  3.6449844495339208e-10  3.8858952813888475e-10  4.1019363900178340e-10  4.2875865141619826e-10  4.4380481052485016e-10  4.5494650598545956e-10  4.6190948241209451e-10  4.6454236912359613e-10  4.6282184291161991e-10  4.5685122118360430e-10  4.4685276948518393e-10  4.3315444968324889e-10  4.1617219298532834e-10  3.9638902719159214e-10  3.7433250599935989e-10  3.5055188022286846e-10  3.2559632986177681e-10  2.9999536542959127e-10  2.7424223629919815e-10  2.4878088448023693e-10  2.2399668390913853e-10  2.0021093303645505e-10  1.7767884072543334e-10  1.5659057340078039e-10  1.3707481906694690e-10  1.1920426916674277e-10  1.0300241549231381e-10  8.8451096660950902e-11  7.5498295755918359e-11  6.4065776284040765e-11  5.4056237307518692e-11  4.5359761873456990e-11  3.7859419166067868e-11  3.1435955745619565e-11  2.5971572378806555e-11  2.1352829522674211e-11  1.7472756981581273e-11  1.4232262966078990e-11  1.1540946594090323e-11  9.3174178188369726e-12  7.4892218035905532e-12  5.9924525936869599e-12  4.7711248868425832e-12  3.7763536556697236e-12  2.9653697563218548e-12  2.3003754754566321e-12  1.7472169413410099e-12  1.2738201206316071e-12  8.4830384382588416e-13  4.3664858457733235e-13  0.0000000000000000e+00  0.0000000000000000e+00  3.4546941671641414e-16  7.9103616608520531e-16  1.4069600285816635e-15  2.2932189704357549e-15  3.5945165146922682e-15  5.5214194402812508e-15  8.3803459981676407e-15  1.2615896929637884e-14  1.8870218293927119e-14  2.8065618193013025e-14  4.1518585763477676e-14  6.1095728348932236e-14  8.9424978315671500e-14  1.3017871220193351e-13  1.8844909647356356e-13  2.7123985740157974e-13  3.8810246929354985e-13  5.5194799820015812e-13  7.8006785217422455e-13  1.0953965607359707e-12  1.5280462716873636e-12  2.1171345192107589e-12  2.9129124285875204e-12  3.9791782982509890e-12  5.3959300446603715e-12  7.2621684034681444e-12  9.6987110174553674e-12  1.2850816887082235e-11  1.6890354156774795e-11  2.2017177049832718e-11  2.8459317496927507e-11  3.6471553457743685e-11  4.6331900732606993e-11  5.8335600615556504e-11  7.2786253725578991e-11  8.9983889683835911e-11  1.1020996682035860e-10  1.3370956224696197e-10  1.6067132761705063e-10  1.9120612668988523e-10  2.2532560464054882e-10  2.6292222552672550e-10  3.0375250946654696e-10  3.4742526292185074e-10  3.9339649059875017e-10  4.4097238758719721e-10  4.8932133774009789e-10  5.3749521488274864e-10  5.8445954669215511e-10  6.2913132605896612e-10  6.7042252269395407e-10  7.0728674199777456e-10  7.3876607287225470e-10  7.6403501535913422e-10  7.8243850865745114e-10  7.9352148348151391e-10  7.9704800087773410e-10  7.9300884627858471e-10  7.8161733817293088e-10  7.6329399373584796e-10  7.3864148233244431e-10  7.0841192058240661e-10  6.7346897129093789e-10  6.3474738167725264e-10  5.9321253962606153e-10  5.4982236926218445e-10  5.0549347540707197e-10  4.6107293656600612e-10  4.1731659621871631e-10  3.7487416584522723e-10  3.3428097403992135e-10  2.9595580518638939e-10  2.6020398567421714e-10  2.2722469980230972e-10  1.9712144479870747e-10  1.6991455034765405e-10  1.4555477341407880e-10  1.2393711289791443e-10  1.0491415022203435e-10  8.8308393215537793e-11  7.3923266927164117e-11  6.1552545558584804e-11  5.0988147701355888e-11  4.2026319124021552e-11  3.4472302947893899e-11  2.8143647727028118e-11  2.2872332630062477e-11  1.8505899238026023e-11  1.4907775218610903e-11  1.1956959861170763e-11  9.5472181658728111e-12  7.5859011625338095e-12  5.9924768696019463e-12  4.6968194605524560e-12  3.6372637276967125e-12  2.7583872481885697e-12  2.0084330761487837e-12  1.3362312455713681e-12  6.8741914098433659e-13  0.0000000000000000e+00  0.0000000000000000e+00  5.0600609869597765e-16  1.1597654878884721e-15  2.0659092534405681e-15  3.3737796235483952e-15  5.3002191809736328e-15  8.1618267306955569e-15  1.2420894749324786e-14  1.8750510323143811e-14  2.8126217142228070e-14  4.1954106410142239e-14  6.2248330236397465e-14  9.1874902296388451e-14  1.3488332668010892e-13  1.9695307684005488e-13  2.8598813330427262e-13  4.1289943207901765e-13  5.9262171389260615e-13  8.4541715400035694e-13  1.1985221968037249e-12  1.6881947101832157e-12  2.3622139586374367e-12  3.2828735966363700e-12  4.5304852074318528e-12  6.2073740536725712e-12  8.4422971062361874e-12  1.1395144275439283e-11  1.5261696704889085e-11  2.0278112827440350e-11  2.6724698472389267e-11  3.4928400246172579e-11  4.5263354469259230e-11  5.8148744063025197e-11  7.4043183232458631e-11  9.3434886562230420e-11  1.1682700623496137e-10  1.4471775494090476e-10  1.7757528040523497e-10  2.1580771509805625e-10  2.5972936995908271e-10  3.0952463389927267e-10  3.6521172379626848e-10  4.2660893115944353e-10  4.9330635336296234e-10  5.6464620447549662e-10  6.3971461370819580e-10  7.1734730610525009e-10  7.9615072521725662e-10  8.7453904874476652e-10  9.5078625536406157e-10  1.0230910488587628e-09  1.0896511799945532e-09  1.1487426753533492e-09  1.1987988153261985e-09  1.2384834927865391e-09  1.2667538696483282e-09  1.2829080113721128e-09  1.2866143428192347e-09  1.2779212087308062e-09  1.2572463844355815e-09  1.2253479039283513e-09  1.1832789022147963e-09  1.1323301864736138e-09  1.0739648793193146e-09  1.0097496896598940e-09  9.4128718244192176e-10  8.7015289806059237e-10  7.9784040345455329e-10  7.2571644194804469e-10  6.5498739005607673e-10  5.8667731775473293e-10  5.2161715567689280e-10  4.6044384602636212e-10  4.0360791689881603e-10  3.5138767316586683e-10  3.0390812436058402e-10  2.6116284204179095e-10  2.2303712016495494e-10  1.8933106465197166e-10  1.5978152758451247e-10  1.3408209731430424e-10  1.1190063499954033e-10  9.2894094441400390e-11  7.6720566115655319e-11  6.3048644237587143e-11  5.1564328340954263e-11  4.1975742148323188e-11  3.4015988334711539e-11  2.7444464848731956e-11  2.2046953441207905e-11  1.7634759996011894e-11  1.4043144133180793e-11  1.1129226034458039e-11  8.7695038156706317e-12  6.8570559783679591e-12  5.2984402651453966e-12  4.0102315114993756e-12  2.9150654836607194e-12  1.9369727466656801e-12  9.9569820076755642e-13  0.0000000000000000e+00  0.0000000000000000e+00  7.1620391484785808e-16  1.6433752219545594e-15  2.9324545084023332e-15  4.7996054804620421e-15  7.5598402810698770e-15  1.1674846920547582e-14  1.7821399085945093e-14  2.6988736730375200e-14  4.0616301053590122e-14  6.0787097780113975e-14  9.0496923108206786e-14  1.3402588170613114e-13  1.9744617854944134e-13  2.8930911212448545e-13  4.2156442065740463e-13  6.1077628553053257e-13  8.7971168716801336e-13  1.2593872882702978e-12  1.7916688503623016e-12  2.5325199346664970e-12  3.5559910871333420e-12  4.9590228865666665e-12  6.8671015482620549e-12  9.4407493335698033e-12  1.2882749204217239e-11  1.7445890489716282e-11  2.3440878574136345e-11  3.1243879142329430e-11  4.1302973827937527e-11  5.4142603078908226e-11  7.0364884941252844e-11  9.0646553915428711e-11  1.1573019697011024e-10  1.4640851259785126e-10  1.8350052078864235e-10  2.2781903699507318e-10  2.8012930685785355e-10  3.4109947358884666e-10  4.1124448058650907e-10  4.9086602973492561e-10  5.7999222090485985e-10  6.7832136528138262e-10  7.8517505664502181e-10  8.9946576857872790e-10  1.0196839167698757e-09  1.1439084278199209e-09  1.2698433994133204e-09  1.3948815077976223e-09  1.5161925788315878e-09  1.6308334111583555e-09  1.7358727827873289e-09  1.8285238454609049e-09  1.9062750386975590e-09  1.9670103912231012e-09  2.0091106803182466e-09  2.0315283418912781e-09  2.0338311172370453e-09  2.0162119573892857e-09  1.9794654055279444e-09  1.9249332552983496e-09  1.8544244799155540e-09  1.7701160455506489e-09  1.6744421455790517e-09  1.5699795909701722e-09  1.4593366203182924e-09  1.3450513712266660e-09  1.2295048469851275e-09  1.1148516008059883e-09  1.0029697205150979e-09  8.9543018064672305e-10  7.9348434967765534e-10  6.9806746750953118e-10  6.0981526937906063e-10  5.2909061718715232e-10  4.5601696957213865e-10  3.9051572152961786e-10  3.3234480828023891e-10  2.8113643174504270e-10  2.3643227312726188e-10  1.9771505386029485e-10  1.6443576400941198e-10  1.3603626896703707e-10  1.1196732003969785e-10  9.1702229610333216e-11  7.4746631197831734e-11  6.0644837716358771e-11  4.8983348813051866e-11  3.9392052321626991e-11  3.1543627028563737e-11  2.5151594058563671e-11  1.9967390189992109e-11  1.5776753987161200e-11  1.2395628155948605e-11  9.6656901837577875e-12  7.4495274160989778e-12  5.6253701795535901e-12  4.0811848551024234e-12  2.7078065989599222e-12  1.3906608527452985e-12  0.0000000000000000e+00  0.0000000000000000e+00  9.9660144614130542e-16  2.2895466622532981e-15  4.0932307063805203e-15  6.7157935127435758e-15  1.0608057464132223e-14  1.6433485640795089e-14  2.5168714012005806e-14  3.8247343518982514e-14  5.7764311163865455e-14  8.6764222481008061e-14  1.2964482136195728e-13  1.9271659126389586e-13  2.8497156593378938e-13  4.1912889619798485e-13  6.1304146538015234e-13  8.9156640050937286e-13  1.2890216841329357e-12  1.8523694839606111e-12  2.6452815702029760e-12  3.7532493905153282e-12  5.2898957946853540e-12  7.4046204583280203e-12  1.0291658978714457e-11  1.4200547949420332e-11  1.9447856821345262e-11  2.6429865392129217e-11  3.5635630218919640e-11  4.7659596882161789e-11  6.3212589082512529e-11  8.3129662232662784e-11  1.0837298348724302e-10  1.4002764023178401e-10  1.7928814465563467e-10  2.2743345993167743e-10  2.8578868980636349e-10  3.5567220264078481e-10  4.3832793306290620e-10  5.3484391090467889e-10  6.4605964917475337e-10  7.7246676420310038e-10  9.1410892892339667e-10  1.0704887561450934e-09  1.2404902309841289e-09  1.4223256277856220e-09  1.6135152719544099e-09  1.8109069428395646e-09  2.0107391805827621e-09  2.2087494141819629e-09  2.4003239597668522e-09  2.5806829444273487e-09  2.7450895491899403e-09  2.8890700899567137e-09  3.0086297527055238e-09  3.1004485237111396e-09  3.1620430882885814e-09  3.1918831039411207e-09  3.1894540004704445e-09  3.1552628993317847e-09  3.0907888811811657e-09  2.9983831635113872e-09  2.8811283417986315e-09  2.7426683766789280e-09  2.5870223044800407e-09  2.4183946941820651e-09  2.2409947977851420e-09  2.0588743793034196e-09  1.8757916618426471e-09  1.6951060237070143e-09  1.5197053028866623e-09  1.3519650813405951e-09  1.1937372911480808e-09  1.0463640107661756e-09  9.1071142486329433e-10  7.8721856830030249e-10  6.7595558290067732e-10  5.7668667835114914e-10  4.8893369098119397e-10  4.1203696646488970e-10  3.4521115962206825e-10  2.8759437173141839e-10  2.3828978058081775e-10  1.9639952959989614e-10  1.6105111694994688e-10  1.3141686493320066e-10  1.0672726627980356e-10  8.6279114733911517e-11  6.9439353630359141e-11  5.5645538675113428e-11  4.4403728955641306e-11  3.5284509333446779e-11  2.7917720176584008e-11  2.1986335379471417e-11  1.7219791532856524e-11  1.3386931244222514e-11  1.0288580331513431e-11  7.7496281456302255e-12  5.6103180252888936e-12  3.7162777791747655e-12  1.9066299010277241e-12  0.0000000000000000e+00  0.0000000000000000e+00  1.3730937465393423e-15  3.1585405918831855e-15  5.6581360243925030e-15  9.3072669314289979e-15  1.4745568774306999e-14  2.2918454645630298e-14  3.5223728749401273e-14  5.3722338691935490e-14  8.1439442239388113e-14  1.2279135587348835e-13  1.8418612402991140e-13  2.7486091734795777e-13  4.0803869318908137e-13  6.0250982060028733e-13  8.8477164396217336e-13  1.2918896430550631e-12  1.8752765119025660e-12  2.7056175062712824e-12  3.8791976031888743e-12  5.5259022108603109e-12  7.8191599189684679e-12  1.0988062234904964e-11  1.5331818356550800e-11  2.1236568246432968e-11  2.9194369981316983e-11  3.9823885135370173e-11  5.3891901787495575e-11  7.2334361047147525e-11  9.6275006244091591e-11  1.2703918920244475e-10  1.6615980254776813e-10  2.1537184149039030e-10  2.7659183489416909e-10  3.5187843956181369e-10  4.4337098040916413e-10  5.5320374163858288e-10  6.8339542822318270e-10  8.3571541522007361e-10  1.0115310890446933e-09  1.2116435627043257e-09  1.4361220176389100e-09  1.6841495072241979e-09  1.9538948267653127e-09  2.2424256018432474e-09  2.5456767448664791e-09  2.8584857065954651e-09  3.1747015452563829e-09  3.4873690338400596e-09  3.7889823463695301e-09  4.0717960147459580e-09  4.3281746387450425e-09  4.5509580593533476e-09  4.7338160314775208e-09  4.8715662749465972e-09  4.9604322457395251e-09  4.9982218163213007e-09  4.9844147405351017e-09  4.9201545325347737e-09  4.8081483254389968e-09  4.6524855232337565e-09  4.4583918820571292e-09  4.2319395414644747e-09  3.9797352329831080e-09  3.7086084602200237e-09  3.4253191513138416e-09  3.1363005853348796e-09  2.8474488382291427e-09  2.5639651424269538e-09  2.2902529111936816e-09  2.0298671406898014e-09  1.7855107320674944e-09  1.5590700971911785e-09  1.3516812251439987e-09  1.1638170953055731e-09  9.9538776371626872e-10  8.4584542686848636e-10  7.1428808047190669e-10  5.9955685667862574e-10  5.0032358954681458e-10  4.1516651123228295e-10  3.4263314575563407e-10  2.8129040409001009e-10  2.2976258406889955e-10  1.8675845352127541e-10  1.5108887190436232e-10  1.2167651914976552e-10  9.7559287484846209e-11  7.7888788020700040e-11  6.1925259979429081e-11  4.9029971799499427e-11  3.8655988784043411e-11  3.0337963774436458e-11  2.3681391851310228e-11  1.8351558256331602e-11  1.4062197105366292e-11  1.0563660295521211e-11  7.6301631896099161e-12  5.0454199604331359e-12  2.5857072120080100e-12  0.0000000000000000e+00  0.0000000000000000e+00  1.8788813660340022e-15  4.3277903711730693e-15  7.7688712121132141e-15  1.2813495818641367e-14  2.0363696722695094e-14  3.1758685255366832e-14  4.8987497063449456e-14  7.4996239119282721e-14  1.1412930407654171e-13  1.7275839516837357e-13  2.6017212429615639e-13  3.8982320728964196e-13  5.8106072602210914e-13  8.6151217761471133e-13  1.2703242348403940e-12  1.8625216212962553e-12  2.7147982848162350e-12  3.9331102735879608e-12  5.6624889614327511e-12  8.0995268484255050e-12  1.1507992521196342e-11  1