<?xml version="1.0"?>
<VTKFile type="UnstructuredGrid"  version="0.1"  >
<UnstructuredGrid>
<Piece  NumberOfPoints="10201" NumberOfCells="20000">
<Points>
<DataArray  type="Float64"  NumberOfComponents="3"  format="ascii">0 0 0  0.01 0 0  0.02 0 0  0.03 0 0  0.04 0 0  0.05 0 0  0.06 0 0  0.07000000000000001 0 0  0.08 0 0  0.09 0 0  0.1 0 0  0.11 0 0  0.12 0 0  0.13 0 0  0.14 0 0  0.15 0 0  0.16 0 0  0.17 0 0  0.18 0 0  0.19 0 0  0.2 0 0  0.21 0 0  0.22 0 0  0.23 0 0  0.24 0 0  0.25 0 0  0.26 0 0  0.27 0 0  0.28 0 0  0.29 0 0  0.3 0 0  0.31 0 0  0.32 0 0  0.33 0 0  0.34 0 0  0.35 0 0  0.36 0 0  0.37 0 0  0.38 0 0  0.39 0 0  0.4 0 0  0.41 0 0  0.42 0 0  0.43 0 0  0.44 0 0  0.45 0 0  0.46 0 0  0.47 0 0  0.48 0 0  0.49 0 0  0.5 0 0  0.51 0 0  0.52 0 0  0.53 0 0  0.54 0 0  0.55 0 0  0.5600000000000001 0 0  0.57 0 0  0.58 0 0  0.59 0 0  0.6 0 0  0.61 0 0  0.62 0 0  0.63 0 0  0.64 0 0  0.65 0 0  0.66 0 0  0.67 0 0  0.68 0 0  0.6899999999999999 0 0  0.7 0 0  0.71 0 0  0.72 0 0  0.73 0 0  0.74 0 0  0.75 0 0  0.76 0 0  0.77 0 0  0.78 0 0  0.79 0 0  0.8 0 0  0.8100000000000001 0 0  0.82 0 0  0.83 0 0  0.84 0 0  0.85 0 0  0.86 0 0  0.87 0 0  0.88 0 0  0.89 0 0  0.9 0 0  0.91 0 0  0.92 0 0  0.93 0 0  0.9399999999999999 0 0  0.95 0 0  0.96 0 0  0.97 0 0  0.98 0 0  0.99 0 0  1 0 0  0 0.01 0  0.01 0.01 0  0.02 0.01 0  0.03 0.01 0  0.04 0.01 0  0.05 0.01 0  0.06 0.01 0  0.07000000000000001 0.01 0  0.08 0.01 0  0.09 0.01 0  0.1 0.01 0  0.11 0.01 0  0.12 0.01 0  0.13 0.01 0  0.14 0.01 0  0.15 0.01 0  0.16 0.01 0  0.17 0.01 0  0.18 0.01 0  0.19 0.01 0  0.2 0.01 0  0.21 0.01 0  0.22 0.01 0  0.23 0.01 0  0.24 0.01 0  0.25 0.01 0  0.26 0.01 0  0.27 0.01 0  0.28 0.01 0  0.29 0.01 0  0.3 0.01 0  0.31 0.01 0  0.32 0.01 0  0.33 0.01 0  0.34 0.01 0  0.35 0.01 0  0.36 0.01 0  0.37 0.01 0  0.38 0.01 0  0.39 0.01 0  0.4 0.01 0  0.41 0.01 0  0.42 0.01 0  0.43 0.01 0  0.44 0.01 0  0.45 0.01 0  0.46 0.01 0  0.47 0.01 0  0.48 0.01 0  0.49 0.01 0  0.5 0.01 0  0.51 0.01 0  0.52 0.01 0  0.53 0.01 0  0.54 0.01 0  0.55 0.01 0  0.5600000000000001 0.01 0  0.57 0.01 0  0.58 0.01 0  0.59 0.01 0  0.6 0.01 0  0.61 0.01 0  0.62 0.01 0  0.63 0.01 0  0.64 0.01 0  0.65 0.01 0  0.66 0.01 0  0.67 0.01 0  0.68 0.01 0  0.6899999999999999 0.01 0  0.7 0.01 0  0.71 0.01 0  0.72 0.01 0  0.73 0.01 0  0.74 0.01 0  0.75 0.01 0  0.76 0.01 0  0.77 0.01 0  0.78 0.01 0  0.79 0.01 0  0.8 0.01 0  0.8100000000000001 0.01 0  0.82 0.01 0  0.83 0.01 0  0.84 0.01 0  0.85 0.01 0  0.86 0.01 0  0.87 0.01 0  0.88 0.01 0  0.89 0.01 0  0.9 0.01 0  0.91 0.01 0  0.92 0.01 0  0.93 0.01 0  0.9399999999999999 0.01 0  0.95 0.01 0  0.96 0.01 0  0.97 0.01 0  0.98 0.01 0  0.99 0.01 0  1 0.01 0  0 0.02 0  0.01 0.02 0  0.02 0.02 0  0.03 0.02 0  0.04 0.02 0  0.05 0.02 0  0.06 0.02 0  0.07000000000000001 0.02 0  0.08 0.02 0  0.09 0.02 0  0.1 0.02 0  0.11 0.02 0  0.12 0.02 0  0.13 0.02 0  0.14 0.02 0  0.15 0.02 0  0.16 0.02 0  0.17 0.02 0  0.18 0.02 0  0.19 0.02 0  0.2 0.02 0  0.21 0.02 0  0.22 0.02 0  0.23 0.02 0  0.24 0.02 0  0.25 0.02 0  0.26 0.02 0  0.27 0.02 0  0.28 0.02 0  0.29 0.02 0  0.3 0.02 0  0.31 0.02 0  0.32 0.02 0  0.33 0.02 0  0.34 0.02 0  0.35 0.02 0  0.36 0.02 0  0.37 0.02 0  0.38 0.02 0  0.39 0.02 0  0.4 0.02 0  0.41 0.02 0  0.42 0.02 0  0.43 0.02 0  0.44 0.02 0  0.45 0.02 0  0.46 0.02 0  0.47 0.02 0  0.48 0.02 0  0.49 0.02 0  0.5 0.02 0  0.51 0.02 0  0.52 0.02 0  0.53 0.02 0  0.54 0.02 0  0.55 0.02 0  0.5600000000000001 0.02 0  0.57 0.02 0  0.58 0.02 0  0.59 0.02 0  0.6 0.02 0  0.61 0.02 0  0.62 0.02 0  0.63 0.02 0  0.64 0.02 0  0.65 0.02 0  0.66 0.02 0  0.67 0.02 0  0.68 0.02 0  0.6899999999999999 0.02 0  0.7 0.02 0  0.71 0.02 0  0.72 0.02 0  0.73 0.02 0  0.74 0.02 0  0.75 0.02 0  0.76 0.02 0  0.77 0.02 0  0.78 0.02 0  0.79 0.02 0  0.8 0.02 0  0.8100000000000001 0.02 0  0.82 0.02 0  0.83 0.02 0  0.84 0.02 0  0.85 0.02 0  0.86 0.02 0  0.87 0.02 0  0.88 0.02 0  0.89 0.02 0  0.9 0.02 0  0.91 0.02 0  0.92 0.02 0  0.93 0.02 0  0.9399999999999999 0.02 0  0.95 0.02 0  0.96 0.02 0  0.97 0.02 0  0.98 0.02 0  0.99 0.02 0  1 0.02 0  0 0.03 0  0.01 0.03 0  0.02 0.03 0  0.03 0.03 0  0.04 0.03 0  0.05 0.03 0  0.06 0.03 0  0.07000000000000001 0.03 0  0.08 0.03 0  0.09 0.03 0  0.1 0.03 0  0.11 0.03 0  0.12 0.03 0  0.13 0.03 0  0.14 0.03 0  0.15 0.03 0  0.16 0.03 0  0.17 0.03 0  0.18 0.03 0  0.19 0.03 0  0.2 0.03 0  0.21 0.03 0  0.22 0.03 0  0.23 0.03 0  0.24 0.03 0  0.25 0.03 0  0.26 0.03 0  0.27 0.03 0  0.28 0.03 0  0.29 0.03 0  0.3 0.03 0  0.31 0.03 0  0.32 0.03 0  0.33 0.03 0  0.34 0.03 0  0.35 0.03 0  0.36 0.03 0  0.37 0.03 0  0.38 0.03 0  0.39 0.03 0  0.4 0.03 0  0.41 0.03 0  0.42 0.03 0  0.43 0.03 0  0.44 0.03 0  0.45 0.03 0  0.46 0.03 0  0.47 0.03 0  0.48 0.03 0  0.49 0.03 0  0.5 0.03 0  0.51 0.03 0  0.52 0.03 0  0.53 0.03 0  0.54 0.03 0  0.55 0.03 0  0.5600000000000001 0.03 0  0.57 0.03 0  0.58 0.03 0  0.59 0.03 0  0.6 0.03 0  0.61 0.03 0  0.62 0.03 0  0.63 0.03 0  0.64 0.03 0  0.65 0.03 0  0.66 0.03 0  0.67 0.03 0  0.68 0.03 0  0.6899999999999999 0.03 0  0.7 0.03 0  0.71 0.03 0  0.72 0.03 0  0.73 0.03 0  0.74 0.03 0  0.75 0.03 0  0.76 0.03 0  0.77 0.03 0  0.78 0.03 0  0.79 0.03 0  0.8 0.03 0  0.8100000000000001 0.03 0  0.82 0.03 0  0.83 0.03 0  0.84 0.03 0  0.85 0.03 0  0.86 0.03 0  0.87 0.03 0  0.88 0.03 0  0.89 0.03 0  0.9 0.03 0  0.91 0.03 0  0.92 0.03 0  0.93 0.03 0  0.9399999999999999 0.03 0  0.95 0.03 0  0.96 0.03 0  0.97 0.03 0  0.98 0.03 0  0.99 0.03 0  1 0.03 0  0 0.04 0  0.01 0.04 0  0.02 0.04 0  0.03 0.04 0  0.04 0.04 0  0.05 0.04 0  0.06 0.04 0  0.07000000000000001 0.04 0  0.08 0.04 0  0.09 0.04 0  0.1 0.04 0  0.11 0.04 0  0.12 0.04 0  0.13 0.04 0  0.14 0.04 0  0.15 0.04 0  0.16 0.04 0  0.17 0.04 0  0.18 0.04 0  0.19 0.04 0  0.2 0.04 0  0.21 0.04 0  0.22 0.04 0  0.23 0.04 0  0.24 0.04 0  0.25 0.04 0  0.26 0.04 0  0.27 0.04 0  0.28 0.04 0  0.29 0.04 0  0.3 0.04 0  0.31 0.04 0  0.32 0.04 0  0.33 0.04 0  0.34 0.04 0  0.35 0.04 0  0.36 0.04 0  0.37 0.04 0  0.38 0.04 0  0.39 0.04 0  0.4 0.04 0  0.41 0.04 0  0.42 0.04 0  0.43 0.04 0  0.44 0.04 0  0.45 0.04 0  0.46 0.04 0  0.47 0.04 0  0.48 0.04 0  0.49 0.04 0  0.5 0.04 0  0.51 0.04 0  0.52 0.04 0  0.53 0.04 0  0.54 0.04 0  0.55 0.04 0  0.5600000000000001 0.04 0  0.57 0.04 0  0.58 0.04 0  0.59 0.04 0  0.6 0.04 0  0.61 0.04 0  0.62 0.04 0  0.63 0.04 0  0.64 0.04 0  0.65 0.04 0  0.66 0.04 0  0.67 0.04 0  0.68 0.04 0  0.6899999999999999 0.04 0  0.7 0.04 0  0.71 0.04 0  0.72 0.04 0  0.73 0.04 0  0.74 0.04 0  0.75 0.04 0  0.76 0.04 0  0.77 0.04 0  0.78 0.04 0  0.79 0.04 0  0.8 0.04 0  0.8100000000000001 0.04 0  0.82 0.04 0  0.83 0.04 0  0.84 0.04 0  0.85 0.04 0  0.86 0.04 0  0.87 0.04 0  0.88 0.04 0  0.89 0.04 0  0.9 0.04 0  0.91 0.04 0  0.92 0.04 0  0.93 0.04 0  0.9399999999999999 0.04 0  0.95 0.04 0  0.96 0.04 0  0.97 0.04 0  0.98 0.04 0  0.99 0.04 0  1 0.04 0  0 0.05 0  0.01 0.05 0  0.02 0.05 0  0.03 0.05 0  0.04 0.05 0  0.05 0.05 0  0.06 0.05 0  0.07000000000000001 0.05 0  0.08 0.05 0  0.09 0.05 0  0.1 0.05 0  0.11 0.05 0  0.12 0.05 0  0.13 0.05 0  0.14 0.05 0  0.15 0.05 0  0.16 0.05 0  0.17 0.05 0  0.18 0.05 0  0.19 0.05 0  0.2 0.05 0  0.21 0.05 0  0.22 0.05 0  0.23 0.05 0  0.24 0.05 0  0.25 0.05 0  0.26 0.05 0  0.27 0.05 0  0.28 0.05 0  0.29 0.05 0  0.3 0.05 0  0.31 0.05 0  0.32 0.05 0  0.33 0.05 0  0.34 0.05 0  0.35 0.05 0  0.36 0.05 0  0.37 0.05 0  0.38 0.05 0  0.39 0.05 0  0.4 0.05 0  0.41 0.05 0  0.42 0.05 0  0.43 0.05 0  0.44 0.05 0  0.45 0.05 0  0.46 0.05 0  0.47 0.05 0  0.48 0.05 0  0.49 0.05 0  0.5 0.05 0  0.51 0.05 0  0.52 0.05 0  0.53 0.05 0  0.54 0.05 0  0.55 0.05 0  0.5600000000000001 0.05 0  0.57 0.05 0  0.58 0.05 0  0.59 0.05 0  0.6 0.05 0  0.61 0.05 0  0.62 0.05 0  0.63 0.05 0  0.64 0.05 0  0.65 0.05 0  0.66 0.05 0  0.67 0.05 0  0.68 0.05 0  0.6899999999999999 0.05 0  0.7 0.05 0  0.71 0.05 0  0.72 0.05 0  0.73 0.05 0  0.74 0.05 0  0.75 0.05 0  0.76 0.05 0  0.77 0.05 0  0.78 0.05 0  0.79 0.05 0  0.8 0.05 0  0.8100000000000001 0.05 0  0.82 0.05 0  0.83 0.05 0  0.84 0.05 0  0.85 0.05 0  0.86 0.05 0  0.87 0.05 0  0.88 0.05 0  0.89 0.05 0  0.9 0.05 0  0.91 0.05 0  0.92 0.05 0  0.93 0.05 0  0.9399999999999999 0.05 0  0.95 0.05 0  0.96 0.05 0  0.97 0.05 0  0.98 0.05 0  0.99 0.05 0  1 0.05 0  0 0.06 0  0.01 0.06 0  0.02 0.06 0  0.03 0.06 0  0.04 0.06 0  0.05 0.06 0  0.06 0.06 0  0.07000000000000001 0.06 0  0.08 0.06 0  0.09 0.06 0  0.1 0.06 0  0.11 0.06 0  0.12 0.06 0  0.13 0.06 0  0.14 0.06 0  0.15 0.06 0  0.16 0.06 0  0.17 0.06 0  0.18 0.06 0  0.19 0.06 0  0.2 0.06 0  0.21 0.06 0  0.22 0.06 0  0.23 0.06 0  0.24 0.06 0  0.25 0.06 0  0.26 0.06 0  0.27 0.06 0  0.28 0.06 0  0.29 0.06 0  0.3 0.06 0  0.31 0.06 0  0.32 0.06 0  0.33 0.06 0  0.34 0.06 0  0.35 0.06 0  0.36 0.06 0  0.37 0.06 0  0.38 0.06 0  0.39 0.06 0  0.4 0.06 0  0.41 0.06 0  0.42 0.06 0  0.43 0.06 0  0.44 0.06 0  0.45 0.06 0  0.46 0.06 0  0.47 0.06 0  0.48 0.06 0  0.49 0.06 0  0.5 0.06 0  0.51 0.06 0  0.52 0.06 0  0.53 0.06 0  0.54 0.06 0  0.55 0.06 0  0.5600000000000001 0.06 0  0.57 0.06 0  0.58 0.06 0  0.59 0.06 0  0.6 0.06 0  0.61 0.06 0  0.62 0.06 0  0.63 0.06 0  0.64 0.06 0  0.65 0.06 0  0.66 0.06 0  0.67 0.06 0  0.68 0.06 0  0.6899999999999999 0.06 0  0.7 0.06 0  0.71 0.06 0  0.72 0.06 0  0.73 0.06 0  0.74 0.06 0  0.75 0.06 0  0.76 0.06 0  0.77 0.06 0  0.78 0.06 0  0.79 0.06 0  0.8 0.06 0  0.8100000000000001 0.06 0  0.82 0.06 0  0.83 0.06 0  0.84 0.06 0  0.85 0.06 0  0.86 0.06 0  0.87 0.06 0  0.88 0.06 0  0.89 0.06 0  0.9 0.06 0  0.91 0.06 0  0.92 0.06 0  0.93 0.06 0  0.9399999999999999 0.06 0  0.95 0.06 0  0.96 0.06 0  0.97 0.06 0  0.98 0.06 0  0.99 0.06 0  1 0.06 0  0 0.07000000000000001 0  0.01 0.07000000000000001 0  0.02 0.07000000000000001 0  0.03 0.07000000000000001 0  0.04 0.07000000000000001 0  0.05 0.07000000000000001 0  0.06 0.07000000000000001 0  0.07000000000000001 0.07000000000000001 0  0.08 0.07000000000000001 0  0.09 0.07000000000000001 0  0.1 0.07000000000000001 0  0.11 0.07000000000000001 0  0.12 0.07000000000000001 0  0.13 0.07000000000000001 0  0.14 0.07000000000000001 0  0.15 0.07000000000000001 0  0.16 0.07000000000000001 0  0.17 0.0700
[...]
<PointData  Scalars="u"> 
<DataArray  type="Float64"  Name="u"  format="ascii">0.0000000000000000e+00  0.0000000000000000e+00  0.0000000000000000e+00  0.0000000000000000e+00  0.0000000000000000e+00  0.0000000000000000e+00  0.0000000000000000e+00  0.0000000000000000e+00  0.0000000000000000e+00  0.0000000000000000e+00  0.0000000000000000e+00  0.0000000000000000e+00  0.0000000000000000e+00  0.0000000000000000e+00  0.0000000000000000e+00  0.0000000000000000e+00  0.0000000000000000e+00  0.0000000000000000e+00  0.0000000000000000e+00  0.0000000000000000e+00  0.0000000000000000e+00  0.0000000000000000e+00  0.0000000000000000e+00  0.0000000000000000e+00  0.0000000000000000e+00  0.0000000000000000e+00  0.0000000000000000e+00  0.0000000000000000e+00  0.0000000000000000e+00  0.0000000000000000e+00  0.0000000000000000e+00  0.0000000000000000e+00  0.0000000000000000e+00  0.0000000000000000e+00  0.0000000000000000e+00  0.0000000000000000e+00  0.0000000000000000e+00  0.0000000000000000e+00  0.0000000000000000e+00  0.0000000000000000e+00  0.0000000000000000e+00  0.0000000000000000e+00  0.0000000000000000e+00  0.0000000000000000e+00  0.0000000000000000e+00  0.0000000000000000e+00  0.0000000000000000e+00  0.0000000000000000e+00  0.0000000000000000e+00  0.0000000000000000e+00  0.0000000000000000e+00  0.0000000000000000e+00  0.0000000000000000e+00  0.0000000000000000e+00  0.0000000000000000e+00  0.0000000000000000e+00  0.0000000000000000e+00  0.0000000000000000e+00  0.0000000000000000e+00  0.0000000000000000e+00  0.0000000000000000e+00  0.0000000000000000e+00  0.0000000000000000e+00  0.0000000000000000e+00  0.0000000000000000e+00  0.0000000000000000e+00  0.0000000000000000e+00  0.0000000000000000e+00  0.0000000000000000e+00  0.0000000000000000e+00  0.0000000000000000e+00  0.0000000000000000e+00  0.0000000000000000e+00  0.0000000000000000e+00  0.0000000000000000e+00  0.0000000000000000e+00  0.0000000000000000e+00  0.0000000000000000e+00  0.0000000000000000e+00  0.0000000000000000e+00  0.0000000000000000e+00  0.0000000000000000e+00  0.0000000000000000e+00  0.0000000000000000e+00  0.0000000000000000e+00  0.0000000000000000e+00  0.0000000000000000e+00  0.0000000000000000e+00  0.0000000000000000e+00  0.0000000000000000e+00  0.0000000000000000e+00  0.0000000000000000e+00  0.0000000000000000e+00  0.0000000000000000e+00  0.0000000000000000e+00  0.0000000000000000e+00  0.0000000000000000e+00  0.0000000000000000e+00  0.0000000000000000e+00  0.0000000000000000e+00  0.0000000000000000e+00  0.0000000000000000e+00  2.2996388671115054e-07  4.2997900621494862e-07  6.0548518366232079e-07  7.6093077304906832e-07  8.9995013533292706e-07  1.0255013814644997e-06  1.1399805987235144e-06  1.2453164899448161e-06  1.3430487763360493e-06  1.4343931696002358e-06  1.5202952564352521e-06  1.6014752500254193e-06  1.6784652376708089e-06  1.7516402811380384e-06  1.8212444980333145e-06  1.8874130611766277e-06  1.9501908924082123e-06  2.0095486922679983e-06  2.0653968331692749e-06  2.1175975473665615e-06  2.1659757591369652e-06  2.2103288406263400e-06  2.2504355106901429e-06  2.2860640441183331e-06  2.3169799135590056e-06  2.3429529472378875e-06  2.3637640514693010e-06  2.3792115174582620e-06  2.3891169066896706e-06  2.3933304881375443e-06  2.3917361835798770e-06  2.3842559645381346e-06  2.3708536358891619e-06  2.3515379371468384e-06  2.3263648928745501e-06  2.2954393486889208e-06  2.2589156387613783e-06  2.2169973443860164e-06  2.1699361206602020e-06  2.1180295890376328e-06  2.0616183166978233e-06  2.0010819283971829e-06  1.9368344216506692e-06  1.8693187805693613e-06  1.7990010062395594e-06  1.7263637009941966e-06  1.6518993592211174e-06  1.5761035275734235e-06  1.4994680019330039e-06  1.4224742268614010e-06  1.3455870555098332e-06  1.2692490143485589e-06  1.1938751982352894e-06  1.1198488981805031e-06  1.0475180378200836e-06  9.7719246636045628e-07  9.0914212697276190e-07  8.4359609161236529e-07  7.8074242725411735e-07  7.2072883560948153e-07  6.6366398934347622e-07  6.0961947318368997e-07  5.5863222837748304e-07  5.1070739370236890e-07  4.6582143542033231e-07  4.2392546173872677e-07  3.8494862389600103e-07  3.4880151523045902e-07  3.1537949077253911e-07  2.8456584229008916e-07  2.5623477662426558e-07  2.3025415797298061e-07  2.0648798700221721e-07  1.8479860089790783e-07  1.6504858843128543e-07  1.4710242262598208e-07  1.3082782061027275e-07  1.1609684571990568e-07  1.0278677095882485e-07  9.0780725648378832e-08  7.9968148654417112e-08  7.0245072148016507e-08  6.1514259607174621e-08  5.3685220877291371e-08  4.6674125739903266e-08  4.0403635737918522e-08  3.4802672098278783e-08  2.9806135585918983e-08  2.5354592102180615e-08  2.1393935873385233e-08  1.7875040210618010e-08  1.4753404094214349e-08  1.1988801267408674e-08  9.5449371240043382e-09  7.3891174474984588e-09  5.4919320009664475e-09  3.8269550739165029e-09  2.3704643731910787e-09  1.1011791615932513e-09  0.0000000000000000e+00  0.0000000000000000e+00  4.9450135274211280e-07  9.2462793189302398e-07  1.3020720711156992e-06  1.6364069016922011e-06  1.9354529235868112e-06  2.2055749917542597e-06  2.4519283318989977e-06  2.6786623085762072e-06  2.8890891993305033e-06  3.0858240286295980e-06  3.2709005139454009e-06  3.4458673378684971e-06  3.6118682580905647e-06  3.7697089793423616e-06  3.9199132192356998e-06  4.0627699876051754e-06  4.1983737530085087e-06  4.3266588792481815e-06  4.4474294696414581e-06  4.5603855493511887e-06  4.6651463397833539e-06  4.7612712283918483e-06  4.8482789077340265e-06  4.9256650456856040e-06  4.9929187515017231e-06  5.0495380177163390e-06  5.0950442440988626e-06  5.1289958859317216e-06  5.1510012140620425e-06  5.1607301281965222e-06  5.1579249277145067e-06  5.1424099160330462e-06  5.1140996955507333e-06  5.0730060007321187e-06  5.0192429172196076e-06  4.9530303450692629e-06  4.8746955841592890e-06  4.7846729490630185e-06  4.6835013583905586e-06  4.5718198885601862e-06  4.4503613325274361e-06  4.3199438581572809e-06  4.1814609163315065e-06  4.0358696029692211e-06  3.8841777292332907e-06  3.7274298976762864e-06  3.5666929165347270e-06  3.4030409077722955e-06  3.2375404752854250e-06  3.0712362970473430e-06  2.9051374887307446e-06  2.7402050571197820e-06  2.5773407207332097e-06  2.4173773245119364e-06  2.2610710176760785e-06  2.1090953017768318e-06  1.9620369925642281e-06  1.8203940775282273e-06  1.6845753935827048e-06  1.5549019986911079e-06  1.4316100691025117e-06  1.3148551215040486e-06  1.2047173374025702e-06  1.1012077554204348e-06  1.0042750953787108e-06  9.1381298504406035e-07  8.2966737489377614e-07  7.5164394665179396e-07  6.7951534601857489e-07  6.1302809732717861e-07  5.5190908628343945e-07  4.9587152514573364e-07  4.4462034155158901e-07  3.9785695683624997e-07  3.5528344149840946e-07  3.1660605407719367e-07  2.8153818495415148e-07  2.4980273850830781e-07  2.2113399579940162e-07  1.9527900580854094e-07  1.7199855657101433e-07  1.5106777867526139e-07  1.3227643296834764e-07  1.1542893228465138e-07  1.0034414395757079e-07  8.6855016103827907e-08  7.4808066463282518e-08  6.4062768165709729e-08  5.4490862366476425e-08  4.5975623390050093e-08  3.8411097950211314e-08  3.1701336251853794e-08  2.5759629366401983e-08  2.0507764233321709e-08  1.5875304978129427e-08  1.1798906943389941e-08  8.2216678839219754e-09  5.0925191472955655e-09  2.3656581945593404e-09  0.0000000000000000e+00  0.0000000000000000e+00  8.0006727559009837e-07  1.4960208318819110e-06  2.1067970106736756e-06  2.6479030799380284e-06  3.1320058187456185e-06  3.5694131502439613e-06  3.9684730980399993e-06  4.3359041413126398e-06  4.6770687516426027e-06  4.9961999502808022e-06  5.2965890958193402e-06  5.5807417484739243e-06  5.8505073156894769e-06  6.1071872284957010e-06  6.3516255984695622e-06  6.5842856355009398e-06  6.8053145449967156e-06  7.0145991513048155e-06  7.2118140965253345e-06  7.3964641275425909e-06  7.5679216982615847e-06  7.7254608697320747e-06  7.8682882807799153e-06  7.9955717800349171e-06  8.1064671521806743e-06  8.2001432332714055e-06  8.2758055894315627e-06  8.3327188283733026e-06  8.3702275228441924e-06  8.3877756488589941e-06  8.3849243793566115e-06  8.3613680260864939e-06  8.3169478896091873e-06  8.2516637599018695e-06  8.1656828087154107e-06  8.0593456298234713e-06  7.9331692145428262e-06  7.7878466967822089e-06  7.6242437631715524e-06  7.4433916976266795e-06  7.2464771133992806e-06  7.0348285159589219e-06  6.8098999330812807e-06  6.5732519399766108e-06  6.3265304926684873e-06  6.0714440576428015e-06  5.8097395858616972e-06  5.5431779210052198e-06  5.2735092525532121e-06  5.0024492224186221e-06  4.7316562688875424e-06  4.4627107444993874e-06  4.1970962773627664e-06  3.9361837615310968e-06  3.6812182656543546e-06  3.4333090450072204e-06  3.1934227352946897e-06  2.9623797024323757e-06  2.7408534254910155e-06  2.5293727042193019e-06  2.3283264111685900e-06  2.1379704535654699e-06  1.9584365727663178e-06  1.7897425893900979e-06  1.6318036991302345e-06  1.4844444360836362e-06  1.3474109449142720e-06  1.2203832376329927e-06  1.1029871524101359e-06  9.9480577786269107e-07  8.9539015408510553e-07  8.0426910904669358e-07  7.2095813397477951e-07  6.4496724252750039e-07  5.7580779491457256e-07  5.1299829903977907e-07  4.5606922597160246e-07  4.0456689666105950e-07  3.5805651112193094e-07  3.1612440074754334e-07  2.7837958965319181e-07  2.4445475255694187e-07  2.1400665541093320e-07  1.8671616141606570e-07  1.6228787979334849e-07  1.4044952827911893e-07  1.2095107321845071e-07  1.0356370373382306e-07  8.8078689050957066e-08  7.4306160906219019e-08  6.2073856211936125e-08  5.1225848933889541e-08  4.1621294509245519e-08  3.3133205135736307e-08  2.5647269896923579e-08  1.9060729934374853e-08  1.3281315698957400e-08  8.2262506594503301e-09  3.8213236113313930e-09  0.0000000000000000e+00  0.0000000000000000e+00  1.1541498542405824e-06  2.1581811946738817e-06  3.0394574296703452e-06  3.8203862386576806e-06  4.5192677851948739e-06  5.1509920075857748e-06  5.7276159887302627e-06  6.2588418575505627e-06  6.7524123255850275e-06  7.2144381396300818e-06  7.6496693648100998e-06  8.0617204309971408e-06  8.4532572175803753e-06  8.8261530648055405e-06  9.1816194398173201e-06  9.5203160145068128e-06  9.8424440984766293e-06  1.0147826687053142e-05  1.0435977808725361e-05  1.0706163369753520e-05  1.0957455280191255e-05  1.1188780292140365e-05  1.1398964676999518e-05  1.1586775605122617e-05  1.1750959861818066e-05  1.1890280332729255e-05  1.2003550515469928e-05  1.2089667160303613e-05  1.2147641009073318e-05  1.2176625487827845e-05  1.2175943114709095e-05  1.2145109311261286e-05  1.2083853253357256e-05  1.1992135368502399e-05  1.1870161080388136e-05  1.1718390419916193e-05  1.1537543164655412e-05  1.1328599235218677e-05  1.1092794165828296e-05  1.0831609574783765e-05  1.0546758684960479e-05  1.0240167080071797e-05  9.9139490234819598e-06  9.5703798063830314e-06  9.2118647242342311e-06  8.8409053975479925e-06  8.4600642488240466e-06  8.0719280159486916e-06  7.6790712192278355e-06  7.2840205015749420e-06  6.8892207282883697e-06  6.4970036654018967e-06  6.1095599568522616e-06  5.7289149955599419e-06  5.3569091383392937e-06  4.9951825567561826e-06  4.6451648535790473e-06  4.3080694152386066e-06  3.9848923220880301e-06  3.6764155065866819e-06  3.3832137397940566e-06  3.1056649421306687e-06  2.8439632569260890e-06  2.5981342948739964e-06  2.3680519527161401e-06  2.1534562276237829e-06  1.9539714862735577e-06  1.7691247003904794e-06  1.5983632241863994e-06  1.4410717593521783e-06  1.2965882260749566e-06  1.1642183304546598e-06  1.0432486868122798e-06  9.3295841551811473e-07  8.3262919160072200e-07  7.4155376564148517e-07  6.5904301599150493e-07  5.8443162030880100e-07  5.1708245531049388e-07  4.5638984723244379e-07  4.0178180271907614e-07  3.5272135174132183e-07  3.0870713168638154e-07  2.6927333596426713e-07  2.3398914223910438e-07  2.0245772552095830e-07  1.7431495053314068e-07  1.4922782656733043e-07  1.2689279690492828e-07  1.0703392416047081e-07  8.9401022838394940e-08  7.3767781151930793e-08  5.9929905827678212e-08  4.7703316251370065e-08  3.6922407896382839e-08  2.7438399481650805e-08  1.9117773672198786e-08  1.1840817292513396e-08  5.5002638257711430e-09  0.0000000000000000e+00  0.0000000000000000e+00  1.5654348044525110e-06  2.9273770651513930e-06  4.1230254310680911e-06  5.1828372619202125e-06  6.1316815582388213e-06  6.9897890958539120e-06  7.7735387534834166e-06  8.4961080337692284e-06  9.1680111722911341e-06  9.7975443592840282e-06  1.0391154357261638e-05  1.0953744085178816e-05  1.1488926471465153e-05  1.1999235982188041e-05  1.2486305645616755e-05  1.2951016068786687e-05  1.3393621831536631e-05  1.3813859711988180e-05  1.4211042413488887e-05  1.4584140800593542e-05  1.4931857088967946e-05  1.5252690953142623e-05  1.5545000102017039e-05  1.5807056512938443e-05  1.6037099201541878e-05  1.6233384129017090e-05  1.6394231605679726e-05  1.6518071335994325e-05  1.6603485063359342e-05  1.6649246612143527e-05  1.6654358989855570e-05  1.6618088104965536e-05  1.6539992577372123e-05  1.6419949070694165e-05  1.6258172560282096e-05  1.6055230969542216e-05  1.5812053660568231e-05  1.5529933352867856e-05  1.5210521164520541e-05  1.4855814620226505e-05  1.4468138645570144e-05  1.4050119759923301e-05  1.3604653883729674e-05  1.3134868380181141e-05  1.2644079146450308e-05  1.2135743745362563e-05  1.1613411714751014e-05  1.1080673299902029e-05  1.0541107917378351e-05  9.9982336713543131e-06  9.4554592044411112e-06  8.9160390748692802e-06  8.3830337149051853e-06  7.8592748483843307e-06  7.3473370374456922e-06  6.8495158008339268e-06  6.3678125102722340e-06  5.9039260392311879e-06  5.4592509209967454e-06  5.0348815798641668e-06  4.6316220381035866e-06  4.2500003772042797e-06  3.8902871474083350e-06  3.5525168748088905e-06  3.2365118081978367e-06  2.9419070744469443e-06  2.6681764661764138e-06  2.4146581626463611e-06  2.1805797777029244e-06  1.9650822308440016e-06  1.7672420431528280e-06  1.5860917638611822e-06  1.4206383314685954e-06  1.2698792624987964e-06  1.1328166389715415e-06  1.0084689312996591e-06  8.9588074620292686e-07  7.9413062965431896e-07  7.0233708365175605e-07  6.1966297391674377e-07  5.4531851486071605e-07  4.7856301983294029e-07  4.1870560027512831e-07  3.6510498838922376e-07  3.1716864558171696e-07  2.7435130442712392e-07  2.3615307616675646e-07  2.0211723962119938e-07  1.7182781147048474e-07  1.4490698261366301e-07  1.2101249109074214e-07  9.9834989049326706e-08  8.1095449583779382e-08  6.4542649007837922e-08  4.9950751225068233e-08  3.7117013275307296e-08  2.5859624770139251e-08  1.6015688679737051e-08  7.4393465926356343e-09  0.0000000000000000e+00  0.0000000000000000e+00  2.0439743909765425e-06  3.8224388970143140e-06  5.3840985262773412e-06  6.7688230705875100e-06  8.0091587986255120e-06  9.1315759150007081e-06  1.0157500325718972e-05  1.1104166669310747e-05  1.1985323471063101e-05  1.2811816159475222e-05  1.3592069400386821e-05  1.4332486622391460e-05  1.5037781614318688e-05  1.5711254575945440e-05  1.6355022915443874e-05  1.6970215342616394e-05  1.7557136347580356e-05  1.8115406931200466e-05  1.8644086424950817e-05  1.9141779369378596e-05  1.9606730683002241e-05  2.0036911723278277e-05  2.0430099298449542e-05  2.0783949217593986e-05  2.1096065553259668e-05  2.1364066426831508e-05  2.1585646803958108e-05  2.1758638501010169e-05  2.1881067350750102e-05  2.1951207255058436e-05  2.1967630665121985e-05  2.1929254876593233e-05  2.1835383411430009e-05  2.1685741682463224e-05  2.1480506104338496e-05  2.1220325828049905e-05  2.0906336337668172e-05  2.0540164257516138e-05  2.0123922874617506e-05  1.9660198081205811e-05  1.9152024679493277e-05  1.8602853257324377e-05  1.8016508127986354e-05  1.7397137117502038e-05  1.6749154263937777e-05  1.6077176750697464e-05  1.5385957614793417e-05  1.4680315938322963e-05  1.3965066335802236e-05  1.3244949583813701e-05  1.2524566198791757e-05  1.1808314654286849e-05  1.1100335745814123e-05  1.0404464368735909e-05  9.7241896854771105e-06  9.0626243383088564e-06  8.4224830300396758e-06  7.8060704645416633e-06  7.2152783284300322e-06  6.6515907186201818e-06  6.1160971891537437e-06  5.6095124123193763e-06  5.1322013276367164e-06  4.6842085879779765e-06  4.2652911019180044e-06  3.8749525095523677e-06  3.5124785077281945e-06  3.1769720508964373e-06  2.8673875861590172e-06  2.5825636263020389e-06  2.3212531141922850e-06  2.0821511785413878e-06  1.8639200187899476e-06  1.6652107813137596e-06  1.4846823973701099e-06  1.3210174436086099e-06  1.1729351581704396e-06  1.0392017999494655e-06  9.1863857676668769e-07  8.1012739178784157e-07  7.1261466855460141e-07  6.2511351567939312e-07  5.4670448472586187e-07  4.7653516108784227e-07  4.1381880961789868e-07  3.5783227593192949e-07  3.0791332206167627e-07  2.6345755251912364e-07  2.2391506471075937e-07  1.8878693661175405e-07  1.5762164510613110e-07  1.3001149068420319e-07  1.0558908839789917e-07  8.4023971140553351e-08  6.5019339395767827e-08  4.8308981490442760e-08  3.3654379953834547e-08  2.0842012669644736e-08  9.6808518340016179e-09  0.0000000000000000e+00  0.0000000000000000e+00  2.6013753129630663e-06  4.8651125672736033e-06  6.8534005733938438e-06  8.6171328601489849e-06  1.0197842710584319e-05  1.1629301001650505e-05  1.2938836842154150e-05  1.4148428635575805e-05  1.5275605302563144e-05  1.6334190786706972e-05  1.7334919438784660e-05  1.8285945256110813e-05  1.9193264098164410e-05  2.0061064782728881e-05  2.0892022282867069e-05  2.1687544004866251e-05  2.2447978255377278e-05  2.3172792438683026e-05  2.3860727208765734e-05  2.4509931690596935e-05  2.5118083943197004e-05  2.5682500032191298e-05  2.6200234385998094e-05  2.6668173506385559e-05  2.7083124574124367e-05  2.7441900020799106e-05  2.7741398718865691e-05  2.7978684067149926e-05  2.8151058914320781e-05  2.8256136967047393e-05  2.8291910073309909e-05  2.8256810557213991e-05  2.8149767613556002e-05  2.7970256653081889e-05  2.7718340427962612e-05  2.7394700766233408e-05  2.7000659807560550e-05  2.6538189762721340e-05  2.6009910415230645e-05  2.5419073842231729e-05  2.4769536146270117e-05  2.4065716349397882e-05  2.3312542992123148e-05  2.2515389384722349e-05  2.1679998857566737e-05  2.0812401729150942e-05  1.9918826034099657e-05  1.9005604308622069e-05  1.8079078900670381e-05  1.7145508343830571e-05  1.6210977300694912e-05  1.5281312442475726e-05  1.4362006392898403e-05  1.3458151538295606e-05  1.2574385110155122e-05  1.1714846503168066e-05  1.0883147325575300e-05  1.0082354214422753e-05  9.3149840100433689e-06  8.5830104925781002e-06  7.8878815552406857e-06  7.2305454357733938e-06  6.6114844550498074e-06  6.0307546205535759e-06  5.4880294381250874e-06  4.9826463295569921e-06  4.5136541650604605e-06  4.0798605753001948e-06  3.6798778939706209e-06  3.3121667854964125e-06  2.9750768212985988e-06  2.6668834718269143e-06  2.3858211719523881e-06  2.1301122882751221e-06  1.8979919645063939e-06  1.6877289433541252e-06  1.4976425599591151e-06  1.3261161739048224e-06  1.1716073561444019e-06  1.0326551764943258e-06  9.0788494963244939e-07  7.9601079592249804e-07  6.9583636090379108e-07  6.0625401675712175e-07  5.2624284300250893e-07  4.5486565426446794e-07  3.9126531194583179e-07  3.3466052550864292e-07  2.8434131885834082e-07  2.3966430885199945e-07  2.0004791672992837e-07  1.6496760961465304e-07  1.3395124827156457e-07  1.0657459908784014e-07  8.2457052608612957e-08  6.1257577811489412e-08  4.2670930398122766e-08  2.6424124506050423e-08  1.2273170024741619e-08  0.0000000000000000e+00  0.0000000000000000e+00  3.2510062651530619e-06  6.0804494054401639e-06  8.5663355006096080e-06  1.0772481851582052e-05  1.2750952291612851e-05  1.4544068507988336e-05  1.6186071117919395e-05  1.7704490854347191e-05  1.9121280176882707e-05  2.0453747222279015e-05  2.1715326990356790e-05  2.2916218803714868e-05  2.4063914194889237e-05  2.5163635303526650e-05  2.6218700473688282e-05  2.7230830913480597e-05  2.8200409919436968e-05  2.9126704195125885e-05  3.0008055138857664e-05  3.0842046581540160e-05  3.1625654274490349e-05  3