<?xml version="1.0"?>
<VTKFile type="UnstructuredGrid"  version="0.1"  >
<UnstructuredGrid>
<Piece  NumberOfPoints="10201" NumberOfCells="20000">
<Points>
<DataArray  type="Float64"  NumberOfComponents="3"  format="ascii">0 0 0  0.01 0 0  0.02 0 0  0.03 0 0  0.04 0 0  0.05 0 0  0.06 0 0  0.07000000000000001 0 0  0.08 0 0  0.09 0 0  0.1 0 0  0.11 0 0  0.12 0 0  0.13 0 0  0.14 0 0  0.15 0 0  0.16 0 0  0.17 0 0  0.18 0 0  0.19 0 0  0.2 0 0  0.21 0 0  0.22 0 0  0.23 0 0  0.24 0 0  0.25 0 0  0.26 0 0  0.27 0 0  0.28 0 0  0.29 0 0  0.3 0 0  0.31 0 0  0.32 0 0  0.33 0 0  0.34 0 0  0.35 0 0  0.36 0 0  0.37 0 0  0.38 0 0  0.39 0 0  0.4 0 0  0.41 0 0  0.42 0 0  0.43 0 0  0.44 0 0  0.45 0 0  0.46 0 0  0.47 0 0  0.48 0 0  0.49 0 0  0.5 0 0  0.51 0 0  0.52 0 0  0.53 0 0  0.54 0 0  0.55 0 0  0.5600000000000001 0 0  0.57 0 0  0.58 0 0  0.59 0 0  0.6 0 0  0.61 0 0  0.62 0 0  0.63 0 0  0.64 0 0  0.65 0 0  0.66 0 0  0.67 0 0  0.68 0 0  0.6899999999999999 0 0  0.7 0 0  0.71 0 0  0.72 0 0  0.73 0 0  0.74 0 0  0.75 0 0  0.76 0 0  0.77 0 0  0.78 0 0  0.79 0 0  0.8 0 0  0.8100000000000001 0 0  0.82 0 0  0.83 0 0  0.84 0 0  0.85 0 0  0.86 0 0  0.87 0 0  0.88 0 0  0.89 0 0  0.9 0 0  0.91 0 0  0.92 0 0  0.93 0 0  0.9399999999999999 0 0  0.95 0 0  0.96 0 0  0.97 0 0  0.98 0 0  0.99 0 0  1 0 0  0 0.01 0  0.01 0.01 0  0.02 0.01 0  0.03 0.01 0  0.04 0.01 0  0.05 0.01 0  0.06 0.01 0  0.07000000000000001 0.01 0  0.08 0.01 0  0.09 0.01 0  0.1 0.01 0  0.11 0.01 0  0.12 0.01 0  0.13 0.01 0  0.14 0.01 0  0.15 0.01 0  0.16 0.01 0  0.17 0.01 0  0.18 0.01 0  0.19 0.01 0  0.2 0.01 0  0.21 0.01 0  0.22 0.01 0  0.23 0.01 0  0.24 0.01 0  0.25 0.01 0  0.26 0.01 0  0.27 0.01 0  0.28 0.01 0  0.29 0.01 0  0.3 0.01 0  0.31 0.01 0  0.32 0.01 0  0.33 0.01 0  0.34 0.01 0  0.35 0.01 0  0.36 0.01 0  0.37 0.01 0  0.38 0.01 0  0.39 0.01 0  0.4 0.01 0  0.41 0.01 0  0.42 0.01 0  0.43 0.01 0  0.44 0.01 0  0.45 0.01 0  0.46 0.01 0  0.47 0.01 0  0.48 0.01 0  0.49 0.01 0  0.5 0.01 0  0.51 0.01 0  0.52 0.01 0  0.53 0.01 0  0.54 0.01 0  0.55 0.01 0  0.5600000000000001 0.01 0  0.57 0.01 0  0.58 0.01 0  0.59 0.01 0  0.6 0.01 0  0.61 0.01 0  0.62 0.01 0  0.63 0.01 0  0.64 0.01 0  0.65 0.01 0  0.66 0.01 0  0.67 0.01 0  0.68 0.01 0  0.6899999999999999 0.01 0  0.7 0.01 0  0.71 0.01 0  0.72 0.01 0  0.73 0.01 0  0.74 0.01 0  0.75 0.01 0  0.76 0.01 0  0.77 0.01 0  0.78 0.01 0  0.79 0.01 0  0.8 0.01 0  0.8100000000000001 0.01 0  0.82 0.01 0  0.83 0.01 0  0.84 0.01 0  0.85 0.01 0  0.86 0.01 0  0.87 0.01 0  0.88 0.01 0  0.89 0.01 0  0.9 0.01 0  0.91 0.01 0  0.92 0.01 0  0.93 0.01 0  0.9399999999999999 0.01 0  0.95 0.01 0  0.96 0.01 0  0.97 0.01 0  0.98 0.01 0  0.99 0.01 0  1 0.01 0  0 0.02 0  0.01 0.02 0  0.02 0.02 0  0.03 0.02 0  0.04 0.02 0  0.05 0.02 0  0.06 0.02 0  0.07000000000000001 0.02 0  0.08 0.02 0  0.09 0.02 0  0.1 0.02 0  0.11 0.02 0  0.12 0.02 0  0.13 0.02 0  0.14 0.02 0  0.15 0.02 0  0.16 0.02 0  0.17 0.02 0  0.18 0.02 0  0.19 0.02 0  0.2 0.02 0  0.21 0.02 0  0.22 0.02 0  0.23 0.02 0  0.24 0.02 0  0.25 0.02 0  0.26 0.02 0  0.27 0.02 0  0.28 0.02 0  0.29 0.02 0  0.3 0.02 0  0.31 0.02 0  0.32 0.02 0  0.33 0.02 0  0.34 0.02 0  0.35 0.02 0  0.36 0.02 0  0.37 0.02 0  0.38 0.02 0  0.39 0.02 0  0.4 0.02 0  0.41 0.02 0  0.42 0.02 0  0.43 0.02 0  0.44 0.02 0  0.45 0.02 0  0.46 0.02 0  0.47 0.02 0  0.48 0.02 0  0.49 0.02 0  0.5 0.02 0  0.51 0.02 0  0.52 0.02 0  0.53 0.02 0  0.54 0.02 0  0.55 0.02 0  0.5600000000000001 0.02 0  0.57 0.02 0  0.58 0.02 0  0.59 0.02 0  0.6 0.02 0  0.61 0.02 0  0.62 0.02 0  0.63 0.02 0  0.64 0.02 0  0.65 0.02 0  0.66 0.02 0  0.67 0.02 0  0.68 0.02 0  0.6899999999999999 0.02 0  0.7 0.02 0  0.71 0.02 0  0.72 0.02 0  0.73 0.02 0  0.74 0.02 0  0.75 0.02 0  0.76 0.02 0  0.77 0.02 0  0.78 0.02 0  0.79 0.02 0  0.8 0.02 0  0.8100000000000001 0.02 0  0.82 0.02 0  0.83 0.02 0  0.84 0.02 0  0.85 0.02 0  0.86 0.02 0  0.87 0.02 0  0.88 0.02 0  0.89 0.02 0  0.9 0.02 0  0.91 0.02 0  0.92 0.02 0  0.93 0.02 0  0.9399999999999999 0.02 0  0.95 0.02 0  0.96 0.02 0  0.97 0.02 0  0.98 0.02 0  0.99 0.02 0  1 0.02 0  0 0.03 0  0.01 0.03 0  0.02 0.03 0  0.03 0.03 0  0.04 0.03 0  0.05 0.03 0  0.06 0.03 0  0.07000000000000001 0.03 0  0.08 0.03 0  0.09 0.03 0  0.1 0.03 0  0.11 0.03 0  0.12 0.03 0  0.13 0.03 0  0.14 0.03 0  0.15 0.03 0  0.16 0.03 0  0.17 0.03 0  0.18 0.03 0  0.19 0.03 0  0.2 0.03 0  0.21 0.03 0  0.22 0.03 0  0.23 0.03 0  0.24 0.03 0  0.25 0.03 0  0.26 0.03 0  0.27 0.03 0  0.28 0.03 0  0.29 0.03 0  0.3 0.03 0  0.31 0.03 0  0.32 0.03 0  0.33 0.03 0  0.34 0.03 0  0.35 0.03 0  0.36 0.03 0  0.37 0.03 0  0.38 0.03 0  0.39 0.03 0  0.4 0.03 0  0.41 0.03 0  0.42 0.03 0  0.43 0.03 0  0.44 0.03 0  0.45 0.03 0  0.46 0.03 0  0.47 0.03 0  0.48 0.03 0  0.49 0.03 0  0.5 0.03 0  0.51 0.03 0  0.52 0.03 0  0.53 0.03 0  0.54 0.03 0  0.55 0.03 0  0.5600000000000001 0.03 0  0.57 0.03 0  0.58 0.03 0  0.59 0.03 0  0.6 0.03 0  0.61 0.03 0  0.62 0.03 0  0.63 0.03 0  0.64 0.03 0  0.65 0.03 0  0.66 0.03 0  0.67 0.03 0  0.68 0.03 0  0.6899999999999999 0.03 0  0.7 0.03 0  0.71 0.03 0  0.72 0.03 0  0.73 0.03 0  0.74 0.03 0  0.75 0.03 0  0.76 0.03 0  0.77 0.03 0  0.78 0.03 0  0.79 0.03 0  0.8 0.03 0  0.8100000000000001 0.03 0  0.82 0.03 0  0.83 0.03 0  0.84 0.03 0  0.85 0.03 0  0.86 0.03 0  0.87 0.03 0  0.88 0.03 0  0.89 0.03 0  0.9 0.03 0  0.91 0.03 0  0.92 0.03 0  0.93 0.03 0  0.9399999999999999 0.03 0  0.95 0.03 0  0.96 0.03 0  0.97 0.03 0  0.98 0.03 0  0.99 0.03 0  1 0.03 0  0 0.04 0  0.01 0.04 0  0.02 0.04 0  0.03 0.04 0  0.04 0.04 0  0.05 0.04 0  0.06 0.04 0  0.07000000000000001 0.04 0  0.08 0.04 0  0.09 0.04 0  0.1 0.04 0  0.11 0.04 0  0.12 0.04 0  0.13 0.04 0  0.14 0.04 0  0.15 0.04 0  0.16 0.04 0  0.17 0.04 0  0.18 0.04 0  0.19 0.04 0  0.2 0.04 0  0.21 0.04 0  0.22 0.04 0  0.23 0.04 0  0.24 0.04 0  0.25 0.04 0  0.26 0.04 0  0.27 0.04 0  0.28 0.04 0  0.29 0.04 0  0.3 0.04 0  0.31 0.04 0  0.32 0.04 0  0.33 0.04 0  0.34 0.04 0  0.35 0.04 0  0.36 0.04 0  0.37 0.04 0  0.38 0.04 0  0.39 0.04 0  0.4 0.04 0  0.41 0.04 0  0.42 0.04 0  0.43 0.04 0  0.44 0.04 0  0.45 0.04 0  0.46 0.04 0  0.47 0.04 0  0.48 0.04 0  0.49 0.04 0  0.5 0.04 0  0.51 0.04 0  0.52 0.04 0  0.53 0.04 0  0.54 0.04 0  0.55 0.04 0  0.5600000000000001 0.04 0  0.57 0.04 0  0.58 0.04 0  0.59 0.04 0  0.6 0.04 0  0.61 0.04 0  0.62 0.04 0  0.63 0.04 0  0.64 0.04 0  0.65 0.04 0  0.66 0.04 0  0.67 0.04 0  0.68 0.04 0  0.6899999999999999 0.04 0  0.7 0.04 0  0.71 0.04 0  0.72 0.04 0  0.73 0.04 0  0.74 0.04 0  0.75 0.04 0  0.76 0.04 0  0.77 0.04 0  0.78 0.04 0  0.79 0.04 0  0.8 0.04 0  0.8100000000000001 0.04 0  0.82 0.04 0  0.83 0.04 0  0.84 0.04 0  0.85 0.04 0  0.86 0.04 0  0.87 0.04 0  0.88 0.04 0  0.89 0.04 0  0.9 0.04 0  0.91 0.04 0  0.92 0.04 0  0.93 0.04 0  0.9399999999999999 0.04 0  0.95 0.04 0  0.96 0.04 0  0.97 0.04 0  0.98 0.04 0  0.99 0.04 0  1 0.04 0  0 0.05 0  0.01 0.05 0  0.02 0.05 0  0.03 0.05 0  0.04 0.05 0  0.05 0.05 0  0.06 0.05 0  0.07000000000000001 0.05 0  0.08 0.05 0  0.09 0.05 0  0.1 0.05 0  0.11 0.05 0  0.12 0.05 0  0.13 0.05 0  0.14 0.05 0  0.15 0.05 0  0.16 0.05 0  0.17 0.05 0  0.18 0.05 0  0.19 0.05 0  0.2 0.05 0  0.21 0.05 0  0.22 0.05 0  0.23 0.05 0  0.24 0.05 0  0.25 0.05 0  0.26 0.05 0  0.27 0.05 0  0.28 0.05 0  0.29 0.05 0  0.3 0.05 0  0.31 0.05 0  0.32 0.05 0  0.33 0.05 0  0.34 0.05 0  0.35 0.05 0  0.36 0.05 0  0.37 0.05 0  0.38 0.05 0  0.39 0.05 0  0.4 0.05 0  0.41 0.05 0  0.42 0.05 0  0.43 0.05 0  0.44 0.05 0  0.45 0.05 0  0.46 0.05 0  0.47 0.05 0  0.48 0.05 0  0.49 0.05 0  0.5 0.05 0  0.51 0.05 0  0.52 0.05 0  0.53 0.05 0  0.54 0.05 0  0.55 0.05 0  0.5600000000000001 0.05 0  0.57 0.05 0  0.58 0.05 0  0.59 0.05 0  0.6 0.05 0  0.61 0.05 0  0.62 0.05 0  0.63 0.05 0  0.64 0.05 0  0.65 0.05 0  0.66 0.05 0  0.67 0.05 0  0.68 0.05 0  0.6899999999999999 0.05 0  0.7 0.05 0  0.71 0.05 0  0.72 0.05 0  0.73 0.05 0  0.74 0.05 0  0.75 0.05 0  0.76 0.05 0  0.77 0.05 0  0.78 0.05 0  0.79 0.05 0  0.8 0.05 0  0.8100000000000001 0.05 0  0.82 0.05 0  0.83 0.05 0  0.84 0.05 0  0.85 0.05 0  0.86 0.05 0  0.87 0.05 0  0.88 0.05 0  0.89 0.05 0  0.9 0.05 0  0.91 0.05 0  0.92 0.05 0  0.93 0.05 0  0.9399999999999999 0.05 0  0.95 0.05 0  0.96 0.05 0  0.97 0.05 0  0.98 0.05 0  0.99 0.05 0  1 0.05 0  0 0.06 0  0.01 0.06 0  0.02 0.06 0  0.03 0.06 0  0.04 0.06 0  0.05 0.06 0  0.06 0.06 0  0.07000000000000001 0.06 0  0.08 0.06 0  0.09 0.06 0  0.1 0.06 0  0.11 0.06 0  0.12 0.06 0  0.13 0.06 0  0.14 0.06 0  0.15 0.06 0  0.16 0.06 0  0.17 0.06 0  0.18 0.06 0  0.19 0.06 0  0.2 0.06 0  0.21 0.06 0  0.22 0.06 0  0.23 0.06 0  0.24 0.06 0  0.25 0.06 0  0.26 0.06 0  0.27 0.06 0  0.28 0.06 0  0.29 0.06 0  0.3 0.06 0  0.31 0.06 0  0.32 0.06 0  0.33 0.06 0  0.34 0.06 0  0.35 0.06 0  0.36 0.06 0  0.37 0.06 0  0.38 0.06 0  0.39 0.06 0  0.4 0.06 0  0.41 0.06 0  0.42 0.06 0  0.43 0.06 0  0.44 0.06 0  0.45 0.06 0  0.46 0.06 0  0.47 0.06 0  0.48 0.06 0  0.49 0.06 0  0.5 0.06 0  0.51 0.06 0  0.52 0.06 0  0.53 0.06 0  0.54 0.06 0  0.55 0.06 0  0.5600000000000001 0.06 0  0.57 0.06 0  0.58 0.06 0  0.59 0.06 0  0.6 0.06 0  0.61 0.06 0  0.62 0.06 0  0.63 0.06 0  0.64 0.06 0  0.65 0.06 0  0.66 0.06 0  0.67 0.06 0  0.68 0.06 0  0.6899999999999999 0.06 0  0.7 0.06 0  0.71 0.06 0  0.72 0.06 0  0.73 0.06 0  0.74 0.06 0  0.75 0.06 0  0.76 0.06 0  0.77 0.06 0  0.78 0.06 0  0.79 0.06 0  0.8 0.06 0  0.8100000000000001 0.06 0  0.82 0.06 0  0.83 0.06 0  0.84 0.06 0  0.85 0.06 0  0.86 0.06 0  0.87 0.06 0  0.88 0.06 0  0.89 0.06 0  0.9 0.06 0  0.91 0.06 0  0.92 0.06 0  0.93 0.06 0  0.9399999999999999 0.06 0  0.95 0.06 0  0.96 0.06 0  0.97 0.06 0  0.98 0.06 0  0.99 0.06 0  1 0.06 0  0 0.07000000000000001 0  0.01 0.07000000000000001 0  0.02 0.07000000000000001 0  0.03 0.07000000000000001 0  0.04 0.07000000000000001 0  0.05 0.07000000000000001 0  0.06 0.07000000000000001 0  0.07000000000000001 0.07000000000000001 0  0.08 0.07000000000000001 0  0.09 0.07000000000000001 0  0.1 0.07000000000000001 0  0.11 0.07000000000000001 0  0.12 0.07000000000000001 0  0.13 0.07000000000000001 0  0.14 0.07000000000000001 0  0.15 0.07000000000000001 0  0.16 0.07000000000000001 0  0.17 0.0700
[...]
<PointData  Scalars="Indicator Function"> 
<DataArray  type="Float64"  Name="Indicator Function"  format="ascii">-1.8055593228630336e-35  -6.6848181749001464e-20  1.8750816833920596e-20  3.3045042251919025e-19  3.4448248888146666e-19  -3.5679527079249610e-20  -3.1234032450690436e-20  6.5295920080852846e-19  9.3295971877140915e-19  -9.0277966143151681e-36  4.9974841904593351e-18  2.9103515716475862e-18  -4.2105334088198315e-20  -3.6422249625836764e-20  7.6669742168033279e-18  -9.0340246476263620e-21  -6.3222330632599277e-21  2.1700211191433240e-18  -3.5771488144616641e-20  -4.5138983071575840e-35  5.5858933833054778e-18  6.0185310762101120e-36  -3.8825720125839886e-20  1.3204624034003432e-17  -5.2732548523847731e-20  -2.6366274261923872e-20  -1.9815021487209904e-20  -4.6151349534695625e-20  4.1425469225002738e-17  -1.7622064323684830e-20  -8.4664517523949252e-20  -3.0294160669926113e-20  -4.9739663210158384e-20  -1.5387527318145289e-20  2.4412941535868490e-17  -9.8050744959401429e-20  -1.3036927618069120e-19  -1.4779775461060318e-19  -1.5290466490798733e-19  -1.4875627503814303e-19  8.7301028245105573e-18  -8.7891627297331283e-20  -2.5641472657329440e-20  -3.4105133917978845e-20  -1.9779893153655272e-20  -2.2883677955219592e-20  2.9931194248007995e-17  -1.4711023366178896e-20  -8.3097050913536940e-21  -1.2944501323016820e-21  -2.2728417049163040e-20  -1.1364208524581528e-20  -8.2299741459060668e-21  -9.2152949382110243e-21  -8.5515866505122456e-21  -4.9838761596517176e-21  2.4197379571503416e-19  -1.0860235093804370e-21  -3.3315908166392217e-22  -3.4666290197334626e-22  -3.7906469709511571e-22  -6.3679281792535633e-22  -4.7094752284608391e-22  -1.4464045121748994e-21  -2.0888645625100027e-21  -7.8433150839841908e-22  -2.5675959958797310e-21  -2.7609942448093916e-21  2.8469703292928556e-18  1.8807909613156600e-37  -6.7210732161979559e-23  -3.1002401843154335e-22  -4.7503340378867283e-22  -6.1017349431179516e-22  -6.1596889325179593e-22  -6.0776445909671691e-22  -5.9460644934345638e-22  -4.4399824828146326e-22  -5.7195154934499115e-22  -6.1422331179911276e-22  -6.1932724964634149e-22  -2.4543247131256443e-20  -3.6520341829602305e-22  -9.5046122313015933e-23  4.7019774032891500e-38  -1.1458630040290879e-22  -2.8836158751354412e-22  -1.7407097706417710e-22  -1.3218706469078751e-22  -3.8358225128727884e-23  -7.4864703989569388e-23  -5.6276440448821604e-23  -2.8487593308465197e-22  8.1710946523801823e-19  -1.3879551641537536e-22  -1.4762709189890574e-22  -4.5606998667103369e-23  -9.8185697424286578e-23  -3.4851615476228635e-23  -5.1843795716539776e-23  4.7019774032891500e-38  -3.6166596886623105e-20  5.7056594828171290e-04  2.3634537272385346e-04  1.5885808376072972e-04  3.5460827624279509e-04  2.8469930691552752e-04  5.0039556597769239e-04  3.1246452463598432e-04  7.0543505649098065e-04  5.4360332960623938e-05  3.1307805793564208e-05  4.4064619521967695e-04  7.5966919451612026e-04  3.7866767038162051e-04  4.6679108418084273e-04  2.7966644688609500e-04  2.2909296703776345e-05  7.8618788442448649e-04  1.3361554858956276e-04  6.4440184271433436e-04  2.1687648090515957e-04  3.1875364319349468e-04  2.5302100452251987e-04  5.7291149250323910e-04  2.1304394831513394e-04  9.4994514352918897e-04  7.1391138708909473e-04  9.4533606484836698e-04  3.5872076984421738e-04  6.3490177857316731e-04  8.6743638530558645e-04  1.0914621656366494e-03  6.8327203285194465e-04  5.5439409836924042e-04  1.7088184933029105e-05  8.6885935695127879e-04  1.3318955153745998e-03  1.6825763368243888e-03  1.8211994819498393e-03  1.8438858266363693e-03  1.7578119060050318e-03  1.4064141426710583e-03  8.8010772844546159e-04  4.6191570681911845e-04  3.8342562020816240e-04  8.2447138809598429e-04  6.0108872162774633e-04  5.3002047480129526e-04  2.8682557514540726e-04  6.2815514392131498e-06  2.0177964814327691e-05  4.0943876221332753e-04  1.1012017557793301e-04  9.3197946198118997e-05  1.1940902230028600e-04  9.4347178660550814e-05  6.9056264976972111e-05  4.5573164278990150e-05  2.4833213245463525e-05  1.5036796590168707e-05  1.1085387054286077e-05  7.8049127572450068e-06  7.5689832114608681e-06  1.4627742777561147e-05  1.8742235899450955e-05  2.8258520711664447e-05  9.7280010658143026e-06  4.1389696948220584e-05  2.9042802134272755e-05  1.4692986931059285e-05  5.2351186486252975e-06  1.2107609132799583e-06  4.9795157588968301e-06  6.0676831617164067e-06  7.9580669055976112e-06  7.1172756596836161e-06  7.3898733362262120e-06  7.0165408666680298e-06  9.3476984051872802e-06  9.3138148604110860e-06  8.7491010704696430e-06  6.7822573476757762e-06  8.8122170052585346e-06  4.8057995589640659e-06  2.6157592434723179e-06  4.0330436227217689e-06  3.2371583248053377e-07  6.2715678995379658e-06  2.7922719458105958e-06  9.8513448823322063e-07  2.6972852239250170e-06  2.9995263172345756e-07  8.6380990907847373e-07  5.1318685843472957e-06  9.3564362150552285e-07  2.0324959332831589e-06  1.6431652976212271e-06  1.0261890031129841e-06  1.2556617797760245e-06  1.8678695925638435e-06  5.1843795716539641e-23  -1.2806348199868386e-20  6.5151948904741892e-04  1.6769530664393758e-04  9.5294436158151885e-05  9.9201781915730183e-06  3.3845167767338711e-04  5.4504830530209536e-04  6.5941854874792443e-04  7.8319784841439583e-04  7.2219966861769515e-05  1.8124636010181941e-04  4.9124431340242744e-04  6.7430465796825283e-04  1.0032115918987472e-03  9.5720873712310439e-04  6.3916005460574121e-04  1.2479682998861609e-03  8.2219378038280320e-05  4.9234570808175462e-04  1.0070831344022829e-03  4.8132428948454179e-04  1.6477401480429255e-03  1.0736577263137544e-03  1.7791097634687924e-03  1.0254517359856888e-03  1.2983515735519328e-03  4.1587775939327406e-05  3.2656601638639076e-04  1.7601481106932152e-03  1.2814479901640105e-03  3.7870275401421152e-05  1.7617102967089876e-03  1.1545868786762590e-04  1.1889378151917502e-03  6.7868613295373750e-04  1.1874178238659285e-03  1.6466804892683732e-03  2.1928785597352105e-03  2.5260743343483295e-03  2.6209453865799022e-03  2.5495062019821164e-03  2.3460580189504322e-03  1.7695292471681641e-03  2.3756146673022845e-04  1.0969289504384786e-03  9.5349324650451203e-04  9.1520831748567039e-04  1.2945193680390043e-03  1.1069226795864845e-03  3.8743277479567597e-04  3.6904032245230976e-04  6.6985777210099354e-04  2.0725744636669282e-04  2.8892079315444584e-04  1.1831192098302523e-04  1.2759295111006209e-04  9.5406735100732090e-05  7.9829503224857954e-05  4.7745354729874033e-05  2.7623349645775264e-05  1.8302440250227982e-05  1.2013957103251180e-05  1.3579063127836053e-05  1.1598802534111694e-05  2.5943710996692296e-05  3.1372281244213523e-05  2.1224020330465778e-05  5.6462929988140475e-05  5.0597757196389482e-05  2.0098225101092673e-05  1.1074588511364882e-05  2.5989675173973184e-06  4.2583563272938682e-06  7.5499181297283157e-06  9.2039471000070611e-06  9.8177915600552911e-06  1.2303856828156656e-05  1.1805879537623456e-05  8.7863354600532347e-06  1.2001743442889476e-05  1.2760080410749146e-05  1.4675814069142599e-05  1.1224761109557013e-05  7.5189866975800192e-06  6.9086925327624881e-06  2.8164592975752559e-07  7.3088655593482581e-06  7.3117409498428410e-06  2.9520660619228459e-06  8.4678022432662981e-06  8.8062151980898100e-06  2.7270359104539880e-06  4.4635418296242876e-06  1.1187510677395507e-05  5.4753750684904565e-06  8.3660148514343905e-06  1.7499864726005489e-06  1.3391180567162869e-06  5.1859236727616436e-06  2.1686415028900794e-06  5.4172703894991081e-22  -2.4205666073523485e-20  2.3069865992361713e-04  4.5492274136723363e-04  7.5598338604310365e-05  5.3775346327490019e-04  7.4810678090450188e-04  6.6520284314186312e-04  8.7942352999322980e-04  2.2449151718302270e-04  1.3447592181618560e-03  5.1101925214826942e-04  7.6813951971072709e-06  1.0656199739331590e-03  1.2721465781083431e-03  2.7657575526148810e-04  1.0282540376789660e-03  1.8914898925456733e-04  3.2647026845279605e-04  1.5712368683998583e-03  8.4045703458531429e-04  1.7801701496748576e-03  4.3710242667285197e-04  1.1478865073435277e-03  3.1475361074222060e-04  1.6883946620271885e-03  1.4538460166940925e-03  2.5091448836633591e-03  2.1276409494849738e-03  2.0444303475952831e-03  7.8519478570862611e-04  2.1836141066617822e-03  2.0019181455278585e-03  2.1567838303044296e-03  2.2699242317045717e-03  1.0187811529140793e-03  2.7759448795856406e-04  2.0238107558880371e-03  2.2707917760070744e-03  2.7794468311177992e-03  2.9968863344873396e-03  3.0341739908352340e-03  2.8498583411616621e-03  2.1732220613271997e-03  1.4122295708093049e-03  1.4109221407353938e-03  7.5757740687794383e-04  2.3944136884681065e-03  1.3801331119617281e-03  8.0973491985956102e-04  4.4798759468376594e-04  1.1875566701960236e-04  1.7452369107808928e-04  1.0398951088440719e-03  4.7160592711638756e-04  2.2029544225461102e-04  1.0919337680316134e-04  8.2578172528749446e-05  8.1375407722160043e-05  7.0814668887032951e-05  3.8527051613505000e-05  2.5742706344958525e-05  2.0676437455426741e-05  1.2554292135155016e-05  1.3957558223202702e-05  2.4263432674573339e-05  2.7968737418165821e-05  4.3873748946015840e-05  3.1608701933000338e-05  7.9769040350317842e-05  2.8002799421932965e-05  7.8492037046267993e-06  5.9411643598929184e-06  5.7017752847480077e-08  6.5432297416554083e-06  8.8357318141920541e-06  1.2395262283803011e-05  9.3945369803067745e-06  1.2853482164082334e-05  1.2759140860827576e-05  1.4911418849154889e-05  1.4092163898313268e-05  1.2654229745433914e-05  1.2361470962090836e-05  1.6217113365580853e-05  6.0767887776270291e-06  6.0397863045588584e-06  6.8056866799498936e-06  9.1140109996243233e-07  1.6094352746065151e-05  6.2279627303626364e-06  1.7298793669490145e-06  1.3393535373830565e-05  4.3289536310364410e-07  2.7566810859448446e-06  1.7734437345950386e-05  4.7933219133030028e-06  6.1882926099377657e-06  8.2268848886077326e-08  4.8761810285661342e-06  6.0026761548921864e-06  -8.3303865956621308e-22  -1.8769270807513525e-20  4.3605051483590091e-04  6.1435908392375735e-04  2.6730067136652654e-06  1.5456622183934463e-04  4.9058253504809322e-04  6.9767273494095389e-04  1.1731026865968860e-03  1.0637000055174197e-03  6.8105520874933733e-04  2.1386508557203656e-04  1.3234889914032265e-05  4.7889881912911378e-04  1.0237473419378634e-03  1.5136483932422071e-03  7.7575415261343570e-04  9.8533420071774476e-04  1.8073651173054768e-03  3.5667584198214171e-04  1.1917565562039919e-03  6.9683794374346972e-04  4.2580386392035300e-04  2.1689040397762462e-03  1.7088196000616125e-03  2.5515936361326813e-03  1.3478101213032353e-03  1.3754048004655974e-03  5.2245143312412549e-04  1.4969906015030283e-03  3.3468887951505120e-03  2.0326161864598858e-03  7.1636224770609837e-04  3.2666617748766907e-03  3.8894644842928696e-04  2.6932235495920188e-03  8.5982342678048455e-04  2.0351946789776546e-03  2.4541351092357265e-03  2.8395490667265546e-03  3.2258002211659597e-03  3.3243372889223484e-03  3.2386544992880693e-03  2.9774067590686002e-03  2.0712249930058464e-03  5.6046441414697138e-04  2.0264129222035197e-03  1.5389880912167206e-03  2.0964278295086572e-03  2.8787580051390644e-03  2.2872585674978017e-03  1.0355346476104141e-03  3.8791514201480970e-04  9.8598449583191966e-04  4.6551589601057016e-04  7.3160173386135571e-04  1.3508045465761046e-04  8.3805714960782270e-05  5.3953347617112961e-05  7.4338313996811955e-05  5.1964865664390742e-05  3.0333790950705030e-05  2.2367970967315063e-05  1.6445854460161256e-05  1.7413748234496145e-05  1.2429486136914331e-05  3.5274349832157676e-05  3.6187950900834233e-05  3.0523571693734750e-05  9.3754689088962741e-05  6.5068789131891947e-05  3.2784206127879355e-06  2.7252492700922901e-06  1.5225930816811945e-06  3.0113364617377855e-06  7.7401449792530109e-06  9.2731919794325164e-06  1.2553339239210614e-05  1.3093080068100767e-05  1.2950552008422507e-05  9.8089977244136767e-06  1.6693976649527535e-05  1.6393188642290652e-05  1.6259788257762650e-05  1.1007103354380064e-05  1.0902815693958406e-05  7.6392702317932387e-06  1.8940880129488835e-06  1.4124890127135124e-05  7.2172052791113572e-06  8.4357559275933395e-06  1.3110763673044930e-05  1.5908446533916004e-05  9.7569898828327285e-06  4.7956377326966833e-06  1.6131424819023799e-05  5.2089009924646117e-08  1.3417716850768136e-05  7.8434690240818596e-07  1.6843562181726974e-06  4.2782747284400006e-06  9.8478585276186288e-22  -2.3221879095849060e-20  3.3811712405893492e-04  5.9019236774598852e-04  9.5947712642921489e-04  1.3315404112509258e-04  5.6170972991184513e-04  7.2229350752214816e-04  6.8608352727071210e-04  1.3281647150279164e-03  4.0779795174898610e-04  1.6865158475582189e-03  9.1680099068361723e-04  2.1999886835500208e-05  1.4135015618390618e-03  1.4796781766824427e-03  3.8714014747071013e-04  1.2743656025643257e-03  9.6843455490488951e-04  1.0412141143667836e-03  1.5410068241350965e-03  9.8389972680532913e-04  2.3418396263373436e-03  1.1306418614998332e-03  2.0822744902883835e-03  1.1937627391113898e-03  2.8107055436847337e-03  2.5446519516420206e-03  3.6410384995950989e-03  2.8304349541642469e-03  2.1766287075113775e-03  1.7074603924969846e-03  3.6220731883069893e-03  2.5083856237430369e-03  3.5364010776514367e-03  3.1292861100263225e-03  1.8532813180212003e-03  3.7528167747657293e-04  3.0865342068424114e-03  2.9149262926632881e-03  3.3736111933568617e-03  3.6006239217709424e-03  3.6244783171111910e-03  3.3905828202001201e-03  2.5932272690769947e-03  1.6519131807670410e-03  2.2814126367961146e-03  1.3813054974690831e-03  3.7085279818035682e-03  1.3397583968915835e-03  5.3487160871787576e-05  1.7520866992331297e-04  1.5147998449025721e-04  4.0464945883706831e-04  1.5825642238274009e-03  5.8183260063487409e-04  4.9684068512297834e-04  8.5698603564635803e-05  4.2090861780305142e-05  5.5438601081818908e-05  7.1456962531553378e-05  3.6617652904853431e-05  2.5107128960821607e-05  2.2100340491813908e-05  1.1886374136265872e-05  1.5896099202300693e-05  2.3357712067888347e-05  3.2885801577897985e-05  5.2613445500347400e-05  3.6072092924387426e-05  1.1293901296093317e-04  2.4913155145276133e-05  6.9051166711352375e-06  2.5708836592457483e-06  6.2595376176206040e-07  5.6786056895753936e-06  8.6402706629521986e-06  1.0835333635798851e-05  1.0113884583907047e-05  1.4612637865826185e-05  1.3354564862936176e-05  1.2740918415075248e-05  1.5718769595128718e-05  1.4521831339474112e-05  1.5313731668646803e-05  1.5114643971582063e-05  5.0656471661117419e-06  5.6730895315188807e-06  5.6685718969237859e-06  5.5060123839019995e-06  2.1251221487947802e-05  6.3785353783908416e-06  5.1548489175740711e-06  2.4293076665101906e-05  2.6811835861821962e-06  3.3914080495521055e-06  2.8293036728965889e-05  6.5742395143683141e-06  1.6138682773562108e-05  4.2580560130314515e-06  8.6108190512910265e-07  9.4039548065783001e-37  -1.2770615020696381e-20  4.1832818417163431e-04  6.5253353061816622e-04  5.6188846854976428e-04  6.0579677810947640e-04  2.4780711969741112e-04  6.0201801285312943e-04  1.0751187061193396e-03  1.5339727424558622e-03  1.3816113163351504e-03  6.0420355254842931e-04  5.3942082490786487e-04  4.1170687272964280e-04  4.4736735036500106e-04  1.5007397907374489e-03  1.8698307733896321e-03  5.4796134821242896e-04  8.8034791474873473e-04  1.5113622956451401e-03  1.8609370854048485e-04  1.6715505003113268e-03  2.0062681202786541e-04  1.1074856146297979e-04  1.8366508013957154e-03  1.5230517705678841e-03  2.4568692479837216e-03  9.2345521169699034e-04  8.0703482153601672e-04  1.4203013116869544e-03  2.5008884303749932e-03  4.4995900443654665e-03  2.1662127314009093e-03  1.8455517158042385e-03  4.5113669108455025e-03  9.7431078475002217e-04  4.1021348408721778e-03  1.2022951157079373e-03  2.5280459875246688e-03  3.4421228192895621e-03  3.4770450091212747e-03  3.8558075839107680e-03  3.9486191672615132e-03  3.8493468896297913e-03  3.5043678659098551e-03  2.2958352560084748e-03  7.1050813787326369e-04  3.1154787232933598e-03  1.7863369800243203e-03  3.3999008638658595e-03  3.7017187860398900e-03  2.5527341919214740e-03  1.1794671747367925e-03  3.7672494864523538e-04  9.7293604531476679e-04  8.6789363607687900e-04  1.0566837513483671e-03  2.2672650772720835e-04  3.0717503362047543e-05  1.0313186797233893e-05  6.3256095135926445e-05  5.9922645805820774e-05  3.2218822097301992e-05  2.3266440454525717e-05  1.8447244578438792e-05  1.6665162515771091e-05  1.2332963810240373e-05  3.8410521649036494e-05  3.7673209769893889e-05  4.0221276182707488e-05  1.1748328672733198e-04  8.3094776025047947e-05  1.1061789545711123e-05  7.2435474577107401e-06  2.1683857797863266e-06  1.4733369092790297e-06  6.9391921151307648e-06  8.5822959564102631e-06  1.1346857662163059e-05  1.1244467485308915e-05  1.3386229350762335e-05  1.1161752886718663e-05  1.5439408907451606e-05  1.6486548381369937e-05  1.5009928202297714e-05  1.3153764027990301e-05  1.1160433287533029e-05  4.6399652924156547e-06  2.4580439514396782e-06  1.3185103039536337e-05  4.7541279087276165e-06  1.3198934239256224e-05  1.7433308470417182e-05  1.5276896005687320e-05  1.9922757559769622e-05  5.4301837678201339e-06  1.5478102405725257e-05  1.0430761708713212e-05  1.1055284962598091e-05  7.6337299669857371e-06  5.2430677197465411e-06  3.7615819226313200e-37  -2.0906680437011968e-20  2.3005494819400120e-04  5.3135473976581018e-04  8.7344037413047927e-04  9.0977635165327415e-04  6.4172305480519063e-05  7.0647048154710433e-04  4.7446208054270465e-04  3.9871681406848897e-04  1.7606445994374680e-03  6.4720160433513773e-04  1.6674811627229564e-03  9.1260686497406909e-04  1.7262083793847938e-04  1.5271464537772123e-03  1.8247692695075801e-03  6.7733145399099029e-04  1.1196336160971771e-03  1.1978828507822313e-03  1.3419148773097995e-03  1.3561564739652744e-03  5.5032155160040499e-04  2.1308912276783560e-03  9.5077092292719851e-04  2.3332844787945957e-03  1.4297224521404184e-03  3.2098305682112887e-03  2.7639421459840874e-03  3.8358496240140220e-03  2.7181399282492171e-03  1.7735511942646631e-03  2.7244732652469913e-03  4.4550486192100587e-03  2.5165275514647742e-03  5.0512193225665690e-03  3.5196406277949307e-03  3.1462720493309585e-03  4.5061683628282417e-04  3.9609143411941201e-03  3.7970462607002939e-03  4.0840648010114838e-03  4.3024756175265083e-03  4.3076821117970718e-03  4.0291058854713914e-03  3.0679279110793767e-03  1.7545616716058078e-03  2.8722450708357577e-03  2.2044526311136977e-03  4.5727411351941024e-03  8.9770264901447422e-04  8.0642239637217651e-04  8.4798323549252594e-04  6.0469387946147327e-04  3.6537195692130204e-04  1.8580224710850423e-03  4.3347237335624052e-04  8.7437787138760982e-04  8.4243066802530114e-05  1.4859706943900534e-05  1.1728900074553425e-05  6.4637769683764665e-05  4.0901406315972052e-05  2.9358316662681261e-05  2.5379920992704910e-05  1.3199340781203202e-05  1.7328240426188064e-05  2.1560825121251435e-05  3.9264626952710046e-05  5.6005009937760775e-05  3.3299959887871032e-05  1.4590871180390454e-04  2.8595176094264346e-05  2.2227195844880704e-05  3.6771281724050601e-06  4.7584528975721386e-07  2.4168755363682974e-06  7.4643123387377940e-06  9.3785280746484241e-06  1.0284510994615948e-05  1.1815255976088043e-05  1.1492471734393142e-05  1.1887371619701039e-05  1.5732903606619746e-05  1.4400339478815091e-05  1.3447180780350115e-05  1.4245051009335815e-05  5.6773084959031995e-06  1.6557482394168605e-06  5.9941297914378340e-06  9.1856130482701947e-06  1.7303120339001246e-05  5.9180636772224897e-06  1.3193850496228110e-05  2.4336539072803129e-05  5.6854857290033985e-06  5.1798159443650163e-06  2.8825111750188461e-05  2.5261344902646739e-06  1.6810366106401014e-05  5.8646898872355796e-06  -8.1388921813690627e-22  -1.4870210921372804e-20  3.7662127290272581e-04  6.4597900043015979e-04  7.1001749555561202e-04  6.9520581251525512e-04  9.8342820801939766e-04  1.2792804848904199e-04  5.0742219161244899e-04  1.0025467341677225e-03  1.5935290653839136e-03  1.7669976461204950e-03  7.6004940038636312e-04  5.6467365119342635e-04  6.4832234172502784e-04  4.2149494528235658e-04  1.8284813508590415e-03  2.1410502731355478e-03