<?xml version="1.0"?>
<VTKFile type="UnstructuredGrid"  version="0.1"  >
<UnstructuredGrid>
<Piece  NumberOfPoints="10201" NumberOfCells="20000">
<Points>
<DataArray  type="Float64"  NumberOfComponents="3"  format="ascii">0 0 0  0.01 0 0  0.02 0 0  0.03 0 0  0.04 0 0  0.05 0 0  0.06 0 0  0.07000000000000001 0 0  0.08 0 0  0.09 0 0  0.1 0 0  0.11 0 0  0.12 0 0  0.13 0 0  0.14 0 0  0.15 0 0  0.16 0 0  0.17 0 0  0.18 0 0  0.19 0 0  0.2 0 0  0.21 0 0  0.22 0 0  0.23 0 0  0.24 0 0  0.25 0 0  0.26 0 0  0.27 0 0  0.28 0 0  0.29 0 0  0.3 0 0  0.31 0 0  0.32 0 0  0.33 0 0  0.34 0 0  0.35 0 0  0.36 0 0  0.37 0 0  0.38 0 0  0.39 0 0  0.4 0 0  0.41 0 0  0.42 0 0  0.43 0 0  0.44 0 0  0.45 0 0  0.46 0 0  0.47 0 0  0.48 0 0  0.49 0 0  0.5 0 0  0.51 0 0  0.52 0 0  0.53 0 0  0.54 0 0  0.55 0 0  0.5600000000000001 0 0  0.57 0 0  0.58 0 0  0.59 0 0  0.6 0 0  0.61 0 0  0.62 0 0  0.63 0 0  0.64 0 0  0.65 0 0  0.66 0 0  0.67 0 0  0.68 0 0  0.6899999999999999 0 0  0.7 0 0  0.71 0 0  0.72 0 0  0.73 0 0  0.74 0 0  0.75 0 0  0.76 0 0  0.77 0 0  0.78 0 0  0.79 0 0  0.8 0 0  0.8100000000000001 0 0  0.82 0 0  0.83 0 0  0.84 0 0  0.85 0 0  0.86 0 0  0.87 0 0  0.88 0 0  0.89 0 0  0.9 0 0  0.91 0 0  0.92 0 0  0.93 0 0  0.9399999999999999 0 0  0.95 0 0  0.96 0 0  0.97 0 0  0.98 0 0  0.99 0 0  1 0 0  0 0.01 0  0.01 0.01 0  0.02 0.01 0  0.03 0.01 0  0.04 0.01 0  0.05 0.01 0  0.06 0.01 0  0.07000000000000001 0.01 0  0.08 0.01 0  0.09 0.01 0  0.1 0.01 0  0.11 0.01 0  0.12 0.01 0  0.13 0.01 0  0.14 0.01 0  0.15 0.01 0  0.16 0.01 0  0.17 0.01 0  0.18 0.01 0  0.19 0.01 0  0.2 0.01 0  0.21 0.01 0  0.22 0.01 0  0.23 0.01 0  0.24 0.01 0  0.25 0.01 0  0.26 0.01 0  0.27 0.01 0  0.28 0.01 0  0.29 0.01 0  0.3 0.01 0  0.31 0.01 0  0.32 0.01 0  0.33 0.01 0  0.34 0.01 0  0.35 0.01 0  0.36 0.01 0  0.37 0.01 0  0.38 0.01 0  0.39 0.01 0  0.4 0.01 0  0.41 0.01 0  0.42 0.01 0  0.43 0.01 0  0.44 0.01 0  0.45 0.01 0  0.46 0.01 0  0.47 0.01 0  0.48 0.01 0  0.49 0.01 0  0.5 0.01 0  0.51 0.01 0  0.52 0.01 0  0.53 0.01 0  0.54 0.01 0  0.55 0.01 0  0.5600000000000001 0.01 0  0.57 0.01 0  0.58 0.01 0  0.59 0.01 0  0.6 0.01 0  0.61 0.01 0  0.62 0.01 0  0.63 0.01 0  0.64 0.01 0  0.65 0.01 0  0.66 0.01 0  0.67 0.01 0  0.68 0.01 0  0.6899999999999999 0.01 0  0.7 0.01 0  0.71 0.01 0  0.72 0.01 0  0.73 0.01 0  0.74 0.01 0  0.75 0.01 0  0.76 0.01 0  0.77 0.01 0  0.78 0.01 0  0.79 0.01 0  0.8 0.01 0  0.8100000000000001 0.01 0  0.82 0.01 0  0.83 0.01 0  0.84 0.01 0  0.85 0.01 0  0.86 0.01 0  0.87 0.01 0  0.88 0.01 0  0.89 0.01 0  0.9 0.01 0  0.91 0.01 0  0.92 0.01 0  0.93 0.01 0  0.9399999999999999 0.01 0  0.95 0.01 0  0.96 0.01 0  0.97 0.01 0  0.98 0.01 0  0.99 0.01 0  1 0.01 0  0 0.02 0  0.01 0.02 0  0.02 0.02 0  0.03 0.02 0  0.04 0.02 0  0.05 0.02 0  0.06 0.02 0  0.07000000000000001 0.02 0  0.08 0.02 0  0.09 0.02 0  0.1 0.02 0  0.11 0.02 0  0.12 0.02 0  0.13 0.02 0  0.14 0.02 0  0.15 0.02 0  0.16 0.02 0  0.17 0.02 0  0.18 0.02 0  0.19 0.02 0  0.2 0.02 0  0.21 0.02 0  0.22 0.02 0  0.23 0.02 0  0.24 0.02 0  0.25 0.02 0  0.26 0.02 0  0.27 0.02 0  0.28 0.02 0  0.29 0.02 0  0.3 0.02 0  0.31 0.02 0  0.32 0.02 0  0.33 0.02 0  0.34 0.02 0  0.35 0.02 0  0.36 0.02 0  0.37 0.02 0  0.38 0.02 0  0.39 0.02 0  0.4 0.02 0  0.41 0.02 0  0.42 0.02 0  0.43 0.02 0  0.44 0.02 0  0.45 0.02 0  0.46 0.02 0  0.47 0.02 0  0.48 0.02 0  0.49 0.02 0  0.5 0.02 0  0.51 0.02 0  0.52 0.02 0  0.53 0.02 0  0.54 0.02 0  0.55 0.02 0  0.5600000000000001 0.02 0  0.57 0.02 0  0.58 0.02 0  0.59 0.02 0  0.6 0.02 0  0.61 0.02 0  0.62 0.02 0  0.63 0.02 0  0.64 0.02 0  0.65 0.02 0  0.66 0.02 0  0.67 0.02 0  0.68 0.02 0  0.6899999999999999 0.02 0  0.7 0.02 0  0.71 0.02 0  0.72 0.02 0  0.73 0.02 0  0.74 0.02 0  0.75 0.02 0  0.76 0.02 0  0.77 0.02 0  0.78 0.02 0  0.79 0.02 0  0.8 0.02 0  0.8100000000000001 0.02 0  0.82 0.02 0  0.83 0.02 0  0.84 0.02 0  0.85 0.02 0  0.86 0.02 0  0.87 0.02 0  0.88 0.02 0  0.89 0.02 0  0.9 0.02 0  0.91 0.02 0  0.92 0.02 0  0.93 0.02 0  0.9399999999999999 0.02 0  0.95 0.02 0  0.96 0.02 0  0.97 0.02 0  0.98 0.02 0  0.99 0.02 0  1 0.02 0  0 0.03 0  0.01 0.03 0  0.02 0.03 0  0.03 0.03 0  0.04 0.03 0  0.05 0.03 0  0.06 0.03 0  0.07000000000000001 0.03 0  0.08 0.03 0  0.09 0.03 0  0.1 0.03 0  0.11 0.03 0  0.12 0.03 0  0.13 0.03 0  0.14 0.03 0  0.15 0.03 0  0.16 0.03 0  0.17 0.03 0  0.18 0.03 0  0.19 0.03 0  0.2 0.03 0  0.21 0.03 0  0.22 0.03 0  0.23 0.03 0  0.24 0.03 0  0.25 0.03 0  0.26 0.03 0  0.27 0.03 0  0.28 0.03 0  0.29 0.03 0  0.3 0.03 0  0.31 0.03 0  0.32 0.03 0  0.33 0.03 0  0.34 0.03 0  0.35 0.03 0  0.36 0.03 0  0.37 0.03 0  0.38 0.03 0  0.39 0.03 0  0.4 0.03 0  0.41 0.03 0  0.42 0.03 0  0.43 0.03 0  0.44 0.03 0  0.45 0.03 0  0.46 0.03 0  0.47 0.03 0  0.48 0.03 0  0.49 0.03 0  0.5 0.03 0  0.51 0.03 0  0.52 0.03 0  0.53 0.03 0  0.54 0.03 0  0.55 0.03 0  0.5600000000000001 0.03 0  0.57 0.03 0  0.58 0.03 0  0.59 0.03 0  0.6 0.03 0  0.61 0.03 0  0.62 0.03 0  0.63 0.03 0  0.64 0.03 0  0.65 0.03 0  0.66 0.03 0  0.67 0.03 0  0.68 0.03 0  0.6899999999999999 0.03 0  0.7 0.03 0  0.71 0.03 0  0.72 0.03 0  0.73 0.03 0  0.74 0.03 0  0.75 0.03 0  0.76 0.03 0  0.77 0.03 0  0.78 0.03 0  0.79 0.03 0  0.8 0.03 0  0.8100000000000001 0.03 0  0.82 0.03 0  0.83 0.03 0  0.84 0.03 0  0.85 0.03 0  0.86 0.03 0  0.87 0.03 0  0.88 0.03 0  0.89 0.03 0  0.9 0.03 0  0.91 0.03 0  0.92 0.03 0  0.93 0.03 0  0.9399999999999999 0.03 0  0.95 0.03 0  0.96 0.03 0  0.97 0.03 0  0.98 0.03 0  0.99 0.03 0  1 0.03 0  0 0.04 0  0.01 0.04 0  0.02 0.04 0  0.03 0.04 0  0.04 0.04 0  0.05 0.04 0  0.06 0.04 0  0.07000000000000001 0.04 0  0.08 0.04 0  0.09 0.04 0  0.1 0.04 0  0.11 0.04 0  0.12 0.04 0  0.13 0.04 0  0.14 0.04 0  0.15 0.04 0  0.16 0.04 0  0.17 0.04 0  0.18 0.04 0  0.19 0.04 0  0.2 0.04 0  0.21 0.04 0  0.22 0.04 0  0.23 0.04 0  0.24 0.04 0  0.25 0.04 0  0.26 0.04 0  0.27 0.04 0  0.28 0.04 0  0.29 0.04 0  0.3 0.04 0  0.31 0.04 0  0.32 0.04 0  0.33 0.04 0  0.34 0.04 0  0.35 0.04 0  0.36 0.04 0  0.37 0.04 0  0.38 0.04 0  0.39 0.04 0  0.4 0.04 0  0.41 0.04 0  0.42 0.04 0  0.43 0.04 0  0.44 0.04 0  0.45 0.04 0  0.46 0.04 0  0.47 0.04 0  0.48 0.04 0  0.49 0.04 0  0.5 0.04 0  0.51 0.04 0  0.52 0.04 0  0.53 0.04 0  0.54 0.04 0  0.55 0.04 0  0.5600000000000001 0.04 0  0.57 0.04 0  0.58 0.04 0  0.59 0.04 0  0.6 0.04 0  0.61 0.04 0  0.62 0.04 0  0.63 0.04 0  0.64 0.04 0  0.65 0.04 0  0.66 0.04 0  0.67 0.04 0  0.68 0.04 0  0.6899999999999999 0.04 0  0.7 0.04 0  0.71 0.04 0  0.72 0.04 0  0.73 0.04 0  0.74 0.04 0  0.75 0.04 0  0.76 0.04 0  0.77 0.04 0  0.78 0.04 0  0.79 0.04 0  0.8 0.04 0  0.8100000000000001 0.04 0  0.82 0.04 0  0.83 0.04 0  0.84 0.04 0  0.85 0.04 0  0.86 0.04 0  0.87 0.04 0  0.88 0.04 0  0.89 0.04 0  0.9 0.04 0  0.91 0.04 0  0.92 0.04 0  0.93 0.04 0  0.9399999999999999 0.04 0  0.95 0.04 0  0.96 0.04 0  0.97 0.04 0  0.98 0.04 0  0.99 0.04 0  1 0.04 0  0 0.05 0  0.01 0.05 0  0.02 0.05 0  0.03 0.05 0  0.04 0.05 0  0.05 0.05 0  0.06 0.05 0  0.07000000000000001 0.05 0  0.08 0.05 0  0.09 0.05 0  0.1 0.05 0  0.11 0.05 0  0.12 0.05 0  0.13 0.05 0  0.14 0.05 0  0.15 0.05 0  0.16 0.05 0  0.17 0.05 0  0.18 0.05 0  0.19 0.05 0  0.2 0.05 0  0.21 0.05 0  0.22 0.05 0  0.23 0.05 0  0.24 0.05 0  0.25 0.05 0  0.26 0.05 0  0.27 0.05 0  0.28 0.05 0  0.29 0.05 0  0.3 0.05 0  0.31 0.05 0  0.32 0.05 0  0.33 0.05 0  0.34 0.05 0  0.35 0.05 0  0.36 0.05 0  0.37 0.05 0  0.38 0.05 0  0.39 0.05 0  0.4 0.05 0  0.41 0.05 0  0.42 0.05 0  0.43 0.05 0  0.44 0.05 0  0.45 0.05 0  0.46 0.05 0  0.47 0.05 0  0.48 0.05 0  0.49 0.05 0  0.5 0.05 0  0.51 0.05 0  0.52 0.05 0  0.53 0.05 0  0.54 0.05 0  0.55 0.05 0  0.5600000000000001 0.05 0  0.57 0.05 0  0.58 0.05 0  0.59 0.05 0  0.6 0.05 0  0.61 0.05 0  0.62 0.05 0  0.63 0.05 0  0.64 0.05 0  0.65 0.05 0  0.66 0.05 0  0.67 0.05 0  0.68 0.05 0  0.6899999999999999 0.05 0  0.7 0.05 0  0.71 0.05 0  0.72 0.05 0  0.73 0.05 0  0.74 0.05 0  0.75 0.05 0  0.76 0.05 0  0.77 0.05 0  0.78 0.05 0  0.79 0.05 0  0.8 0.05 0  0.8100000000000001 0.05 0  0.82 0.05 0  0.83 0.05 0  0.84 0.05 0  0.85 0.05 0  0.86 0.05 0  0.87 0.05 0  0.88 0.05 0  0.89 0.05 0  0.9 0.05 0  0.91 0.05 0  0.92 0.05 0  0.93 0.05 0  0.9399999999999999 0.05 0  0.95 0.05 0  0.96 0.05 0  0.97 0.05 0  0.98 0.05 0  0.99 0.05 0  1 0.05 0  0 0.06 0  0.01 0.06 0  0.02 0.06 0  0.03 0.06 0  0.04 0.06 0  0.05 0.06 0  0.06 0.06 0  0.07000000000000001 0.06 0  0.08 0.06 0  0.09 0.06 0  0.1 0.06 0  0.11 0.06 0  0.12 0.06 0  0.13 0.06 0  0.14 0.06 0  0.15 0.06 0  0.16 0.06 0  0.17 0.06 0  0.18 0.06 0  0.19 0.06 0  0.2 0.06 0  0.21 0.06 0  0.22 0.06 0  0.23 0.06 0  0.24 0.06 0  0.25 0.06 0  0.26 0.06 0  0.27 0.06 0  0.28 0.06 0  0.29 0.06 0  0.3 0.06 0  0.31 0.06 0  0.32 0.06 0  0.33 0.06 0  0.34 0.06 0  0.35 0.06 0  0.36 0.06 0  0.37 0.06 0  0.38 0.06 0  0.39 0.06 0  0.4 0.06 0  0.41 0.06 0  0.42 0.06 0  0.43 0.06 0  0.44 0.06 0  0.45 0.06 0  0.46 0.06 0  0.47 0.06 0  0.48 0.06 0  0.49 0.06 0  0.5 0.06 0  0.51 0.06 0  0.52 0.06 0  0.53 0.06 0  0.54 0.06 0  0.55 0.06 0  0.5600000000000001 0.06 0  0.57 0.06 0  0.58 0.06 0  0.59 0.06 0  0.6 0.06 0  0.61 0.06 0  0.62 0.06 0  0.63 0.06 0  0.64 0.06 0  0.65 0.06 0  0.66 0.06 0  0.67 0.06 0  0.68 0.06 0  0.6899999999999999 0.06 0  0.7 0.06 0  0.71 0.06 0  0.72 0.06 0  0.73 0.06 0  0.74 0.06 0  0.75 0.06 0  0.76 0.06 0  0.77 0.06 0  0.78 0.06 0  0.79 0.06 0  0.8 0.06 0  0.8100000000000001 0.06 0  0.82 0.06 0  0.83 0.06 0  0.84 0.06 0  0.85 0.06 0  0.86 0.06 0  0.87 0.06 0  0.88 0.06 0  0.89 0.06 0  0.9 0.06 0  0.91 0.06 0  0.92 0.06 0  0.93 0.06 0  0.9399999999999999 0.06 0  0.95 0.06 0  0.96 0.06 0  0.97 0.06 0  0.98 0.06 0  0.99 0.06 0  1 0.06 0  0 0.07000000000000001 0  0.01 0.07000000000000001 0  0.02 0.07000000000000001 0  0.03 0.07000000000000001 0  0.04 0.07000000000000001 0  0.05 0.07000000000000001 0  0.06 0.07000000000000001 0  0.07000000000000001 0.07000000000000001 0  0.08 0.07000000000000001 0  0.09 0.07000000000000001 0  0.1 0.07000000000000001 0  0.11 0.07000000000000001 0  0.12 0.07000000000000001 0  0.13 0.07000000000000001 0  0.14 0.07000000000000001 0  0.15 0.07000000000000001 0  0.16 0.07000000000000001 0  0.17 0.0700
[...]
<PointData  Scalars="Indicator Function"> 
<DataArray  type="Float64"  Name="Indicator Function"  format="ascii">-1.2037062152420224e-35  -6.1945061774834210e-20  2.9093845147568541e-20  2.1756487181065569e-19  3.3851113584402841e-19  -3.3279117235964977e-20  -2.8756970609256599e-20  6.5443149780845137e-19  8.7746771667260131e-19  -1.5046327690525280e-36  4.6148051862365922e-18  2.2012342228038398e-18  -3.7023684068227698e-20  -3.4869065149878765e-20  8.1090508732362127e-18  -9.0060470038206010e-21  -2.2059579490922064e-21  2.0691653882737675e-18  -3.5266033449274154e-20  -3.0092655381050560e-35  6.0974416627454300e-18  6.0185310762101120e-36  -3.7618617956025283e-20  1.1645639511551847e-17  -5.0382678048307206e-20  -2.5191339024153615e-20  -1.8914357107238655e-20  -4.4249523446744540e-20  4.1288510127963166e-17  -1.7075461383911343e-20  -7.8729008944732879e-20  -2.8429883594513410e-20  -4.6789671792956973e-20  -2.0442721771820756e-20  1.4642502334797740e-17  -8.7365609520139968e-20  -1.1908243831276813e-19  -1.3658838220912265e-19  -1.4223144311690669e-19  -1.3902586080752947e-19  9.0560505489881569e-18  -7.5952830099469118e-20  -2.4546982831858798e-20  -3.1767329317028595e-20  -2.3315692842640272e-20  -2.1651636771885274e-20  2.4989376273274104e-17  -1.4888008999075880e-20  -9.2199691877524471e-21  -4.2735375900602489e-21  -2.3111593718395020e-20  -1.1555796859197519e-20  -8.6365099838712427e-21  -1.0946072448698150e-20  -9.3887308965510948e-21  -4.2248398711444248e-21  2.8044883924441560e-19  -3.8549022626339968e-23  -4.7019774032891500e-37  -6.3433976912438121e-23  -2.9149372139842304e-22  -3.9775076851863272e-22  -8.0038287326749363e-22  -1.1139599647881123e-21  -2.2573950314976791e-21  -1.9663033504365376e-21  -1.1265084085025299e-22  -4.9265423444238767e-23  1.5630481007553457e-19  0.0000000000000000e+00  -3.6416641995071827e-23  -7.7484807589182662e-23  -6.4023990296081028e-23  -2.1809877507696573e-23  -5.8827333124651996e-23  -1.4339056121539490e-22  -2.4497094542640924e-23  -1.8032702463036800e-22  -4.8269416491144692e-22  -6.0622116588572217e-22  -6.9910565110802916e-22  9.6616212283531523e-20  -2.6487183254239317e-22  -1.9511056277171975e-22  -3.9879467471911495e-22  -2.6652637958079882e-22  -2.3809869177947713e-22  -1.1904934588973864e-22  -2.4943765286772252e-22  -1.0507746310971030e-22  -3.6033217641077340e-22  -3.1031636379704607e-22  -2.7287990873121797e-22  1.1840862542897830e-19  -4.5361744035322768e-23  2.9387358770557188e-39  -1.7567111274933646e-23  -3.4189314047295080e-23  -3.2019135952696497e-23  -3.1568451804309479e-40  6.1529782425854112e-39  -3.2604670519483578e-20  5.1880553046770915e-04  2.2598731121629948e-04  1.4014635218440779e-04  3.4846140005666851e-04  2.6300844822296809e-04  4.6799905582095954e-04  2.8404000057013026e-04  6.8290843936381245e-04  7.5543519121643125e-05  1.3096371738442008e-05  4.2493082623399849e-04  7.2133695218688397e-04  3.0629092300077073e-04  4.7499977376261906e-04  2.2858182995789990e-04  4.7947604743000563e-05  7.4742468493738795e-04  1.3063599108704296e-04  6.3529638040394601e-04  1.7319994385883050e-04  3.1841641071370444e-04  2.0477659839150813e-04  5.7528847604004427e-04  2.2818742735838325e-04  9.0761364033713600e-04  6.8146153296089955e-04  8.7452078928445815e-04  3.5986815458209160e-04  6.1520833220609934e-04  7.8792247217498535e-04  1.0242945052994969e-03  6.4328140842316724e-04  5.2124708959461132e-04  1.0763979181873165e-04  7.4282726028666120e-04  1.2024252757762638e-03  1.5439858613588784e-03  1.6885646182011351e-03  1.7179315877861073e-03  1.6455014658175553e-03  1.3079451268878429e-03  7.1427198589089295e-04  4.4219913093851686e-04  3.5116976442964488e-04  7.8008242638262656e-04  6.0915606744752231e-04  5.3639705424421349e-04  3.3218439838663495e-04  7.5979255069259712e-05  7.6985209192596604e-05  4.1634145943240844e-04  7.8437581394585532e-05  1.1636274188328356e-04  1.3900554026286791e-04  9.9629569737323513e-05  6.9623466858593865e-05  4.2657925930185764e-05  2.2089183736969888e-05  1.0771174959553153e-05  7.6468189285888542e-06  9.2295517037180268e-06  1.1815931584465520e-05  8.5104502469720874e-06  2.0067318729301571e-05  3.0631954326073039e-05  2.0105794982256865e-05  7.3665120708285088e-06  7.7002574541469806e-07  3.0385162184991467e-06  6.5579072479991341e-07  1.3214043021740010e-06  7.3514005125507156e-07  7.8578364973327318e-07  2.3918315803677232e-07  3.4009877308024281e-06  8.8260084683118266e-07  1.1516751342126191e-07  3.7884791549066300e-06  6.8012054674631058e-06  7.5201069334166299e-06  8.8339143325826351e-06  7.4913039332419036e-06  1.0258547787344975e-06  3.5147994311790589e-06  5.4266464782598461e-06  2.0879891759280474e-06  4.2892047183018232e-06  6.8335786202952927e-06  1.0766799718813377e-06  4.1116201027931972e-06  4.4353573702560361e-06  3.3724839563253569e-06  3.2295254429525829e-06  2.0002194342214224e-06  9.8287671000821977e-07  3.0401136632064476e-07  3.1646094316706883e-07  5.0554867331864514e-07  4.1345611512224563e-07  1.1475712467019668e-23  -1.3529834654293054e-20  5.8735352800833582e-04  1.5153788426248394e-04  9.9952261046807483e-05  2.9039206038410670e-06  3.6486310094708743e-04  5.1713077569039254e-04  6.3254897664403889e-04  7.5311042961269511e-04  2.0668078177543543e-05  2.7437163253587235e-04  4.4359041874337418e-04  5.8786936006825362e-04  9.8612083935090177e-04  8.4158928579694363e-04  5.7122465022900774e-04  1.2048226414759537e-03  6.1872562428030519e-06  5.1963973871464416e-04  9.1477913127194232e-04  4.3180924732845748e-04  1.5492210182346804e-03  1.0080121996985387e-03  1.6759380137078641e-03  9.4414946608660543e-04  1.1886287131040319e-03  1.4306434723798455e-05  3.4822909587238970e-04  1.6847593634130797e-03  1.1774207267787756e-03  1.0679745930332508e-04  1.6677703323158750e-03  1.6053800017367135e-04  1.1646950465104570e-03  6.1969765439515514e-04  8.7430249898659866e-04  1.5009100053591554e-03  1.9983211900407522e-03  2.3300258511543465e-03  2.4382825315005137e-03  2.3742018294969180e-03  2.1647470663086741e-03  1.5994848507841161e-03  2.9450373376931353e-04  1.0476195785388534e-03  9.1337136746786609e-04  8.1455805320473917e-04  1.1810023034141560e-03  9.7407231046536217e-04  2.7055664014375325e-04  3.9214798734161008e-04  5.8558724369775007e-04  2.9916887953078213e-04  3.3727233103263095e-04  1.5364279680645207e-04  1.4694783594099980e-04  9.0741860118374708e-05  7.8335254637367237e-05  4.1975090299710184e-05  2.3145820391024157e-05  1.4652438837344555e-05  9.3261920790707310e-06  1.0888752762364988e-05  2.2281761944005640e-05  6.8060172638363368e-06  4.7377183669412826e-05  3.2247620877224875e-05  1.2592191860342703e-05  1.0317330719544889e-05  4.3950045949308462e-07  2.6694339868737552e-06  2.1181704813831527e-06  2.6396491471871953e-06  4.5023586527228729e-07  4.4182142924063328e-06  4.1854549471418278e-07  4.7661093548815417e-06  5.3335824235361040e-08  4.7783910756293249e-06  7.9289176509889193e-06  1.0282688785045316e-05  1.2051102799788596e-05  1.1486702300660816e-05  4.2239414156490249e-06  2.1024068101574235e-06  8.9639757528573907e-06  1.5403204798955105e-06  5.3712371216074723e-06  5.7819778648049795e-06  5.3732554480313428e-06  3.9672687574053258e-06  5.8742532995985846e-06  6.6670185985482164e-06  4.7835346023077118e-06  3.1280375399927216e-06  2.5768830941596282e-06  3.0162502912026820e-07  9.5943017570582790e-08  3.9632294245859107e-07  1.6165122148115037e-07  1.8369725454258083e-23  -2.3066977349315060e-20  2.4373183322983527e-04  4.5173547323972240e-04  6.4150296288201982e-05  4.8843499036864283e-04  7.0660405142456274e-04  6.1292388429465109e-04  8.2753813664009958e-04  2.0347881735010621e-04  1.3290243325446260e-03  4.8803150515279870e-04  3.9520119327807112e-06  1.0382797629655141e-03  1.1773937159309871e-03  1.7950475493800806e-04  1.0652354642787794e-03  2.6453098421715424e-04  4.0576144522086444e-04  1.4371370900601568e-03  7.8094619121771606e-04  1.7230910633978227e-03  4.9216459506104234e-04  1.1401592796340448e-03  3.7153997070241471e-04  1.6877064202010194e-03  1.4394763651463232e-03  2.3878361804137295e-03  1.9952319780136476e-03  1.8801716229458138e-03  8.1282373981469091e-04  2.0776091009188156e-03  1.8082551370530949e-03  2.0458769495345086e-03  2.1069808031821281e-03  9.7590778021535926e-04  5.5293984592307527e-05  1.7942552306372743e-03  2.0972948678433675e-03  2.5437207361194173e-03  2.7639529016444927e-03  2.8144635528513863e-03  2.6574555790745201e-03  1.9961306420410831e-03  1.0839764078222438e-03  1.2624481900843257e-03  6.7180509706775036e-04  2.2445457795796557e-03  1.4150230137756432e-03  8.9647479268208097e-04  6.0691383960525375e-04  3.6488685239646751e-04  3.6181289358956772e-04  1.0492904876773885e-03  3.6246097324191192e-04  3.1487492923369453e-04  1.4517784962970838e-04  7.8460261318163280e-05  7.8279816141264529e-05  6.9451872441065907e-05  3.5784748021634612e-05  1.9164440468580763e-05  1.5170276939709491e-05  1.3147136951788187e-05  1.5848804709907662e-05  1.5936566852975611e-05  3.4118029263407914e-05  5.3400005759000993e-05  2.6791450680689672e-05  5.3238512847115888e-06  4.1139676023379940e-06  4.6146356822456382e-06  4.7429686571024345e-06  2.2043455461961145e-07  2.5718511468054334e-06  3.3155168204722394e-06  2.4513305293360792e-06  4.3586294812755430e-06  3.7055417008802231e-06  1.3341518331940658e-06  9.5450379303911304e-06  1.2250615472433114e-05  1.3101083394592149e-05  1.4205098537571869e-05  9.3746378232177617e-06  2.0961097228200508e-06  4.7239271974669380e-06  7.2252347909077060e-06  2.7043962272117352e-07  1.2466176729559205e-05  1.7388975172200532e-05  9.4087311209621653e-07  9.8640169930612812e-06  7.4417861311621063e-06  4.7960062546137689e-06  4.9639595799661989e-06  3.0235401478788623e-06  1.7773079365840797e-06  1.1008171461328148e-06  3.5338320215227410e-07  1.4730341563696812e-07  -1.9983403963978888e-37  -1.8867542904451125e-20  4.1553772237975655e-04  5.6750410082061296e-04  3.5758302326306180e-05  1.4753368706744681e-04  4.8144612704290800e-04  7.1174117472529782e-04  1.1333134790652687e-03  1.0241262932415189e-03  6.4369784283088921e-04  1.6637288341702746e-04  1.5489349293037514e-04  3.6906103467955411e-04  9.1714609292533678e-04  1.5120073703508369e-03  5.8740081543916722e-04  8.1597319646638201e-04  1.6896091672631722e-03  4.0238630463187405e-04  1.2132230856575072e-03  5.8551918926786359e-04  3.3441804950386277e-04  1.9925013648841722e-03  1.5735303510138838e-03  2.3588836817051407e-03  1.1900552491455757e-03  1.2053733563467189e-03  5.9400783795920584e-04  1.4772303288593535e-03  3.1749508711182020e-03  1.8455971404815795e-03  7.9243757881518133e-04  3.0823492946235090e-03  4.4863412565298162e-04  2.6055012025364868e-03  7.5366988118011618e-04  1.4858208292470099e-03  2.3090807136807215e-03  2.6082407889378325e-03  2.9573890318783463e-03  3.0687083513069612e-03  2.9911021572632045e-03  2.7344307560658748e-03  1.8632436730724546e-03  6.8133975261845409e-04  1.8558223872111943e-03  1.4963604516691070e-03  1.8942960889095015e-03  2.6810744686238059e-03  2.1129237038036504e-03  9.1961524876222234e-04  3.3930201143413303e-04  7.8662280844094207e-04  6.3050341795879022e-04  7.6833811646475616e-04  2.0814487977449108e-04  1.0325309382741237e-04  2.9722844376761468e-05  7.5057991413223350e-05  5.1027020705026470e-05  2.8627984310428065e-05  1.7482021756555192e-05  1.3237865271002167e-05  1.3364795765691583e-05  2.6937539343938935e-05  7.2861141284570200e-06  6.0331491558435295e-05  4.2937065287291753e-05  1.4218435639879505e-05  5.1871908821090172e-06  1.1458452680990877e-07  2.7448636573912894e-06  2.4254918089249424e-06  3.2051594061050289e-06  1.3587695924490834e-06  6.6577942079488707e-06  1.1146904464190149e-06  6.7791550602672892e-06  6.6381391382550737e-07  6.8203665201315515e-06  1.3693314182550437e-05  1.3117044993705027e-05  1.4351920604289094e-05  1.5354679103040585e-05  3.8093170200431614e-06  6.0387686896308125e-06  1.0004085367712004e-05  4.1545498735809357e-07  8.8037898384579451e-06  9.1442037003006996e-07  1.6537608241709811e-05  1.0826016322487484e-05  1.0629246967958477e-05  7.5444279542026972e-06  5.2970560029281397e-06  3.9042508201997633e-06  3.5126223594372621e-06  1.0784932076646398e-06  1.1026285242684605e-06  8.6537471663263793e-08  -5.8748356370429113e-23  -2.0836760603872858e-20  3.3988743677553136e-04  5.7362464349134160e-04  9.1725121349227378e-04  1.2488739608058387e-04  5.1393202429605251e-04  6.5030884109331310e-04  6.1527015828619970e-04  1.2679377779580810e-03  4.0099541855199370e-04  1.6610612951701181e-03  9.1555100345901575e-04  9.2269095073458770e-05  1.3461604554152393e-03  1.3265308245689845e-03  3.2399314403307026e-04  1.2867560659786689e-03  9.8468235934001712e-04  1.1032350790547748e-03  1.3401673602080545e-03  8.6434686314500186e-04  2.2288358406704219e-03  1.1454248961790937e-03  2.0296053725287495e-03  1.2076750749298705e-03  2.7573850995133492e-03  2.4759513477754500e-03  3.4205572012634090e-03  2.6108388888968423e-03  1.9544079889832330e-03  1.7189001787752073e-03  3.4128107775807867e-03  2.2133599610558484e-03  3.3550608300568011e-03  2.8550071314708903e-03  1.7845439844116683e-03  1.4499725492552598e-04  2.6437517488034812e-03  2.7313366494063278e-03  3.0765146742523920e-03  3.2938455355203773e-03  3.3382436850923946e-03  3.1387746929312926e-03  2.3535261015908558e-03  1.2377791972315944e-03  2.0649038452157866e-03  1.2141200725066588e-03  3.4742522546386666e-03  1.4251128454666028e-03  2.3420485662719597e-04  7.1170841159066321e-05  2.0123224242179962e-04  6.5208428942708943e-04  1.5428660042856193e-03  3.8725714884129656e-04  6.3991121267384875e-04  1.3600682631657488e-04  2.5075701947606259e-05  3.4641341224767750e-05  7.0193659679169130e-05  3.7661657834024474e-05  2.1509770145725551e-05  1.4832950878082648e-05  1.2509346439250087e-05  2.0809020206484672e-05  1.9996257282237344e-05  4.3713737451992104e-05  6.1840517618378733e-05  2.9068230137475137e-05  8.1660684934122370e-06  1.8516557849809310e-06  7.4821112627251115e-07  9.9473621043060152e-07  2.9910619118035220e-07  5.2551664404510640e-06  4.5744551208609723e-07  3.4095240733275884e-06  4.0780649982894416e-06  5.5945007097178557e-06  1.7319646881965473e-06  1.0470718452808881e-05  1.6060605228508503e-05  1.4112831763846276e-05  1.4448540390022409e-05  1.0804358494480980e-05  4.1537418059491780e-06  8.9922420053595349e-06  7.0075353478043237e-06  3.7460387547037480e-06  1.4137191479802453e-05  1.2966983619769374e-05  8.2338647784272824e-06  1.6411254885044161e-05  1.0401185419872728e-05  5.2493951891461669e-06  4.6616532428010003e-06  3.7904763185439661e-06  2.5359454869387990e-06  1.8137674664814968e-06  7.4101809456491282e-07  9.4039548065783001e-38  -1.0287266472861461e-20  3.7536170916484030e-04  6.2491560188992492e-04  5.1691559351824644e-04  6.0965428802900814e-04  2.3285114937140211e-04  5.7326291831279522e-04  1.0573440259185060e-03  1.4709559654071220e-03  1.3255759456429182e-03  5.7434060873722188e-04  5.1650571208348550e-04  2.4392637922108961e-04  3.3213063185365748e-04  1.3874256400033072e-03  1.8362730202837805e-03  3.3995726057993577e-04  6.4980051983811750e-04  1.3763986856772507e-03  1.9215778170026611e-04  1.6321191304088246e-03  1.2356455826727602e-04  2.0089475740305650e-04  1.6355277664233303e-03  1.3577381847750826e-03  2.2278442819408731e-03  7.2936886519930964e-04  6.2235343968525801e-04  1.4553666194063195e-03  2.4245149855864146e-03  4.2194410007509488e-03  1.9201301781422758e-03  1.8825739969583160e-03  4.2032679075336690e-03  1.0335158896839362e-03  3.8983517026212025e-03  1.0623113876958550e-03  1.8529676364193344e-03  3.2041081383075063e-03  3.2087666015771536e-03  3.5035962458088471e-03  3.6073171193735259e-03  3.5245144353641023e-03  3.2037907474772595e-03  2.0382756100783702e-03  8.7322833253311821e-04  2.7997060564502563e-03  1.7451561982810746e-03  3.0860409803110732e-03  3.4950877154641792e-03  2.4099837675587389e-03  1.1404845354088663e-03  1.8299401363895053e-04  6.5988498954526887e-04  1.0638660671266262e-03  1.0295278484936344e-03  3.6153475492606881e-04  5.6141871723987147e-05  3.2538346481004443e-05  5.7237193259300423e-05  5.7420602953546028e-05  2.9698982577547059e-05  1.9751327206819451e-05  1.3944994881641207e-05  1.0377601988865763e-05  3.4029683673619483e-05  9.4185044102195325e-06  7.5547992941672623e-05  4.8386966493704859e-05  1.1915884302170073e-05  6.5288742383975780e-06  2.9842244866738484e-06  2.4226755129811888e-06  4.3393625418256658e-08  1.2109161752897348e-07  3.4704213292568213e-06  2.6927334070513647e-06  1.3525570858034415e-06  6.4868823198804785e-06  1.1461347382558498e-06  2.4558069209317409e-06  1.4770892007228197e-05  1.6651983806066171e-05  1.4412473169700106e-05  1.4482803695801120e-05  2.9229138757717589e-06  9.2439499203435883e-06  1.3496271481304430e-05  8.0736534548350786e-07  1.2369383942863652e-05  1.3057232961253872e-06  1.7478696948435563e-05  4.9408054723793494e-06  1.6501655954897177e-05  8.2181730691777651e-06  4.4590754336276636e-06  3.8051382838781223e-06  2.7018999640211134e-06  1.0967532081142594e-06  6.2871521468735436e-07  4.7019774032891500e-38  -1.9952250746256576e-20  1.8531891781535962e-04  4.9058749290383321e-04  8.1698215472048854e-04  8.5686537870118895e-04  6.0208870001795788e-05  6.4885505665843418e-04  4.0758149692901759e-04  3.2764167179566211e-04  1.6783068949920903e-03  6.3494384182125215e-04  1.6182278478808641e-03  8.9810179807615735e-04  3.1009603448251262e-05  1.3992764758929339e-03  1.6396820056260677e-03  6.3503227105462916e-04  1.0920781786207610e-03  1.1336965803328298e-03  1.3604562422680996e-03  1.1694224455821047e-03  4.2900849419689004e-04  1.9979831751889051e-03  9.4762417304223722e-04  2.2390293431747768e-03  1.4047723154224261e-03  3.1109618771536594e-03  2.6376924210090857e-03  3.5531299248720153e-03  2.4482576603652878e-03  1.5347645395171364e-03  2.6889548958999804e-03  4.1515177111395426e-03  2.1468145678593940e-03  4.7542251209524858e-03  3.1605185073556568e-03  3.0011714571118496e-03  1.9924565771475364e-04  3.3005434783340407e-03  3.5809147424915302e-03  3.7197956586093425e-03  3.8960917175851289e-03  3.9263110451538477e-03  3.6905244505365661e-03  2.7534880694951996e-03  1.2751956195393567e-03  2.6542037173778116e-03  1.8875038666758843e-03  4.2829476997740552e-03  1.0198846127996079e-03  5.8589616700416617e-04  6.0238996894252360e-04  2.8084991539638267e-04  5.6029676172430652e-04  1.7166333133123775e-03  1.7812669424695850e-04  9.9502845977155266e-04  1.6884598345520482e-04  3.6568625873851002e-05  2.9217519530278764e-05  6.6156572587687640e-05  4.3891966119686311e-05  2.2559657963229672e-05  1.5998924760050357e-05  1.3616074232084738e-05  2.1387986275693481e-05  2.5882063757716816e-05  5.2685128060926834e-05  7.5071806845050001e-05  3.2238149808506195e-05  6.5722004341500883e-06  1.4916077062754685e-06  3.5451252551028734e-06  9.3938647920969098e-07  1.4481168538932644e-06  2.1377668903432851e-06  4.4094270087204602e-06  2.6640757122654229e-06  1.2321382724104662e-06  4.9778170400406339e-06  7.8438192373590723e-07  7.3263777641362233e-06  1.7073542465962389e-05  1.7120084508285896e-05  1.4972008703308775e-05  1.0322530516644435e-05  5.7224847131626496e-06  1.3452417596660320e-05  6.9133206484110133e-06  5.4689623921949663e-06  1.4868104951036074e-05  1.0370481137028641e-05  1.2713610364841324e-05  1.3389159976313767e-05  1.3596062419120333e-05  5.9249174074271104e-06  3.4891868461118599e-06  3.7201324837233627e-06  2.5675341127031941e-06  9.9180598005796317e-07  1.1539650683750323e-23  -1.1385190353063853e-20  3.5942779610417640e-04  5.9722075164585990e-04  6.7028075924416373e-04  6.2121529163583445e-04  9.5035401050993942e-04  1.1442610169547224e-04  4.6581213412699501e-04  9.7124689026591182e-04  1.5078493439730646e-03  1.6936511989680413e-03  7.3287666306336673e-04  5.4517455596970077e-04  5.1466181512275350e-04  3.7344653783129820e-04  1.6734492672824163e-03  2.0543801581996333e-03 