<?xml version="1.0"?>
<VTKFile type="UnstructuredGrid"  version="0.1"  >
<UnstructuredGrid>
<Piece  NumberOfPoints="10201" NumberOfCells="20000">
<Points>
<DataArray  type="Float64"  NumberOfComponents="3"  format="ascii">0 0 0  0.01 0 0  0.02 0 0  0.03 0 0  0.04 0 0  0.05 0 0  0.06 0 0  0.07000000000000001 0 0  0.08 0 0  0.09 0 0  0.1 0 0  0.11 0 0  0.12 0 0  0.13 0 0  0.14 0 0  0.15 0 0  0.16 0 0  0.17 0 0  0.18 0 0  0.19 0 0  0.2 0 0  0.21 0 0  0.22 0 0  0.23 0 0  0.24 0 0  0.25 0 0  0.26 0 0  0.27 0 0  0.28 0 0  0.29 0 0  0.3 0 0  0.31 0 0  0.32 0 0  0.33 0 0  0.34 0 0  0.35 0 0  0.36 0 0  0.37 0 0  0.38 0 0  0.39 0 0  0.4 0 0  0.41 0 0  0.42 0 0  0.43 0 0  0.44 0 0  0.45 0 0  0.46 0 0  0.47 0 0  0.48 0 0  0.49 0 0  0.5 0 0  0.51 0 0  0.52 0 0  0.53 0 0  0.54 0 0  0.55 0 0  0.5600000000000001 0 0  0.57 0 0  0.58 0 0  0.59 0 0  0.6 0 0  0.61 0 0  0.62 0 0  0.63 0 0  0.64 0 0  0.65 0 0  0.66 0 0  0.67 0 0  0.68 0 0  0.6899999999999999 0 0  0.7 0 0  0.71 0 0  0.72 0 0  0.73 0 0  0.74 0 0  0.75 0 0  0.76 0 0  0.77 0 0  0.78 0 0  0.79 0 0  0.8 0 0  0.8100000000000001 0 0  0.82 0 0  0.83 0 0  0.84 0 0  0.85 0 0  0.86 0 0  0.87 0 0  0.88 0 0  0.89 0 0  0.9 0 0  0.91 0 0  0.92 0 0  0.93 0 0  0.9399999999999999 0 0  0.95 0 0  0.96 0 0  0.97 0 0  0.98 0 0  0.99 0 0  1 0 0  0 0.01 0  0.01 0.01 0  0.02 0.01 0  0.03 0.01 0  0.04 0.01 0  0.05 0.01 0  0.06 0.01 0  0.07000000000000001 0.01 0  0.08 0.01 0  0.09 0.01 0  0.1 0.01 0  0.11 0.01 0  0.12 0.01 0  0.13 0.01 0  0.14 0.01 0  0.15 0.01 0  0.16 0.01 0  0.17 0.01 0  0.18 0.01 0  0.19 0.01 0  0.2 0.01 0  0.21 0.01 0  0.22 0.01 0  0.23 0.01 0  0.24 0.01 0  0.25 0.01 0  0.26 0.01 0  0.27 0.01 0  0.28 0.01 0  0.29 0.01 0  0.3 0.01 0  0.31 0.01 0  0.32 0.01 0  0.33 0.01 0  0.34 0.01 0  0.35 0.01 0  0.36 0.01 0  0.37 0.01 0  0.38 0.01 0  0.39 0.01 0  0.4 0.01 0  0.41 0.01 0  0.42 0.01 0  0.43 0.01 0  0.44 0.01 0  0.45 0.01 0  0.46 0.01 0  0.47 0.01 0  0.48 0.01 0  0.49 0.01 0  0.5 0.01 0  0.51 0.01 0  0.52 0.01 0  0.53 0.01 0  0.54 0.01 0  0.55 0.01 0  0.5600000000000001 0.01 0  0.57 0.01 0  0.58 0.01 0  0.59 0.01 0  0.6 0.01 0  0.61 0.01 0  0.62 0.01 0  0.63 0.01 0  0.64 0.01 0  0.65 0.01 0  0.66 0.01 0  0.67 0.01 0  0.68 0.01 0  0.6899999999999999 0.01 0  0.7 0.01 0  0.71 0.01 0  0.72 0.01 0  0.73 0.01 0  0.74 0.01 0  0.75 0.01 0  0.76 0.01 0  0.77 0.01 0  0.78 0.01 0  0.79 0.01 0  0.8 0.01 0  0.8100000000000001 0.01 0  0.82 0.01 0  0.83 0.01 0  0.84 0.01 0  0.85 0.01 0  0.86 0.01 0  0.87 0.01 0  0.88 0.01 0  0.89 0.01 0  0.9 0.01 0  0.91 0.01 0  0.92 0.01 0  0.93 0.01 0  0.9399999999999999 0.01 0  0.95 0.01 0  0.96 0.01 0  0.97 0.01 0  0.98 0.01 0  0.99 0.01 0  1 0.01 0  0 0.02 0  0.01 0.02 0  0.02 0.02 0  0.03 0.02 0  0.04 0.02 0  0.05 0.02 0  0.06 0.02 0  0.07000000000000001 0.02 0  0.08 0.02 0  0.09 0.02 0  0.1 0.02 0  0.11 0.02 0  0.12 0.02 0  0.13 0.02 0  0.14 0.02 0  0.15 0.02 0  0.16 0.02 0  0.17 0.02 0  0.18 0.02 0  0.19 0.02 0  0.2 0.02 0  0.21 0.02 0  0.22 0.02 0  0.23 0.02 0  0.24 0.02 0  0.25 0.02 0  0.26 0.02 0  0.27 0.02 0  0.28 0.02 0  0.29 0.02 0  0.3 0.02 0  0.31 0.02 0  0.32 0.02 0  0.33 0.02 0  0.34 0.02 0  0.35 0.02 0  0.36 0.02 0  0.37 0.02 0  0.38 0.02 0  0.39 0.02 0  0.4 0.02 0  0.41 0.02 0  0.42 0.02 0  0.43 0.02 0  0.44 0.02 0  0.45 0.02 0  0.46 0.02 0  0.47 0.02 0  0.48 0.02 0  0.49 0.02 0  0.5 0.02 0  0.51 0.02 0  0.52 0.02 0  0.53 0.02 0  0.54 0.02 0  0.55 0.02 0  0.5600000000000001 0.02 0  0.57 0.02 0  0.58 0.02 0  0.59 0.02 0  0.6 0.02 0  0.61 0.02 0  0.62 0.02 0  0.63 0.02 0  0.64 0.02 0  0.65 0.02 0  0.66 0.02 0  0.67 0.02 0  0.68 0.02 0  0.6899999999999999 0.02 0  0.7 0.02 0  0.71 0.02 0  0.72 0.02 0  0.73 0.02 0  0.74 0.02 0  0.75 0.02 0  0.76 0.02 0  0.77 0.02 0  0.78 0.02 0  0.79 0.02 0  0.8 0.02 0  0.8100000000000001 0.02 0  0.82 0.02 0  0.83 0.02 0  0.84 0.02 0  0.85 0.02 0  0.86 0.02 0  0.87 0.02 0  0.88 0.02 0  0.89 0.02 0  0.9 0.02 0  0.91 0.02 0  0.92 0.02 0  0.93 0.02 0  0.9399999999999999 0.02 0  0.95 0.02 0  0.96 0.02 0  0.97 0.02 0  0.98 0.02 0  0.99 0.02 0  1 0.02 0  0 0.03 0  0.01 0.03 0  0.02 0.03 0  0.03 0.03 0  0.04 0.03 0  0.05 0.03 0  0.06 0.03 0  0.07000000000000001 0.03 0  0.08 0.03 0  0.09 0.03 0  0.1 0.03 0  0.11 0.03 0  0.12 0.03 0  0.13 0.03 0  0.14 0.03 0  0.15 0.03 0  0.16 0.03 0  0.17 0.03 0  0.18 0.03 0  0.19 0.03 0  0.2 0.03 0  0.21 0.03 0  0.22 0.03 0  0.23 0.03 0  0.24 0.03 0  0.25 0.03 0  0.26 0.03 0  0.27 0.03 0  0.28 0.03 0  0.29 0.03 0  0.3 0.03 0  0.31 0.03 0  0.32 0.03 0  0.33 0.03 0  0.34 0.03 0  0.35 0.03 0  0.36 0.03 0  0.37 0.03 0  0.38 0.03 0  0.39 0.03 0  0.4 0.03 0  0.41 0.03 0  0.42 0.03 0  0.43 0.03 0  0.44 0.03 0  0.45 0.03 0  0.46 0.03 0  0.47 0.03 0  0.48 0.03 0  0.49 0.03 0  0.5 0.03 0  0.51 0.03 0  0.52 0.03 0  0.53 0.03 0  0.54 0.03 0  0.55 0.03 0  0.5600000000000001 0.03 0  0.57 0.03 0  0.58 0.03 0  0.59 0.03 0  0.6 0.03 0  0.61 0.03 0  0.62 0.03 0  0.63 0.03 0  0.64 0.03 0  0.65 0.03 0  0.66 0.03 0  0.67 0.03 0  0.68 0.03 0  0.6899999999999999 0.03 0  0.7 0.03 0  0.71 0.03 0  0.72 0.03 0  0.73 0.03 0  0.74 0.03 0  0.75 0.03 0  0.76 0.03 0  0.77 0.03 0  0.78 0.03 0  0.79 0.03 0  0.8 0.03 0  0.8100000000000001 0.03 0  0.82 0.03 0  0.83 0.03 0  0.84 0.03 0  0.85 0.03 0  0.86 0.03 0  0.87 0.03 0  0.88 0.03 0  0.89 0.03 0  0.9 0.03 0  0.91 0.03 0  0.92 0.03 0  0.93 0.03 0  0.9399999999999999 0.03 0  0.95 0.03 0  0.96 0.03 0  0.97 0.03 0  0.98 0.03 0  0.99 0.03 0  1 0.03 0  0 0.04 0  0.01 0.04 0  0.02 0.04 0  0.03 0.04 0  0.04 0.04 0  0.05 0.04 0  0.06 0.04 0  0.07000000000000001 0.04 0  0.08 0.04 0  0.09 0.04 0  0.1 0.04 0  0.11 0.04 0  0.12 0.04 0  0.13 0.04 0  0.14 0.04 0  0.15 0.04 0  0.16 0.04 0  0.17 0.04 0  0.18 0.04 0  0.19 0.04 0  0.2 0.04 0  0.21 0.04 0  0.22 0.04 0  0.23 0.04 0  0.24 0.04 0  0.25 0.04 0  0.26 0.04 0  0.27 0.04 0  0.28 0.04 0  0.29 0.04 0  0.3 0.04 0  0.31 0.04 0  0.32 0.04 0  0.33 0.04 0  0.34 0.04 0  0.35 0.04 0  0.36 0.04 0  0.37 0.04 0  0.38 0.04 0  0.39 0.04 0  0.4 0.04 0  0.41 0.04 0  0.42 0.04 0  0.43 0.04 0  0.44 0.04 0  0.45 0.04 0  0.46 0.04 0  0.47 0.04 0  0.48 0.04 0  0.49 0.04 0  0.5 0.04 0  0.51 0.04 0  0.52 0.04 0  0.53 0.04 0  0.54 0.04 0  0.55 0.04 0  0.5600000000000001 0.04 0  0.57 0.04 0  0.58 0.04 0  0.59 0.04 0  0.6 0.04 0  0.61 0.04 0  0.62 0.04 0  0.63 0.04 0  0.64 0.04 0  0.65 0.04 0  0.66 0.04 0  0.67 0.04 0  0.68 0.04 0  0.6899999999999999 0.04 0  0.7 0.04 0  0.71 0.04 0  0.72 0.04 0  0.73 0.04 0  0.74 0.04 0  0.75 0.04 0  0.76 0.04 0  0.77 0.04 0  0.78 0.04 0  0.79 0.04 0  0.8 0.04 0  0.8100000000000001 0.04 0  0.82 0.04 0  0.83 0.04 0  0.84 0.04 0  0.85 0.04 0  0.86 0.04 0  0.87 0.04 0  0.88 0.04 0  0.89 0.04 0  0.9 0.04 0  0.91 0.04 0  0.92 0.04 0  0.93 0.04 0  0.9399999999999999 0.04 0  0.95 0.04 0  0.96 0.04 0  0.97 0.04 0  0.98 0.04 0  0.99 0.04 0  1 0.04 0  0 0.05 0  0.01 0.05 0  0.02 0.05 0  0.03 0.05 0  0.04 0.05 0  0.05 0.05 0  0.06 0.05 0  0.07000000000000001 0.05 0  0.08 0.05 0  0.09 0.05 0  0.1 0.05 0  0.11 0.05 0  0.12 0.05 0  0.13 0.05 0  0.14 0.05 0  0.15 0.05 0  0.16 0.05 0  0.17 0.05 0  0.18 0.05 0  0.19 0.05 0  0.2 0.05 0  0.21 0.05 0  0.22 0.05 0  0.23 0.05 0  0.24 0.05 0  0.25 0.05 0  0.26 0.05 0  0.27 0.05 0  0.28 0.05 0  0.29 0.05 0  0.3 0.05 0  0.31 0.05 0  0.32 0.05 0  0.33 0.05 0  0.34 0.05 0  0.35 0.05 0  0.36 0.05 0  0.37 0.05 0  0.38 0.05 0  0.39 0.05 0  0.4 0.05 0  0.41 0.05 0  0.42 0.05 0  0.43 0.05 0  0.44 0.05 0  0.45 0.05 0  0.46 0.05 0  0.47 0.05 0  0.48 0.05 0  0.49 0.05 0  0.5 0.05 0  0.51 0.05 0  0.52 0.05 0  0.53 0.05 0  0.54 0.05 0  0.55 0.05 0  0.5600000000000001 0.05 0  0.57 0.05 0  0.58 0.05 0  0.59 0.05 0  0.6 0.05 0  0.61 0.05 0  0.62 0.05 0  0.63 0.05 0  0.64 0.05 0  0.65 0.05 0  0.66 0.05 0  0.67 0.05 0  0.68 0.05 0  0.6899999999999999 0.05 0  0.7 0.05 0  0.71 0.05 0  0.72 0.05 0  0.73 0.05 0  0.74 0.05 0  0.75 0.05 0  0.76 0.05 0  0.77 0.05 0  0.78 0.05 0  0.79 0.05 0  0.8 0.05 0  0.8100000000000001 0.05 0  0.82 0.05 0  0.83 0.05 0  0.84 0.05 0  0.85 0.05 0  0.86 0.05 0  0.87 0.05 0  0.88 0.05 0  0.89 0.05 0  0.9 0.05 0  0.91 0.05 0  0.92 0.05 0  0.93 0.05 0  0.9399999999999999 0.05 0  0.95 0.05 0  0.96 0.05 0  0.97 0.05 0  0.98 0.05 0  0.99 0.05 0  1 0.05 0  0 0.06 0  0.01 0.06 0  0.02 0.06 0  0.03 0.06 0  0.04 0.06 0  0.05 0.06 0  0.06 0.06 0  0.07000000000000001 0.06 0  0.08 0.06 0  0.09 0.06 0  0.1 0.06 0  0.11 0.06 0  0.12 0.06 0  0.13 0.06 0  0.14 0.06 0  0.15 0.06 0  0.16 0.06 0  0.17 0.06 0  0.18 0.06 0  0.19 0.06 0  0.2 0.06 0  0.21 0.06 0  0.22 0.06 0  0.23 0.06 0  0.24 0.06 0  0.25 0.06 0  0.26 0.06 0  0.27 0.06 0  0.28 0.06 0  0.29 0.06 0  0.3 0.06 0  0.31 0.06 0  0.32 0.06 0  0.33 0.06 0  0.34 0.06 0  0.35 0.06 0  0.36 0.06 0  0.37 0.06 0  0.38 0.06 0  0.39 0.06 0  0.4 0.06 0  0.41 0.06 0  0.42 0.06 0  0.43 0.06 0  0.44 0.06 0  0.45 0.06 0  0.46 0.06 0  0.47 0.06 0  0.48 0.06 0  0.49 0.06 0  0.5 0.06 0  0.51 0.06 0  0.52 0.06 0  0.53 0.06 0  0.54 0.06 0  0.55 0.06 0  0.5600000000000001 0.06 0  0.57 0.06 0  0.58 0.06 0  0.59 0.06 0  0.6 0.06 0  0.61 0.06 0  0.62 0.06 0  0.63 0.06 0  0.64 0.06 0  0.65 0.06 0  0.66 0.06 0  0.67 0.06 0  0.68 0.06 0  0.6899999999999999 0.06 0  0.7 0.06 0  0.71 0.06 0  0.72 0.06 0  0.73 0.06 0  0.74 0.06 0  0.75 0.06 0  0.76 0.06 0  0.77 0.06 0  0.78 0.06 0  0.79 0.06 0  0.8 0.06 0  0.8100000000000001 0.06 0  0.82 0.06 0  0.83 0.06 0  0.84 0.06 0  0.85 0.06 0  0.86 0.06 0  0.87 0.06 0  0.88 0.06 0  0.89 0.06 0  0.9 0.06 0  0.91 0.06 0  0.92 0.06 0  0.93 0.06 0  0.9399999999999999 0.06 0  0.95 0.06 0  0.96 0.06 0  0.97 0.06 0  0.98 0.06 0  0.99 0.06 0  1 0.06 0  0 0.07000000000000001 0  0.01 0.07000000000000001 0  0.02 0.07000000000000001 0  0.03 0.07000000000000001 0  0.04 0.07000000000000001 0  0.05 0.07000000000000001 0  0.06 0.07000000000000001 0  0.07000000000000001 0.07000000000000001 0  0.08 0.07000000000000001 0  0.09 0.07000000000000001 0  0.1 0.07000000000000001 0  0.11 0.07000000000000001 0  0.12 0.07000000000000001 0  0.13 0.07000000000000001 0  0.14 0.07000000000000001 0  0.15 0.07000000000000001 0  0.16 0.07000000000000001 0  0.17 0.0700
[...]
<PointData  Scalars="Indicator Function"> 
<DataArray  type="Float64"  Name="Indicator Function"  format="ascii">-1.2037062152420224e-35  -6.7378282652330244e-20  1.4937696993341098e-20  3.3533591179200912e-19  3.4532060009024295e-19  -3.5984264628497100e-20  -3.1498729230485913e-20  6.5384822720774893e-19  9.4038622289737723e-19  -1.2037062152420224e-35  5.0398850186656778e-18  3.0033239080821059e-18  -4.2775713826434701e-20  -3.6620205982224251e-20  7.5963766683768049e-18  -9.0468042354486641e-21  -6.9587164746095804e-21  2.1809421689995175e-18  -3.5863616918222236e-20  -4.8148248609680896e-35  5.5146298995614290e-18  6.0185310762101120e-36  -3.8972347206008536e-20  1.3411273499045881e-17  -5.2990064487238887e-20  -2.6495032243619459e-20  -1.9926914357558487e-20  -4.6372723466004853e-20  4.1450741880757960e-17  -1.7690530626575921e-20  -8.5385412851561534e-20  -3.0518586366759900e-20  -5.0136532139315841e-20  -1.5520291589214153e-20  2.5696259881451729e-17  -9.9377678343231153e-20  -1.3180392264473602e-19  -1.4921685330672333e-19  -1.5425270437487930e-19  -1.4996825207343405e-19  8.6828748459380353e-18  -8.9551557487965096e-20  -2.5852171870757104e-20  -3.4317984375605731e-20  -1.9455893642693465e-20  -2.3019044948733132e-20  3.0710580272976877e-17  -1.4597296829159466e-20  -8.8313457854141573e-21  -1.3785834280545077e-21  -2.2520577301791271e-20  -1.1260288650895636e-20  -8.2136343404651059e-21  -8.8701112614392303e-21  -8.3114972961308416e-21  -5.0790946619165886e-21  2.3970775620562326e-19  -1.2840279054419619e-21  -5.3730478186040279e-22  -3.5075084748680909e-22  -6.3934692570469905e-22  -4.8023403869576899e-22  -7.0162548714419551e-22  -1.3422497195456641e-21  -2.0666054734957922e-21  -1.7658133516898672e-21  -9.2795510113072010e-22  -3.3565165519723137e-21  3.4805661186009279e-18  4.7019774032891500e-38  -3.6519325016460139e-23  -2.1503135693648805e-22  -5.3746089190050503e-22  -6.9537149213942724e-22  -3.8586547180652401e-22  -1.9293273590326205e-22  -8.4386117421123584e-22  -1.1588641921466344e-21  -1.0441977969200830e-21  -8.8645752268836989e-22  -4.8430057068473967e-22  3.3113866866098257e-20  -4.3524719269057963e-22  -2.4324100880600746e-22  -7.0529661049337250e-38  7.0529661049337250e-38  0.0000000000000000e+00  -1.4105192153491832e-22  -5.8466265241421953e-23  -7.0529661049337250e-38  -2.5920837723800746e-22  -1.1558294165119303e-22  -1.5018373925790163e-22  8.3287096922043408e-19  -5.0804512975584500e-23  7.0529661049337250e-38  -2.3509887016445750e-38  2.3509887016445750e-38  -6.5831130717954264e-23  -3.2913399727076942e-23  1.8807909613156600e-37  -3.6575316547896852e-20  5.7689343163222929e-04  2.3865133876462057e-04  1.6179433930441910e-04  3.5547102306051883e-04  2.8720342358049667e-04  5.0463317129815501e-04  3.1511407525116529e-04  7.0828189862864248e-04  5.1442007768368732e-05  3.4026121080686909e-05  4.4288420223695559e-04  7.6461709036411277e-04  3.8827021021489667e-04  4.6555587895565390e-04  2.8718156134464846e-04  1.9381956062317354e-05  7.9046633050453398e-04  1.3309034745128011e-04  6.4606148715625530e-04  2.2289173325663609e-04  3.1875937799543319e-04  2.5959267901699417e-04  5.7226705391044165e-04  2.1063377789940161e-04  9.5458413871627042e-04  7.1794275260275307e-04  9.5431070662676458e-04  3.5822136717323375e-04  6.3736853710266857e-04  8.7723780098192174e-04  1.0995479535137131e-03  6.8800406899627135e-04  5.5917743534295125e-04  3.4311515892306912e-05  8.8345761557318393e-04  1.3485002928354912e-03  1.7001182412174655e-03  1.8379927391894955e-03  1.8597733181796427e-03  1.7717011975314676e-03  1.4192222870091729e-03  9.0360630022840208e-04  4.6571132641543884e-04  3.8536218337661851e-04  8.2934849802835081e-04  6.0021533864816287e-04  5.2592304448335263e-04  2.8436123810815050e-04  1.6910763299409524e-05  1.6378969601836813e-05  4.0569465417806242e-04  1.1447563661586588e-04  9.0725863912371690e-05  1.1442678713082432e-04  9.2513230937570743e-05  6.7866058901904300e-05  4.4649951395508232e-05  2.5796760114091032e-05  1.5976984421874510e-05  1.0740814816716995e-05  7.2039005093530508e-06  9.5054361049019937e-06  9.8287113997658372e-06  1.9265465647253099e-05  2.7595921737803362e-05  1.8012104541803650e-05  4.0400794938333163e-05  4.0265229301735031e-05  1.7693762900189292e-05  8.9573162439953369e-06  6.5787367414380681e-07  3.5447237188166541e-06  1.0519540438201353e-05  7.2669289524320874e-06  6.9511343801720087e-06  4.4166835908130682e-06  1.2993309683514065e-05  1.4379586533941340e-05  1.1620801969470842e-05  1.0158598090701041e-05  1.0687535800975195e-05  7.4512607276795191e-06  7.0790793564584352e-06  2.5255255976000566e-06  2.9265741370489942e-06  3.0397871971417719e-06  5.0819310501164062e-06  2.1064692028400982e-06  2.7426311308639112e-06  5.9966617043709544e-06  1.6711521523761252e-06  2.0821571718027940e-06  2.7054697286358533e-06  1.8304254856446559e-06  7.7782273457077472e-07  4.5110159776694204e-07  2.0596300003138957e-06  2.3718164461660562e-06  1.1858301979708803e-06  -2.9237652558123148e-22  -1.2710721285517566e-20  6.5888232790426457e-04  1.7095061676346447e-04  9.5070336356719396e-05  9.1204287650831329e-06  3.3710646176281239e-04  5.4953579791729254e-04  6.6162094494601686e-04  7.8662168390178616e-04  7.8461036399690330e-05  1.7084003231325972e-04  4.9714594132069050e-04  6.8583110948618414e-04  1.0057709145771230e-03  9.7186873250476580e-04  6.4700983717931810e-04  1.2519519957787954e-03  9.4487379924279420e-05  4.8720948137881680e-04  1.0209392924437747e-03  4.8735735852727227e-04  1.6606790828225116e-03  1.0822082691746661e-03  1.7927125780259868e-03  1.0359391528280411e-03  1.3129111083509698e-03  5.0068096065571007e-05  3.2335787943008282e-04  1.7694020432976851e-03  1.2950945311308816e-03  2.8581937276075928e-05  1.7736043522174633e-03  1.0737640962131886e-04  1.1915057738882782e-03  6.8243359074890366e-04  1.2236144514217644e-03  1.6656102072675255e-03  2.2177611909465983e-03  2.5511260212825872e-03  2.6444373112766797e-03  2.5721791710029700e-03  2.3694196483270758e-03  1.7912285740353318e-03  2.2563610554520919e-04  1.1025772810929577e-03  9.6222566293221762e-04  9.2785735014864915e-04  1.3100619239841929e-03  1.1192705417886950e-03  4.0660834027556487e-04  3.6702311162961930e-04  6.7484734416566831e-04  1.9210486848574411e-04  2.8246117824541145e-04  1.1417652625693042e-04  1.2204063309278614e-04  9.6926340700561012e-05  7.5371239494996799e-05  4.9618322326941550e-05  2.8143558115495227e-05  1.8839242599010173e-05  1.5525323162263843e-05  1.1158057106708443e-05  1.3048778514338403e-05  2.4369134594982891e-05  2.5861740234283678e-05  4.6346772394488063e-05  2.9610683447793073e-05  7.1318117281122596e-05  2.7592746562114483e-05  1.0414611897621233e-05  7.9168051452724834e-06  4.9208478487453317e-06  7.1080719040113963e-06  1.9725054275410875e-05  6.1643867039199527e-06  3.6509365300420465e-06  1.8863381683612707e-05  1.7447458841972387e-05  1.8622499505424730e-05  1.7867291998650208e-05  1.1056010361732545e-05  1.4311758808350522e-05  9.4834008972131066e-06  6.4277310251648340e-06  4.9493243534193659e-06  3.9126748019505118e-06  4.1005465582068121e-06  5.0365603921766306e-06  4.9336801103662680e-06  1.6632076992009369e-06  8.2186504076093013e-06  4.6704945378508221e-06  1.6509224402499655e-05  8.0651818835546854e-06  9.7728451979884716e-06  1.8074260276332534e-07  6.8398702183044674e-07  4.5395825617787014e-06  1.0262657998132102e-05  2.5636138207604586e-21  -2.4309527615917988e-20  2.2897599858026947e-04  4.5506108771655411e-04  7.4093891219404126e-05  5.4558960049010455e-04  7.5334940599298787e-04  6.7019674574496986e-04  8.8713481180002014e-04  2.2455391010859634e-04  1.3472049500690148e-03  5.1488080372623390e-04  1.0954848786404530e-05  1.0692800315364587e-03  1.2841577224572168e-03  2.8975690563585473e-04  1.0225629115599075e-03  1.7675004937221412e-04  3.1399248091851955e-04  1.5889435084459104e-03  8.4661692381745408e-04  1.7884748928216918e-03  4.2985639546112419e-04  1.1486365409331223e-03  3.0671385026543652e-04  1.6877739097593805e-03  1.4544748665094671e-03  2.5234373399448578e-03  2.1445286879572026e-03  2.0660059024326972e-03  7.8076211847579954e-04  2.1971268714535107e-03  2.0267211154916232e-03  2.1704914968127529e-03  2.2909858867860016e-03  1.0255116786209186e-03  3.1191982810300107e-04  2.0497972812266465e-03  2.2937395471977541e-03  2.8094807166832358e-03  3.0267295254638098e-03  3.0624373442416203e-03  2.8743188233895057e-03  2.1973933610704706e-03  1.4587153261810090e-03  1.4338665381247418e-03  7.6288886583367513e-04  2.4129294450802273e-03  1.3747149651576200e-03  7.9321047122026033e-04  4.3167817900817776e-04  8.7399879928754746e-05  1.5742307395619237e-04  1.0336877484539875e-03  4.8497782147695107e-04  2.0902642155707504e-04  1.0146066601119619e-04  8.3539766233609006e-05  8.3150427889719074e-05  6.7376166236514381e-05  4.1221660267435572e-05  2.7017584614604650e-05  1.9226076294311640e-05  1.4012259596298422e-05  1.8344195819493198e-05  1.5585594443427876e-05  3.5604462086716127e-05  3.8748119046085228e-05  2.7853129426845664e-05  9.3784968609678679e-05  5.8199323187413385e-05  2.7941869714323738e-07  6.7198814095638720e-06  8.0643265439204041e-07  3.2098879197892910e-06  1.6009354812545473e-05  1.2818597026415911e-05  1.6929351626536085e-05  1.3875944567463656e-05  2.5423853904028162e-05  1.9414967905179763e-05  1.6072942372682006e-05  1.8441200527299811e-05  1.6787353784805478e-05  1.1430872893777586e-05  1.1562947515078652e-05  2.1512103039394646e-06  7.5677480192874713e-06  6.2250998603299031e-06  8.5474896068147192e-06  5.9579419541749077e-06  1.1858670498783762e-05  1.2143341403800769e-05  2.7807878944375281e-06  7.5204982358446645e-06  1.9426651579398743e-05  1.3159038412439201e-06  4.7839977895659101e-06  5.3490470847643474e-06  2.2049207783720440e-06  1.8251932174912912e-07  -2.4450282497103580e-36  -1.8734550799345797e-20  4.3792151805040495e-04  6.1950526354975397e-04  8.7726665638024212e-06  1.5411496807681975e-04  4.9493730183192911e-04  6.9946952379761572e-04  1.1793217107712406e-03  1.0674421260415195e-03  6.8461296322950540e-04  2.2013952614319209e-04  3.3565298786258377e-05  4.9288629400681466e-04  1.0380473928825477e-03  1.5137882093358634e-03  7.9979959700457622e-04  1.0068986816829924e-03  1.8218752922410700e-03  3.4755588902345494e-04  1.1859935053007942e-03  7.1512405217086673e-04  4.3757481072065178e-04  2.1919191939280031e-03  1.7269015723559143e-03  2.5775469219067827e-03  1.3688952647518914e-03  1.3986899272953690e-03  5.1093652997725688e-04  1.4986991866577310e-03  3.3690909805679753e-03  2.0574581893298082e-03  7.0554997412835066e-04  3.2905460001274442e-03  3.7787016835037724e-04  2.7039782240313600e-03  8.6894354950191256e-04  2.1013299002045705e-03  2.4733361616990960e-03  2.8698771104433457e-03  3.2601979433429123e-03  3.3573351580594483e-03  3.2707876189708393e-03  3.0085079462492700e-03  2.0982997133680127e-03  5.3624700839162995e-04  2.0529169681775096e-03  1.5507551412989645e-03  2.1208605407685359e-03  2.9052421286123939e-03  2.3018512304351260e-03  1.0547717565676849e-03  3.9195058801266066e-04  1.0022616122165391e-03  4.4051443787953551e-04  7.2421991089257069e-04  1.2665609146545538e-04  7.6008331090936807e-05  6.0513184392973480e-05  7.0632020314310493e-05  5.4926214173539068e-05  3.0526525406122586e-05  2.3006885732986114e-05  2.0202417911660035e-05  1.2505443632715363e-05  1.8160617373326831e-05  2.8891474054870799e-05  3.2784959914266045e-05  6.1268449001135978e-05  4.4990747929005846e-05  1.1450322340471096e-04  1.7876874515471211e-05  1.0088393268728557e-05  6.5747911690634976e-06  5.6748692483911064e-06  4.7177718789184215e-06  2.6122906329917517e-05  1.1971968966894876e-05  9.1352496036142783e-06  3.0601721652256819e-05  2.2814033079450527e-05  2.0613381605530918e-05  1.7287286094271099e-05  1.1830421386139590e-05  1.9874561334798850e-05  1.0298208465952793e-05  9.1228404086133164e-06  3.6009159850580925e-06  6.9957549935046950e-06  7.4319961364925638e-06  9.1444886393988723e-06  1.3012782363769375e-06  4.5324009425607098e-06  1.6727646616449012e-05  5.3514763548464882e-06  1.8871133925477936e-05  8.3552844512325460e-06  1.7723140306112868e-05  1.4403106508740441e-06  5.2528701246701248e-06  2.9809224428932865e-06  -4.1952954404424218e-22  -2.3472049009079497e-20  3.3749166399554890e-04  5.9151560936247750e-04  9.6390959016892219e-04  1.3812415263254958e-04  5.6977436040793526e-04  7.3034577557054960e-04  6.9126525941538234e-04  1.3377814557334524e-03  4.0485279945454681e-04  1.6902914317547990e-03  9.1773234245615370e-04  1.5346543243616187e-05  1.4217422079960927e-03  1.4990928101830279e-03  3.9571015071795100e-04  1.2713085121819347e-03  9.6364803914657238e-04  1.0295183534475827e-03  1.5698659739693645e-03  9.9928691294416108e-04  2.3589312726615551e-03  1.1292988970722428e-03  2.0890002334075278e-03  1.1917412605859750e-03  2.8173751009928066e-03  2.5524015563781659e-03  3.6689140153984257e-03  2.8593742435292758e-03  2.2065573090720566e-03  1.7051927736566335e-03  3.6494099056389273e-03  2.5469947510211718e-03  3.5599124818971469e-03  3.1656761964697962e-03  1.8630140557984378e-03  4.1433500736055183e-04  3.1350040095569861e-03  2.9401171345831115e-03  3.4118732121985519e-03  3.6400758417164249e-03  3.6615286284409129e-03  3.4228118356617204e-03  2.6257070214178858e-03  1.7102764421369197e-03  2.3110002541334934e-03  1.3974986510820948e-03  3.7393917750299004e-03  1.3278594526001041e-03  2.3522093454616349e-05  2.0189490529513122e-04  1.9777253963772646e-04  3.7778803201948710e-04  1.5808299552258875e-03  6.0576297997261231e-04  4.7744157124266065e-04  7.6302584195179539e-05  4.3467727130841956e-05  6.0838777215474118e-05  6.5603518826611395e-05  4.2519127607648539e-05  2.6325206538446799e-05  1.9522070188590431e-05  1.5867956677905758e-05  1.8350151069505303e-05  1.5542539647561505e-05  4.1497745676491209e-05  4.0625576528640954e-05  4.2471929766324024e-05  1.2687511888280308e-04  7.9347016368913777e-05  2.0007739708714268e-05  3.6636394267984777e-06  1.7788423135705990e-06  2.4537159973658727e-06  1.6063843445283921e-05  1.8095057862007170e-05  2.7705358124377067e-05  1.4109556205855102e-05  3.2704368041764895e-05  1.9961112513569619e-05  1.7926840726707714e-05  1.9508473201756046e-05  1.3441151932406076e-05  1.2907501956795291e-05  1.1183315973781092e-05  1.8992526733393736e-06  8.2205387030770103e-06  6.8147246059072167e-06  1.0527423527310222e-05  3.4885825479190738e-06  1.2974691271953684e-05  1.0879911056625768e-05  3.2614359538386508e-06  1.1844526488268095e-05  3.2601526213981841e-05  7.8047756377139385e-06  1.0275432787362621e-05  4.8984167307144264e-06  2.8795993156739579e-06  8.5223340434615844e-38  -1.3083535324601713e-20  4.2283484468364998e-04  6.5487590639115329e-04  5.6672530949632811e-04  6.0346616488132147e-04  2.4664158914852746e-04  6.0969827251882716e-04  1.0811225214203688e-03  1.5419437339646025e-03  1.3878779719556911e-03  6.0535472399961016e-04  5.4302751030861076e-04  4.3256232269711013e-04  4.6289210406629428e-04  1.5156875011080723e-03  1.8736242388749864e-03  5.7461977200038740e-04  9.1069286343723691e-04  1.5292122216275434e-03  1.8456595443037518e-04  1.6747398823372176e-03  2.1435239898451904e-04  9.9120004906608228e-05  1.8623230573301518e-03  1.5451947389625348e-03  2.4878622128292061e-03  9.4950449060560616e-04  8.3250600889904079e-04  1.4133686881339887e-03  2.5102019529170743e-03  4.5369316608957124e-03  2.1989153810570792e-03  1.8398593752417295e-03  4.5519619620763042e-03  9.6306155221147910e-04  4.1279033511861969e-03  1.2152720779931749e-03  2.6147898978936012e-03  3.4701925249896407e-03  3.5125964884006049e-03  3.9009759248151542e-03  3.9927201631316826e-03  3.8915513918645647e-03  3.5427676720213943e-03  2.3301595402358700e-03  6.7990741398263419e-04  3.1636515491691099e-03  1.7999788965477543e-03  3.4398211236399802e-03  3.7288579351455252e-03  2.5605780307257553e-03  1.1878965962851776e-03  3.9984157328879524e-04  1.0025203996348057e-03  8.3900080247899104e-04  1.0563709921795898e-03  2.1002917758935927e-04  2.1654034935652308e-05  2.0057111233407598e-05  6.2030271515709398e-05  6.0201124837355956e-05  3.3409431636898341e-05  2.5343097271722213e-05  2.1161237168870487e-05  1.1826476275432114e-05  1.9398538383075700e-05  2.7440011844129428e-05  3.9737615766475050e-05  6.5682919662053081e-05  4.5103411795637078e-05  1.5298961701215699e-04  1.7327795412250224e-05  3.2401199091845397e-05  3.8480491724206716e-06  3.4013938354406756e-06  1.7778206225004057e-06  2.7729763294934503e-05  1.3050643548069884e-05  1.7313405144648270e-05  3.6191274686504607e-05  2.5726639755688706e-05  1.8092583343177913e-05  1.5866189516841439e-05  1.5039933456018253e-05  1.9645500774057302e-05  8.8203096262821179e-06  8.5364566636369988e-06  7.2434958535683918e-07  8.6232696226338578e-06  6.8167209246819949e-06  9.1171046423866062e-06  5.8109326786441007e-06  1.1359744186225422e-05  2.1041359525966189e-05  7.5762180993504447e-06  9.8243558072385522e-06  1.1061179347354621e-06  1.3278660306367253e-05  1.4980520398437216e-06  4.4107381541691992e-06  -2.4484515271756556e-22  -2.1080925372794020e-20  2.3569201925026018e-04  5.3591372381226019e-04  8.7934442451831417e-04  9.1550623795819402e-04  6.8690934782393034e-05  7.1501647978144901e-04  4.8096460844298747e-04  4.0255488950487596e-04  1.7730391971097323e-03  6.4467160757367148e-04  1.6733067501034766e-03  9.1451327640107829e-04  1.8901018348691182e-04  1.5437055227159248e-03  1.8484732928738484e-03  6.8268734133461158e-04  1.1218883427134374e-03  1.2047194447085869e-03  1.3370866564686055e-03  1.3829260800676199e-03  5.6675650129511302e-04  2.1521547781539248e-03  9.5265701654862281e-04  2.3451972682804229e-03  1.4336660169790695e-03  3.2231975265764332e-03  2.7797716253326970e-03  3.8727207791488015e-03  2.7546357322909606e-03  1.8059438120351992e-03  2.7290908614695732e-03  4.4953210093698834e-03  2.5653983086093382e-03  5.0907299485611693e-03  3.5681441223501930e-03  3.1655638111030165e-03  4.9365260731699229e-04  4.0389115588291991e-03  3.8269451777532435e-03  4.1317509100781847e-03  4.3550074815732268e-03  4.3573062203312489e-03  4.0725700309958866e-03  3.1100417677733996e-03  1.8229182908705798e-03  2.8989866949952012e-03  2.2435576697957993e-03  4.6127284105495128e-03  8.8101580277252236e-04  8.4255159828806631e-04  8.7293408235202886e-04  6.4760662089706868e-04  3.4395733210644547e-04  1.8660096642348089e-03  4.6457257351336853e-04  8.5528442380700229e-04  7.0766839090868314e-05  1.3990654888728058e-05  2.1150774971751156e-05  5.9408775054047300e-05  4.7364859401829522e-05  2.8900710660792306e-05  2.3360122775170716e-05  1.9941302241965709e-05  1.7738397482827355e-05  1.7350153317823835e-05  4.2857626033057350e-05  4.6068005384469034e-05  5.1444584503329131e-05  1.4454011714227008e-04  1.0949667713979699e-04  3.3412396361395018e-05  2.0662049970733372e-05  1.5448585469960256e-06  3.1151704257570928e-07  1.4378674009789226e-05  1.9420182882480044e-05  3.5396885134291658e-05  9.6128789347762370e-06  3.9128225004550204e-05  2.1112828128112072e-05  1.6861303311418201e-05  1.4878031172589643e-05  1.2405985485995311e-05  1.5837428541123514e-05  9.6672906604522760e-06  3.5725024840749910e-06  4.3156038474168130e-06  7.9354535067475593e-06  1.0028648326308144e-05  3.3525411009464294e-06  3.3609932238662786e-06  1.2729358732197533e-05  7.1744183549032054e-06  1.0188665461615767e-05  3.2962946650894813e-05  9.3416125575202707e-06  1.1260892422893898e-05  8.7133973835340414e-07  -1.2092267997385067e-22  -1.5351789435506724e-20  3.7976019061416284e-04  6.5219074320440663e-04  7.1464702518205718e-04  7.0398093856840539e-04  9.8551624168122806e-04  1.2638446126969218e-04  5.1720075626030806e-04  1.0090632272353357e-03  1.6026112599091648e-03  1.7759246482154912e-03  7.5997740199030476e-04  5.6771391658033893e-04  6.6464189979245560e-04  4.2842284032173632e-04  1.8488334502622286e-03  2.1518415401507282e-03 