<?xml version="1.0"?>
<VTKFile type="UnstructuredGrid"  version="0.1"  >
<UnstructuredGrid>
<Piece  NumberOfPoints="10201" NumberOfCells="20000">
<Points>
<DataArray  type="Float64"  NumberOfComponents="3"  format="ascii">0 0 0  0.01 0 0  0.02 0 0  0.03 0 0  0.04 0 0  0.05 0 0  0.06 0 0  0.07000000000000001 0 0  0.08 0 0  0.09 0 0  0.1 0 0  0.11 0 0  0.12 0 0  0.13 0 0  0.14 0 0  0.15 0 0  0.16 0 0  0.17 0 0  0.18 0 0  0.19 0 0  0.2 0 0  0.21 0 0  0.22 0 0  0.23 0 0  0.24 0 0  0.25 0 0  0.26 0 0  0.27 0 0  0.28 0 0  0.29 0 0  0.3 0 0  0.31 0 0  0.32 0 0  0.33 0 0  0.34 0 0  0.35 0 0  0.36 0 0  0.37 0 0  0.38 0 0  0.39 0 0  0.4 0 0  0.41 0 0  0.42 0 0  0.43 0 0  0.44 0 0  0.45 0 0  0.46 0 0  0.47 0 0  0.48 0 0  0.49 0 0  0.5 0 0  0.51 0 0  0.52 0 0  0.53 0 0  0.54 0 0  0.55 0 0  0.5600000000000001 0 0  0.57 0 0  0.58 0 0  0.59 0 0  0.6 0 0  0.61 0 0  0.62 0 0  0.63 0 0  0.64 0 0  0.65 0 0  0.66 0 0  0.67 0 0  0.68 0 0  0.6899999999999999 0 0  0.7 0 0  0.71 0 0  0.72 0 0  0.73 0 0  0.74 0 0  0.75 0 0  0.76 0 0  0.77 0 0  0.78 0 0  0.79 0 0  0.8 0 0  0.8100000000000001 0 0  0.82 0 0  0.83 0 0  0.84 0 0  0.85 0 0  0.86 0 0  0.87 0 0  0.88 0 0  0.89 0 0  0.9 0 0  0.91 0 0  0.92 0 0  0.93 0 0  0.9399999999999999 0 0  0.95 0 0  0.96 0 0  0.97 0 0  0.98 0 0  0.99 0 0  1 0 0  0 0.01 0  0.01 0.01 0  0.02 0.01 0  0.03 0.01 0  0.04 0.01 0  0.05 0.01 0  0.06 0.01 0  0.07000000000000001 0.01 0  0.08 0.01 0  0.09 0.01 0  0.1 0.01 0  0.11 0.01 0  0.12 0.01 0  0.13 0.01 0  0.14 0.01 0  0.15 0.01 0  0.16 0.01 0  0.17 0.01 0  0.18 0.01 0  0.19 0.01 0  0.2 0.01 0  0.21 0.01 0  0.22 0.01 0  0.23 0.01 0  0.24 0.01 0  0.25 0.01 0  0.26 0.01 0  0.27 0.01 0  0.28 0.01 0  0.29 0.01 0  0.3 0.01 0  0.31 0.01 0  0.32 0.01 0  0.33 0.01 0  0.34 0.01 0  0.35 0.01 0  0.36 0.01 0  0.37 0.01 0  0.38 0.01 0  0.39 0.01 0  0.4 0.01 0  0.41 0.01 0  0.42 0.01 0  0.43 0.01 0  0.44 0.01 0  0.45 0.01 0  0.46 0.01 0  0.47 0.01 0  0.48 0.01 0  0.49 0.01 0  0.5 0.01 0  0.51 0.01 0  0.52 0.01 0  0.53 0.01 0  0.54 0.01 0  0.55 0.01 0  0.5600000000000001 0.01 0  0.57 0.01 0  0.58 0.01 0  0.59 0.01 0  0.6 0.01 0  0.61 0.01 0  0.62 0.01 0  0.63 0.01 0  0.64 0.01 0  0.65 0.01 0  0.66 0.01 0  0.67 0.01 0  0.68 0.01 0  0.6899999999999999 0.01 0  0.7 0.01 0  0.71 0.01 0  0.72 0.01 0  0.73 0.01 0  0.74 0.01 0  0.75 0.01 0  0.76 0.01 0  0.77 0.01 0  0.78 0.01 0  0.79 0.01 0  0.8 0.01 0  0.8100000000000001 0.01 0  0.82 0.01 0  0.83 0.01 0  0.84 0.01 0  0.85 0.01 0  0.86 0.01 0  0.87 0.01 0  0.88 0.01 0  0.89 0.01 0  0.9 0.01 0  0.91 0.01 0  0.92 0.01 0  0.93 0.01 0  0.9399999999999999 0.01 0  0.95 0.01 0  0.96 0.01 0  0.97 0.01 0  0.98 0.01 0  0.99 0.01 0  1 0.01 0  0 0.02 0  0.01 0.02 0  0.02 0.02 0  0.03 0.02 0  0.04 0.02 0  0.05 0.02 0  0.06 0.02 0  0.07000000000000001 0.02 0  0.08 0.02 0  0.09 0.02 0  0.1 0.02 0  0.11 0.02 0  0.12 0.02 0  0.13 0.02 0  0.14 0.02 0  0.15 0.02 0  0.16 0.02 0  0.17 0.02 0  0.18 0.02 0  0.19 0.02 0  0.2 0.02 0  0.21 0.02 0  0.22 0.02 0  0.23 0.02 0  0.24 0.02 0  0.25 0.02 0  0.26 0.02 0  0.27 0.02 0  0.28 0.02 0  0.29 0.02 0  0.3 0.02 0  0.31 0.02 0  0.32 0.02 0  0.33 0.02 0  0.34 0.02 0  0.35 0.02 0  0.36 0.02 0  0.37 0.02 0  0.38 0.02 0  0.39 0.02 0  0.4 0.02 0  0.41 0.02 0  0.42 0.02 0  0.43 0.02 0  0.44 0.02 0  0.45 0.02 0  0.46 0.02 0  0.47 0.02 0  0.48 0.02 0  0.49 0.02 0  0.5 0.02 0  0.51 0.02 0  0.52 0.02 0  0.53 0.02 0  0.54 0.02 0  0.55 0.02 0  0.5600000000000001 0.02 0  0.57 0.02 0  0.58 0.02 0  0.59 0.02 0  0.6 0.02 0  0.61 0.02 0  0.62 0.02 0  0.63 0.02 0  0.64 0.02 0  0.65 0.02 0  0.66 0.02 0  0.67 0.02 0  0.68 0.02 0  0.6899999999999999 0.02 0  0.7 0.02 0  0.71 0.02 0  0.72 0.02 0  0.73 0.02 0  0.74 0.02 0  0.75 0.02 0  0.76 0.02 0  0.77 0.02 0  0.78 0.02 0  0.79 0.02 0  0.8 0.02 0  0.8100000000000001 0.02 0  0.82 0.02 0  0.83 0.02 0  0.84 0.02 0  0.85 0.02 0  0.86 0.02 0  0.87 0.02 0  0.88 0.02 0  0.89 0.02 0  0.9 0.02 0  0.91 0.02 0  0.92 0.02 0  0.93 0.02 0  0.9399999999999999 0.02 0  0.95 0.02 0  0.96 0.02 0  0.97 0.02 0  0.98 0.02 0  0.99 0.02 0  1 0.02 0  0 0.03 0  0.01 0.03 0  0.02 0.03 0  0.03 0.03 0  0.04 0.03 0  0.05 0.03 0  0.06 0.03 0  0.07000000000000001 0.03 0  0.08 0.03 0  0.09 0.03 0  0.1 0.03 0  0.11 0.03 0  0.12 0.03 0  0.13 0.03 0  0.14 0.03 0  0.15 0.03 0  0.16 0.03 0  0.17 0.03 0  0.18 0.03 0  0.19 0.03 0  0.2 0.03 0  0.21 0.03 0  0.22 0.03 0  0.23 0.03 0  0.24 0.03 0  0.25 0.03 0  0.26 0.03 0  0.27 0.03 0  0.28 0.03 0  0.29 0.03 0  0.3 0.03 0  0.31 0.03 0  0.32 0.03 0  0.33 0.03 0  0.34 0.03 0  0.35 0.03 0  0.36 0.03 0  0.37 0.03 0  0.38 0.03 0  0.39 0.03 0  0.4 0.03 0  0.41 0.03 0  0.42 0.03 0  0.43 0.03 0  0.44 0.03 0  0.45 0.03 0  0.46 0.03 0  0.47 0.03 0  0.48 0.03 0  0.49 0.03 0  0.5 0.03 0  0.51 0.03 0  0.52 0.03 0  0.53 0.03 0  0.54 0.03 0  0.55 0.03 0  0.5600000000000001 0.03 0  0.57 0.03 0  0.58 0.03 0  0.59 0.03 0  0.6 0.03 0  0.61 0.03 0  0.62 0.03 0  0.63 0.03 0  0.64 0.03 0  0.65 0.03 0  0.66 0.03 0  0.67 0.03 0  0.68 0.03 0  0.6899999999999999 0.03 0  0.7 0.03 0  0.71 0.03 0  0.72 0.03 0  0.73 0.03 0  0.74 0.03 0  0.75 0.03 0  0.76 0.03 0  0.77 0.03 0  0.78 0.03 0  0.79 0.03 0  0.8 0.03 0  0.8100000000000001 0.03 0  0.82 0.03 0  0.83 0.03 0  0.84 0.03 0  0.85 0.03 0  0.86 0.03 0  0.87 0.03 0  0.88 0.03 0  0.89 0.03 0  0.9 0.03 0  0.91 0.03 0  0.92 0.03 0  0.93 0.03 0  0.9399999999999999 0.03 0  0.95 0.03 0  0.96 0.03 0  0.97 0.03 0  0.98 0.03 0  0.99 0.03 0  1 0.03 0  0 0.04 0  0.01 0.04 0  0.02 0.04 0  0.03 0.04 0  0.04 0.04 0  0.05 0.04 0  0.06 0.04 0  0.07000000000000001 0.04 0  0.08 0.04 0  0.09 0.04 0  0.1 0.04 0  0.11 0.04 0  0.12 0.04 0  0.13 0.04 0  0.14 0.04 0  0.15 0.04 0  0.16 0.04 0  0.17 0.04 0  0.18 0.04 0  0.19 0.04 0  0.2 0.04 0  0.21 0.04 0  0.22 0.04 0  0.23 0.04 0  0.24 0.04 0  0.25 0.04 0  0.26 0.04 0  0.27 0.04 0  0.28 0.04 0  0.29 0.04 0  0.3 0.04 0  0.31 0.04 0  0.32 0.04 0  0.33 0.04 0  0.34 0.04 0  0.35 0.04 0  0.36 0.04 0  0.37 0.04 0  0.38 0.04 0  0.39 0.04 0  0.4 0.04 0  0.41 0.04 0  0.42 0.04 0  0.43 0.04 0  0.44 0.04 0  0.45 0.04 0  0.46 0.04 0  0.47 0.04 0  0.48 0.04 0  0.49 0.04 0  0.5 0.04 0  0.51 0.04 0  0.52 0.04 0  0.53 0.04 0  0.54 0.04 0  0.55 0.04 0  0.5600000000000001 0.04 0  0.57 0.04 0  0.58 0.04 0  0.59 0.04 0  0.6 0.04 0  0.61 0.04 0  0.62 0.04 0  0.63 0.04 0  0.64 0.04 0  0.65 0.04 0  0.66 0.04 0  0.67 0.04 0  0.68 0.04 0  0.6899999999999999 0.04 0  0.7 0.04 0  0.71 0.04 0  0.72 0.04 0  0.73 0.04 0  0.74 0.04 0  0.75 0.04 0  0.76 0.04 0  0.77 0.04 0  0.78 0.04 0  0.79 0.04 0  0.8 0.04 0  0.8100000000000001 0.04 0  0.82 0.04 0  0.83 0.04 0  0.84 0.04 0  0.85 0.04 0  0.86 0.04 0  0.87 0.04 0  0.88 0.04 0  0.89 0.04 0  0.9 0.04 0  0.91 0.04 0  0.92 0.04 0  0.93 0.04 0  0.9399999999999999 0.04 0  0.95 0.04 0  0.96 0.04 0  0.97 0.04 0  0.98 0.04 0  0.99 0.04 0  1 0.04 0  0 0.05 0  0.01 0.05 0  0.02 0.05 0  0.03 0.05 0  0.04 0.05 0  0.05 0.05 0  0.06 0.05 0  0.07000000000000001 0.05 0  0.08 0.05 0  0.09 0.05 0  0.1 0.05 0  0.11 0.05 0  0.12 0.05 0  0.13 0.05 0  0.14 0.05 0  0.15 0.05 0  0.16 0.05 0  0.17 0.05 0  0.18 0.05 0  0.19 0.05 0  0.2 0.05 0  0.21 0.05 0  0.22 0.05 0  0.23 0.05 0  0.24 0.05 0  0.25 0.05 0  0.26 0.05 0  0.27 0.05 0  0.28 0.05 0  0.29 0.05 0  0.3 0.05 0  0.31 0.05 0  0.32 0.05 0  0.33 0.05 0  0.34 0.05 0  0.35 0.05 0  0.36 0.05 0  0.37 0.05 0  0.38 0.05 0  0.39 0.05 0  0.4 0.05 0  0.41 0.05 0  0.42 0.05 0  0.43 0.05 0  0.44 0.05 0  0.45 0.05 0  0.46 0.05 0  0.47 0.05 0  0.48 0.05 0  0.49 0.05 0  0.5 0.05 0  0.51 0.05 0  0.52 0.05 0  0.53 0.05 0  0.54 0.05 0  0.55 0.05 0  0.5600000000000001 0.05 0  0.57 0.05 0  0.58 0.05 0  0.59 0.05 0  0.6 0.05 0  0.61 0.05 0  0.62 0.05 0  0.63 0.05 0  0.64 0.05 0  0.65 0.05 0  0.66 0.05 0  0.67 0.05 0  0.68 0.05 0  0.6899999999999999 0.05 0  0.7 0.05 0  0.71 0.05 0  0.72 0.05 0  0.73 0.05 0  0.74 0.05 0  0.75 0.05 0  0.76 0.05 0  0.77 0.05 0  0.78 0.05 0  0.79 0.05 0  0.8 0.05 0  0.8100000000000001 0.05 0  0.82 0.05 0  0.83 0.05 0  0.84 0.05 0  0.85 0.05 0  0.86 0.05 0  0.87 0.05 0  0.88 0.05 0  0.89 0.05 0  0.9 0.05 0  0.91 0.05 0  0.92 0.05 0  0.93 0.05 0  0.9399999999999999 0.05 0  0.95 0.05 0  0.96 0.05 0  0.97 0.05 0  0.98 0.05 0  0.99 0.05 0  1 0.05 0  0 0.06 0  0.01 0.06 0  0.02 0.06 0  0.03 0.06 0  0.04 0.06 0  0.05 0.06 0  0.06 0.06 0  0.07000000000000001 0.06 0  0.08 0.06 0  0.09 0.06 0  0.1 0.06 0  0.11 0.06 0  0.12 0.06 0  0.13 0.06 0  0.14 0.06 0  0.15 0.06 0  0.16 0.06 0  0.17 0.06 0  0.18 0.06 0  0.19 0.06 0  0.2 0.06 0  0.21 0.06 0  0.22 0.06 0  0.23 0.06 0  0.24 0.06 0  0.25 0.06 0  0.26 0.06 0  0.27 0.06 0  0.28 0.06 0  0.29 0.06 0  0.3 0.06 0  0.31 0.06 0  0.32 0.06 0  0.33 0.06 0  0.34 0.06 0  0.35 0.06 0  0.36 0.06 0  0.37 0.06 0  0.38 0.06 0  0.39 0.06 0  0.4 0.06 0  0.41 0.06 0  0.42 0.06 0  0.43 0.06 0  0.44 0.06 0  0.45 0.06 0  0.46 0.06 0  0.47 0.06 0  0.48 0.06 0  0.49 0.06 0  0.5 0.06 0  0.51 0.06 0  0.52 0.06 0  0.53 0.06 0  0.54 0.06 0  0.55 0.06 0  0.5600000000000001 0.06 0  0.57 0.06 0  0.58 0.06 0  0.59 0.06 0  0.6 0.06 0  0.61 0.06 0  0.62 0.06 0  0.63 0.06 0  0.64 0.06 0  0.65 0.06 0  0.66 0.06 0  0.67 0.06 0  0.68 0.06 0  0.6899999999999999 0.06 0  0.7 0.06 0  0.71 0.06 0  0.72 0.06 0  0.73 0.06 0  0.74 0.06 0  0.75 0.06 0  0.76 0.06 0  0.77 0.06 0  0.78 0.06 0  0.79 0.06 0  0.8 0.06 0  0.8100000000000001 0.06 0  0.82 0.06 0  0.83 0.06 0  0.84 0.06 0  0.85 0.06 0  0.86 0.06 0  0.87 0.06 0  0.88 0.06 0  0.89 0.06 0  0.9 0.06 0  0.91 0.06 0  0.92 0.06 0  0.93 0.06 0  0.9399999999999999 0.06 0  0.95 0.06 0  0.96 0.06 0  0.97 0.06 0  0.98 0.06 0  0.99 0.06 0  1 0.06 0  0 0.07000000000000001 0  0.01 0.07000000000000001 0  0.02 0.07000000000000001 0  0.03 0.07000000000000001 0  0.04 0.07000000000000001 0  0.05 0.07000000000000001 0  0.06 0.07000000000000001 0  0.07000000000000001 0.07000000000000001 0  0.08 0.07000000000000001 0  0.09 0.07000000000000001 0  0.1 0.07000000000000001 0  0.11 0.07000000000000001 0  0.12 0.07000000000000001 0  0.13 0.07000000000000001 0  0.14 0.07000000000000001 0  0.15 0.07000000000000001 0  0.16 0.07000000000000001 0  0.17 0.0700
[...]
<PointData  Scalars="Indicator Function"> 
<DataArray  type="Float64"  Name="Indicator Function"  format="ascii">-3.0092655381050560e-35  -6.3040502306856296e-20  2.8663858128610422e-20  2.5514579069347743e-19  3.4039260086317211e-19  -3.3748751718665670e-20  -2.9278602715640758e-20  6.5340361798772402e-19  8.8691376591867930e-19  -1.5046327690525280e-36  4.7007394753976901e-18  2.3498321513761794e-18  -3.8003394135128173e-20  -3.5180988559895526e-20  8.0432580115103341e-18  -9.0213031450564265e-21  -2.8636867517426413e-21  2.0884313142282300e-18  -3.5342642338511403e-20  -3.0092655381050560e-35  5.9979951873634045e-18  6.0185310762101120e-36  -3.7903262980254116e-20  1.1945853531997173e-17  -5.0920612342051965e-20  -2.5460306171025991e-20  -1.9086192929526601e-20  -4.4680604330030865e-20  4.1297395880370830e-17  -1.7164587369047287e-20  -7.9962510115278356e-20  -2.8816734582740430e-20  -4.7321722783737979e-20  -1.9246057301450098e-20  1.6654719539002664e-17  -8.9499922370125100e-20  -1.2130812990795141e-19  -1.3879334764254293e-19  -1.4432946738047334e-19  -1.4096503876100657e-19  9.0080756070093634e-18  -7.8187282708890338e-20  -2.4737495808981401e-20  -3.2203458404280787e-20  -2.2682813877785566e-20  -2.1905610770978126e-20  2.6037594677826484e-17  -1.4877886788868553e-20  -8.8913706478719326e-21  -3.4122375469877525e-21  -2.3155102923753700e-20  -1.1577551461876856e-20  -8.3827520669500742e-21  -1.0367372584191870e-20  -9.1747756597064832e-21  -4.6863193439427038e-21  2.9622288592884885e-19  -2.5301097407375356e-22  9.4039548065783001e-38  -7.8005150020577655e-23  -3.6364838610962579e-22  -6.1807485146031023e-22  -1.4265076850513132e-21  -5.6187054271223323e-22  -2.3783998636464824e-21  -2.6784504290528938e-21  -1.5720333587993996e-21  3.8086016966642115e-36  1.6851887013388314e-34  -6.0951868417861065e-24  -1.4464049493167753e-22  -1.7943156947513825e-22  -2.4147089010762111e-22  -2.1506548443016439e-22  -2.9641272006122806e-22  -2.7545500317602041e-22  -2.1874528507764255e-22  -3.5791817598876343e-22  -4.5585268713485454e-22  -6.3131634129952150e-22  -7.4288475987459131e-22  1.2615026731585641e-20  -7.4734454094374055e-22  -7.0351914782431486e-22  -5.7306188525670469e-22  -1.1065115567227367e-22  -2.0451884820184049e-23  -1.1548247697657887e-22  -2.3517503694697449e-22  -1.0063079116645944e-22  -3.1924418396778334e-22  -3.4730260346553277e-22  -2.8015114499249129e-22  1.1793242041094783e-19  -2.3289186866623862e-23  -3.7867789382377241e-24  -1.5520138165346593e-23  -2.1373534055317919e-23  -1.0565562075471357e-23  0.0000000000000000e+00  2.3509887016445750e-38  -3.3410992805191423e-20  5.3033403164487035e-04  2.2759061522299623e-04  1.4277313478097646e-04  3.5039816923589719e-04  2.6734560502044211e-04  4.7429066014738721e-04  2.9029108704666125e-04  6.8729999774522481e-04  7.2340314808502673e-05  1.5794711959381906e-05  4.2773803047235190e-04  7.2910603672416612e-04  3.2005526830102639e-04  4.7373671372496969e-04  2.3789345027847716e-04  4.3566624790650914e-05  7.5481852710375624e-04  1.3114162213545905e-04  6.3667644346403457e-04  1.8182279374399750e-04  3.1862435356491442e-04  2.1456331057353949e-04  5.7552282884922804e-04  2.2525669626106883e-04  9.1730420307657072e-04  6.8765257092269928e-04  8.8939289906574104e-04  3.6019776251278922e-04  6.1841943423367705e-04  8.0448848400838829e-04  1.0382322810309143e-03  6.5113140447690433e-04  5.2690667014303682e-04  8.3252810893123423e-05  7.6886593120788162e-04  1.2278543025391942e-03  1.5713658433322490e-03  1.7145957532317155e-03  1.7427106654372699e-03  1.6680450514267116e-03  1.3270392310181520e-03  7.4497725358240428e-04  4.4563110762963127e-04  3.5731037926342525e-04  7.8923280404403725e-04  6.0716929001444579e-04  5.3603236318727060e-04  3.2034538829255196e-04  6.0630131928142571e-05  6.1469406980454631e-05  4.1712525159657052e-04  8.4247508163530903e-05  1.0888648225845696e-04  1.3231874009868183e-04  9.9118694919707128e-05  6.9510453510095285e-05  4.1102290726455321e-05  2.0188891482060719e-05  1.1632980433809580e-05  7.6915880639614618e-06  6.8329131219092220e-06  1.0908316362077604e-05  2.0243519734314165e-05  9.9023023426542773e-06  3.7894291787298194e-05  2.9303527523202736e-05  1.6523262253329280e-05  8.0520295781613061e-06  1.9467478540679076e-06  1.0980112475768654e-07  2.5507109539291060e-06  1.9569963207423903e-06  3.3714546824668210e-06  2.1885480009263630e-06  4.2661212484045799e-06  2.8290955744411674e-06  3.5613698576958136e-06  4.6669957272005789e-06  5.8784141040651892e-06  8.4335771056851263e-06  9.1658335581591909e-06  7.7743410323067784e-06  9.5757918682930247e-06  1.2673474287958373e-05  3.9866280276301300e-06  7.3685680684163894e-07  1.0966142678711020e-07  5.6967725474049748e-06  1.3881505613424599e-06  2.9024509022948451e-06  4.2997665006826051e-06  4.1065642518674014e-06  2.9934722428487420e-06  2.3114073555508481e-06  8.3795861174730462e-07  6.8216544860727202e-08  2.4547768140241027e-07  2.6229251932727631e-07  5.9185986040572375e-08  -7.8055618713026047e-25  -1.3337600833591870e-20  6.0187893899015345e-04  1.5550565176467883e-04  9.8458248823423317e-05  8.1961494211990847e-06  3.5756468932738651e-04  5.2171497403097084e-04  6.3798361559250932e-04  7.5946162318957190e-04  3.1100585683485533e-05  2.5608270348978854e-04  4.5170373526079612e-04  6.0506292581119362e-04  9.8926260427455431e-04  8.6481360535787990e-04  5.8582342723993632e-04  1.2153621459628926e-03  1.8344578047689704e-05  5.1490403331811688e-04  9.3237591928344834e-04  4.4249002679876527e-04  1.5691403153225366e-03  1.0210322800872130e-03  1.6966377907531170e-03  9.6025895617997620e-04  1.2102400149216824e-03  4.2859960118667478e-06  3.4330006515912451e-04  1.7003558127176757e-03  1.1980260144446012e-03  9.1327830491592476e-05  1.6865977578490298e-03  1.5292646148724231e-04  1.1688787566163142e-03  6.3349132484064648e-04  9.4222653457210848e-04  1.5292459263769331e-03  2.0372871166277054e-03  2.3692287320203468e-03  2.4742976894154122e-03  2.4083002683166744e-03  2.2001530159467967e-03  1.6319512146377878e-03  2.8683391260285636e-04  1.0571567532657608e-03  9.2265591784634611e-04  8.3512088680137264e-04  1.2061223949830374e-03  1.0033471908098203e-03  2.9001031105729553e-04  3.8701690762113879e-04  6.0989224136418310e-04  2.8284897995324511e-04  3.2762045424985695e-04  1.4442956903651537e-04  1.4388261713694326e-04  8.9872041974075538e-05  7.6467252598198961e-05  4.3708685812909618e-05  2.2149678563080716e-05  1.3049039770850277e-05  1.0690771508231940e-05  1.0585609734837991e-05  2.0964188848166815e-05  1.1972351667259762e-05  4.2237658261509106e-05  4.9036827377073872e-05  2.6047175706275440e-05  1.4162591383528215e-05  7.3892658129663229e-06  2.5779453213174513e-07  9.6529217935398184e-07  3.1533657246119020e-06  3.8970610425135284e-06  4.1933672127764163e-06  4.7961578926442161e-06  4.8964782441294189e-06  4.0940335170453752e-06  8.4687075766468438e-06  7.4558925982484963e-06  8.9556985090246657e-06  1.3499830866949409e-05  1.2900159011499941e-05  1.0490212068377108e-05  4.5980316506034103e-06  1.0758354600616885e-05  4.1289663210363003e-06  4.9702604041160287e-06  7.4681661754463073e-06  5.0012084752382212e-06  3.1816767860125774e-06  5.5231301297869546e-06  5.1890147125393870e-06  3.5302603607420014e-06  4.6081115870194299e-06  1.0148323009087576e-06  5.5282521673614693e-07  3.6449337905076203e-07  7.5810690706680258e-07  5.7647833688921930e-07  1.4400439263270697e-22  -2.3357352049474784e-20  2.4026885657672383e-04  4.5269343335951196e-04  6.7909792342528316e-05  4.9653500000337869e-04  7.1735835760022848e-04  6.2535363865395789e-04  8.3712012573730263e-04  2.0862374750955546e-04  1.3314064091467044e-03  4.9061944967877856e-04  4.2151699483477957e-06  1.0431892106761997e-03  1.1970087367550353e-03  1.9704039751736885e-04  1.0591609950672284e-03  2.5205910440554243e-04  3.9281883511145906e-04  1.4616956728776996e-03  7.9191010001740923e-04  1.7332048355205671e-03  4.8201967657092519e-04  1.1417043216842462e-03  3.6013522490664721e-04  1.6888537516451289e-03  1.4435560403758215e-03  2.4136475261738993e-03  2.0217650342134602e-03  1.9142086039950572e-03  8.0795894513601026e-04  2.0979890008610909e-03  1.8483828618954070e-03  2.0683203103839063e-03  2.1390636901873756e-03  9.8209482547055430e-04  9.6079044240738459e-05  1.8436499982733845e-03  2.1311300316254013e-03  2.5910902743365976e-03  2.8104868936794235e-03  2.8580736697074510e-03  2.6956441327121274e-03  2.0288170483680492e-03  1.1436318588510656e-03  1.2904277504695388e-03  6.8847216635814631e-04  2.2754215848728300e-03  1.4070269699365966e-03  8.7777151783808140e-04  5.7311182708074716e-04  3.1605831718377163e-04  3.1730643504253748e-04  1.0515558006240974e-03  3.8456177507977657e-04  2.9208175635749798e-04  1.3542760972664998e-04  8.4164862865304736e-05  7.6902112002786592e-05  6.5082576342646593e-05  3.5982535326542794e-05  2.2471727922504248e-05  1.4272181274943298e-05  1.3182310080277083e-05  1.6808264618422432e-05  3.1058269068504903e-05  2.8214067096610038e-05  6.2039276686291981e-05  3.3177340470514918e-05  1.8196191622158763e-05  1.0365181635915935e-05  4.0201019901895326e-06  8.0150615150891057e-07  3.9847789044915375e-06  2.5755843793325233e-06  6.9298589079493889e-06  3.5219420709435075e-06  7.8138021940154378e-06  4.0058000530072954e-06  7.1778045373371030e-06  9.9217670109571828e-06  9.5044709393218555e-06  1.3200664013674017e-05  1.5080386051252292e-05  1.1246282745990255e-05  1.3329112180771155e-05  2.4781566778563188e-05  1.3442750538097847e-06  3.8870691334883824e-06  2.1494590277862046e-06  1.3637226828184724e-05  1.0478211395320901e-06  7.8203303580802857e-06  6.1146571127483904e-06  5.8642433746915047e-06  3.4836690130956139e-06  3.2856585442955142e-06  2.7651656337646275e-07  2.6156818071213220e-07  4.8619009673091200e-07  4.8825361461346068e-07  -6.7758800600040081e-23  -1.8867620159833243e-20  4.2076864794550516e-04  5.7847881761666881e-04  2.6812358761588844e-05  1.5062022697599458e-04  4.7773711711685603e-04  7.0592449156191208e-04  1.1404474342709015e-03  1.0319595653085734e-03  6.5200546317466549e-04  1.7538845791240700e-04  1.2265342633182845e-04  3.8824358643783528e-04  9.3857623913803847e-04  1.5127293277298018e-03  6.2456680871880569e-04  8.5077802560039838e-04  1.7149229364295969e-03  3.9671792512396641e-04  1.2101432863626605e-03  6.0700436965357247e-04  3.5393564711819095e-04  2.0276572554457288e-03  1.6006531365976985e-03  2.3972539494457891e-03  1.2209187682099706e-03  1.2380247836285400e-03  5.8176327758885534e-04  1.4811806865759234e-03  3.2096519639259408e-03  1.8826671520579990e-03  7.7483163923918071e-04  3.1190672705862913e-03  4.3877649705879906e-04  2.6222281367285767e-03  7.7639127524876408e-04  1.6001416871408850e-03  2.3357187014118887e-03  2.6533298835067789e-03  3.0107897082990512e-03  3.1191997985230871e-03  3.0399099182671584e-03  2.7830471074325809e-03  1.9021672798744641e-03  6.6481280350101429e-04  1.8884100460587270e-03  1.5055830845164644e-03  1.9342551963953591e-03  2.7228047281835713e-03  2.1538838705678302e-03  9.3961869803394220e-04  3.5221736307606996e-04  8.3657783638130994e-04  5.9798917368850959e-04  7.6194499008563248e-04  1.8789067031902776e-04  1.0004082139302064e-04  3.5740713162191221e-05  7.1750255282480263e-05  4.9813411688096684e-05  2.6430232388336641e-05  1.8455565722552038e-05  1.3796586676062426e-05  1.2926228591265481e-05  2.8986180655336332e-05  1.7593034085356610e-05  6.9350603434099853e-05  5.8850275472431298e-05  1.6615137120625333e-05  1.1876327870041336e-05  7.4027517364602649e-06  5.5673875852227796e-07  1.4573601296351071e-06  5.1285208115213999e-06  2.9205243428019710e-06  6.8714193428288277e-06  5.7497665481853543e-06  7.7155928200118721e-06  3.3508512881751989e-06  1.2056522264476071e-05  1.1039394843236969e-05  1.1021587587619294e-05  1.6166358128864391e-05  1.5829596608230806e-05  1.2564897781741793e-05  4.7386175202353378e-06  2.0786927723672237e-05  2.5961875059994583e-06  1.2203027445888271e-05  1.0006754851629866e-05  9.9511322452072625e-06  8.4876759577345156e-06  9.7952588070362524e-06  5.7492480068704558e-06  3.6536165048358430e-06  5.0946310510793776e-06  1.4459839704587065e-06  3.6638683740023906e-07  3.2841354100734112e-07  7.0041513780953158e-07  1.7496382787823226e-22  -2.1382301058656909e-20  3.3988882848477172e-04  5.7722755261325987e-04  9.2787395952286433e-04  1.2525949671640319e-04  5.2173799798169260e-04  6.6924066942790795e-04  6.3397894917219613e-04  1.2792252051560559e-03  4.0338427661109738e-04  1.6652350852778357e-03  9.1344518617474785e-04  7.5323840476461848e-05  1.3588302446804518e-03  1.3583146318272800e-03  3.3438056076380535e-04  1.2865638012320624e-03  9.8490480524844192e-04  1.0952640026262101e-03  1.3758020345587068e-03  8.8623823233788279e-04  2.2497871801565724e-03  1.1437946362598413e-03  2.0400737933452939e-03  1.2048335798753751e-03  2.7689538809557747e-03  2.4914688819480165e-03  3.4655209370901838e-03  2.6546455136574028e-03  1.9991648733525122e-03  1.7168466965260488e-03  3.4542516655654367e-03  2.2742040342837249e-03  3.3906209633197703e-03  2.9085805213562650e-03  1.7948970379727683e-03  1.8551918540571190e-04  2.7402677657186502e-03  2.7644267512245543e-03  3.1350356787703463e-03  3.3543406982716227e-03  3.3942380544093559e-03  3.1884109130849380e-03  2.3986832349157414e-03  1.3136929362205188e-03  2.1078008294054761e-03  1.2464342152214089e-03  3.5206550378258706e-03  1.4101981626285054e-03  1.9268828433772911e-04  1.7586817410911829e-05  1.3296685942762102e-04  5.9711973833579421e-04  1.5566520963150173e-03  4.3044038792069034e-04  6.1009498847413993e-04  1.2213657002429660e-04  3.3715638646118586e-05  3.5441700833362950e-05  6.5667704776852499e-05  3.8761268502208366e-05  2.2888765806996632e-05  1.5644297203955061e-05  1.3261549073021186e-05  1.4171466044804672e-05  4.1253214555834443e-05  3.0088470297431201e-05  8.4956657403821936e-05  3.7774015394179347e-05  1.0583441784665723e-05  7.4050509448111954e-06  4.5357345148669070e-06  1.2460204208296266e-06  3.3188555878381103e-06  4.5392888115169968e-06  5.8019085085579959e-06  4.1228101372126836e-06  8.8693329798965558e-06  5.6764573620352924e-06  6.4491287736251568e-06  1.3048681187196886e-05  1.2134762125672902e-05  1.4522060635338146e-05  1.6717903059861481e-05  1.4265104036986150e-05  1.2495669369958035e-05  2.4361948018153965e-05  7.7447253049538709e-06  9.0259226603335428e-06  1.0231164494318134e-05  1.9327544425248972e-05  2.3461435385621663e-07  1.3615386944161341e-05  8.6761778558261848e-06  5.3860254817163105e-06  4.3178028184477173e-06  3.8680384575315912e-06  8.4279139001558541e-07  3.2078974823980767e-07  2.7550954609314245e-07  -1.5293852078831612e-23  -1.0763066862780772e-20  3.8518929232036429e-04  6.3146020360312874e-04  5.2714318685644253e-04  6.0903719955621497e-04  2.3836884768951744e-04  5.7352319511594135e-04  1.0595527820291650e-03  1.4845886510030219e-03  1.3372154135786682e-03  5.8181212560828356e-04  5.2010055237924706e-04  2.7526286427795359e-04  3.5109126636117670e-04  1.4102939989897674e-03  1.8443786536886113e-03  3.8006118442660301e-04  6.9630244234044649e-04  1.4047600443415457e-03  1.9302004775372219e-04  1.6401336173477480e-03  1.3870939044511571e-04  1.8134869283530997e-04  1.6752368132634638e-03  1.3909954018310750e-03  2.2735152762546821e-03  7.6708712215814889e-04  6.5719214608460732e-04  1.4507143928362929e-03  2.4401013801116094e-03  4.2751789317375111e-03  1.9694024262632347e-03  1.8731692445909166e-03  4.2645120206510206e-03  1.0230231350474232e-03  3.9382948429597464e-03  1.0907844503061034e-03  1.9901308948127483e-03  3.2529775361006207e-03  3.2602297921614930e-03  3.5736216034023337e-03  3.6744177905202280e-03  3.5878291218935086e-03  3.2629913254903632e-03  2.0848371965441941e-03  8.4829547381785886e-04  2.8600425897429625e-03  1.7556306174303440e-03  3.1482714018648394e-03  3.5407106316126770e-03  2.4401452279204016e-03  1.1474991567581030e-03  2.2387642517864278e-04  7.3454640040781420e-04  1.0264132599069899e-03  1.0382019140907318e-03  3.3056690532294310e-04  5.3984515219197292e-05  1.9079982033808674e-05  5.2390856284724846e-05  5.5868868463761308e-05  3.0995222409217444e-05  2.0810797371356668e-05  1.5623040201711784e-05  1.5345435216611657e-05  2.9130460178047751e-05  2.2671244254035817e-05  8.1931259840109524e-05  6.9254538146005024e-05  1.6420742092262740e-05  9.5579535634299878e-06  4.5769883746864066e-06  5.5769502512852923e-07  1.4347577471146611e-06  4.0894469766042143e-06  3.5513319956245342e-06  6.7152698683373447e-06  4.2548908140752585e-06  8.9050584268245309e-06  3.5636050698586705e-06  1.1158982965620089e-05  1.2713535527024937e-05  1.2818528302757156e-05  1.6897394905967662e-05  1.5862774505128151e-05  1.5424519489823070e-05  9.3725246617894263e-06  2.0108826534992333e-05  2.3621822531951279e-06  1.5629587563328909e-05  4.0372284019231652e-06  1.6362645460389835e-05  1.0324277485334862e-05  1.4862947533611553e-05  7.9539543375409689e-06  3.0637574528688229e-06  5.2791187846670685e-06  2.7128193070111223e-06  8.1776739026631182e-07  8.9941025810575732e-07  0.0000000000000000e+00  -2.0152331563925269e-20  1.9389017565033296e-04  4.9966526026310593e-04  8.2934870570317183e-04  8.6967655741383568e-04  5.9721904131489247e-05  6.5886316332471387e-04  4.2548729767808861e-04  3.4653867578186034e-04  1.6946623296968898e-03  6.3852714380931706e-04  1.6276566999947979e-03  8.9854785853461544e-04  6.1310807893862399e-05  1.4232137601646064e-03  1.6777279984127203e-03  6.4168274105921212e-04  1.1002774345399370e-03  1.1502546650257702e-03  1.3612194181266764e-03  1.2020762609900365e-03  4.5120842294462630e-04  2.0230842196047949e-03  9.4972407284339526e-04  2.2578545046615232e-03  1.4097673473269384e-03  3.1318135060295332e-03  2.6645152554865101e-03  3.6098989719219616e-03  2.5012830775939182e-03  1.5819225938570618e-03  2.6961043948255797e-03  4.2121343973437536e-03  2.2219365275075792e-03  4.8119088124367292e-03  3.2313582340535571e-03  3.0272375814243508e-03  2.4276364287346831e-04  3.4404468544015337e-03  3.6194918618978143e-03  3.7913318221177222e-03  3.9770712075665208e-03  4.0015444628978269e-03  3.7574343922387498e-03  2.8123731788560402e-03  1.3602059378270040e-03  2.6987094954534483e-03  1.9481876672887719e-03  4.3413713000583186e-03  9.9712967213267767e-04  6.3461056066006197e-04  6.5707914370071710e-04  3.4765813030019575e-04  5.1973199909502042e-04  1.7522791939706083e-03  2.3417508919820163e-04  9.6987596645414407e-04  1.4727245451905862e-04  2.4027763164450057e-05  1.9213039617469042e-05  5.9980506876331216e-05  4.4469969590687487e-05  2.6320126392858150e-05  1.8305923944520615e-05  1.5167003438863056e-05  1.8831371046397295e-05  4.9838520612711374e-05  3.1945120771868133e-05  1.0421074112803961e-04  3.9862183286759656e-05  5.6885223398201359e-06  8.0481020135737764e-06  1.8980820092558458e-06  1.1809591678084775e-06  1.8374419613615400e-06  4.5640180087059951e-06  4.5714455623359213e-06  5.2261044961817199e-06  6.0322526312672360e-06  7.0908825733045739e-06  5.7069570722748815e-06  1.2983300401666208e-05  1.3019059554120916e-05  1.5084027589916332e-05  1.6774657047927509e-05  1.5262592011886827e-05  1.0000423831183302e-05  2.7797733977128392e-05  9.9691084482380986e-06  1.2647461279621465e-05  1.2764194556857929e-05  1.7389264591649591e-05  4.2445396868870255e-06  1.6976406084749558e-05  1.2662450525742699e-05  6.1145814587080070e-06  4.5333315796130720e-06  3.9349937714519928e-06  1.8083315822547531e-06  9.4511460025400865e-07  1.6790154068212854e-23  -1.2132056850069128e-20  3.6303213168776329e-04  6.0756462036110276e-04  6.7838597931565785e-04  6.3741381509000003e-04  9.5840731058161900e-04  1.1919410355751311e-04  4.6872781800841670e-04  9.7786794867659767e-04  1.5274603702064098e-03  1.7096079176129365e-03  7.4002855053437351e-04  5.4786723292698223e-04  5.3907110242743330e-04  3.7883514741146671e-04  1.7046023811718865e-03  2.0737898884643810e-03 