<?xml version="1.0"?>
<VTKFile type="UnstructuredGrid"  version="0.1"  >
<UnstructuredGrid>
<Piece  NumberOfPoints="10201" NumberOfCells="20000">
<Points>
<DataArray  type="Float64"  NumberOfComponents="3"  format="ascii">0 0 0  0.01 0 0  0.02 0 0  0.03 0 0  0.04 0 0  0.05 0 0  0.06 0 0  0.07000000000000001 0 0  0.08 0 0  0.09 0 0  0.1 0 0  0.11 0 0  0.12 0 0  0.13 0 0  0.14 0 0  0.15 0 0  0.16 0 0  0.17 0 0  0.18 0 0  0.19 0 0  0.2 0 0  0.21 0 0  0.22 0 0  0.23 0 0  0.24 0 0  0.25 0 0  0.26 0 0  0.27 0 0  0.28 0 0  0.29 0 0  0.3 0 0  0.31 0 0  0.32 0 0  0.33 0 0  0.34 0 0  0.35 0 0  0.36 0 0  0.37 0 0  0.38 0 0  0.39 0 0  0.4 0 0  0.41 0 0  0.42 0 0  0.43 0 0  0.44 0 0  0.45 0 0  0.46 0 0  0.47 0 0  0.48 0 0  0.49 0 0  0.5 0 0  0.51 0 0  0.52 0 0  0.53 0 0  0.54 0 0  0.55 0 0  0.5600000000000001 0 0  0.57 0 0  0.58 0 0  0.59 0 0  0.6 0 0  0.61 0 0  0.62 0 0  0.63 0 0  0.64 0 0  0.65 0 0  0.66 0 0  0.67 0 0  0.68 0 0  0.6899999999999999 0 0  0.7 0 0  0.71 0 0  0.72 0 0  0.73 0 0  0.74 0 0  0.75 0 0  0.76 0 0  0.77 0 0  0.78 0 0  0.79 0 0  0.8 0 0  0.8100000000000001 0 0  0.82 0 0  0.83 0 0  0.84 0 0  0.85 0 0  0.86 0 0  0.87 0 0  0.88 0 0  0.89 0 0  0.9 0 0  0.91 0 0  0.92 0 0  0.93 0 0  0.9399999999999999 0 0  0.95 0 0  0.96 0 0  0.97 0 0  0.98 0 0  0.99 0 0  1 0 0  0 0.01 0  0.01 0.01 0  0.02 0.01 0  0.03 0.01 0  0.04 0.01 0  0.05 0.01 0  0.06 0.01 0  0.07000000000000001 0.01 0  0.08 0.01 0  0.09 0.01 0  0.1 0.01 0  0.11 0.01 0  0.12 0.01 0  0.13 0.01 0  0.14 0.01 0  0.15 0.01 0  0.16 0.01 0  0.17 0.01 0  0.18 0.01 0  0.19 0.01 0  0.2 0.01 0  0.21 0.01 0  0.22 0.01 0  0.23 0.01 0  0.24 0.01 0  0.25 0.01 0  0.26 0.01 0  0.27 0.01 0  0.28 0.01 0  0.29 0.01 0  0.3 0.01 0  0.31 0.01 0  0.32 0.01 0  0.33 0.01 0  0.34 0.01 0  0.35 0.01 0  0.36 0.01 0  0.37 0.01 0  0.38 0.01 0  0.39 0.01 0  0.4 0.01 0  0.41 0.01 0  0.42 0.01 0  0.43 0.01 0  0.44 0.01 0  0.45 0.01 0  0.46 0.01 0  0.47 0.01 0  0.48 0.01 0  0.49 0.01 0  0.5 0.01 0  0.51 0.01 0  0.52 0.01 0  0.53 0.01 0  0.54 0.01 0  0.55 0.01 0  0.5600000000000001 0.01 0  0.57 0.01 0  0.58 0.01 0  0.59 0.01 0  0.6 0.01 0  0.61 0.01 0  0.62 0.01 0  0.63 0.01 0  0.64 0.01 0  0.65 0.01 0  0.66 0.01 0  0.67 0.01 0  0.68 0.01 0  0.6899999999999999 0.01 0  0.7 0.01 0  0.71 0.01 0  0.72 0.01 0  0.73 0.01 0  0.74 0.01 0  0.75 0.01 0  0.76 0.01 0  0.77 0.01 0  0.78 0.01 0  0.79 0.01 0  0.8 0.01 0  0.8100000000000001 0.01 0  0.82 0.01 0  0.83 0.01 0  0.84 0.01 0  0.85 0.01 0  0.86 0.01 0  0.87 0.01 0  0.88 0.01 0  0.89 0.01 0  0.9 0.01 0  0.91 0.01 0  0.92 0.01 0  0.93 0.01 0  0.9399999999999999 0.01 0  0.95 0.01 0  0.96 0.01 0  0.97 0.01 0  0.98 0.01 0  0.99 0.01 0  1 0.01 0  0 0.02 0  0.01 0.02 0  0.02 0.02 0  0.03 0.02 0  0.04 0.02 0  0.05 0.02 0  0.06 0.02 0  0.07000000000000001 0.02 0  0.08 0.02 0  0.09 0.02 0  0.1 0.02 0  0.11 0.02 0  0.12 0.02 0  0.13 0.02 0  0.14 0.02 0  0.15 0.02 0  0.16 0.02 0  0.17 0.02 0  0.18 0.02 0  0.19 0.02 0  0.2 0.02 0  0.21 0.02 0  0.22 0.02 0  0.23 0.02 0  0.24 0.02 0  0.25 0.02 0  0.26 0.02 0  0.27 0.02 0  0.28 0.02 0  0.29 0.02 0  0.3 0.02 0  0.31 0.02 0  0.32 0.02 0  0.33 0.02 0  0.34 0.02 0  0.35 0.02 0  0.36 0.02 0  0.37 0.02 0  0.38 0.02 0  0.39 0.02 0  0.4 0.02 0  0.41 0.02 0  0.42 0.02 0  0.43 0.02 0  0.44 0.02 0  0.45 0.02 0  0.46 0.02 0  0.47 0.02 0  0.48 0.02 0  0.49 0.02 0  0.5 0.02 0  0.51 0.02 0  0.52 0.02 0  0.53 0.02 0  0.54 0.02 0  0.55 0.02 0  0.5600000000000001 0.02 0  0.57 0.02 0  0.58 0.02 0  0.59 0.02 0  0.6 0.02 0  0.61 0.02 0  0.62 0.02 0  0.63 0.02 0  0.64 0.02 0  0.65 0.02 0  0.66 0.02 0  0.67 0.02 0  0.68 0.02 0  0.6899999999999999 0.02 0  0.7 0.02 0  0.71 0.02 0  0.72 0.02 0  0.73 0.02 0  0.74 0.02 0  0.75 0.02 0  0.76 0.02 0  0.77 0.02 0  0.78 0.02 0  0.79 0.02 0  0.8 0.02 0  0.8100000000000001 0.02 0  0.82 0.02 0  0.83 0.02 0  0.84 0.02 0  0.85 0.02 0  0.86 0.02 0  0.87 0.02 0  0.88 0.02 0  0.89 0.02 0  0.9 0.02 0  0.91 0.02 0  0.92 0.02 0  0.93 0.02 0  0.9399999999999999 0.02 0  0.95 0.02 0  0.96 0.02 0  0.97 0.02 0  0.98 0.02 0  0.99 0.02 0  1 0.02 0  0 0.03 0  0.01 0.03 0  0.02 0.03 0  0.03 0.03 0  0.04 0.03 0  0.05 0.03 0  0.06 0.03 0  0.07000000000000001 0.03 0  0.08 0.03 0  0.09 0.03 0  0.1 0.03 0  0.11 0.03 0  0.12 0.03 0  0.13 0.03 0  0.14 0.03 0  0.15 0.03 0  0.16 0.03 0  0.17 0.03 0  0.18 0.03 0  0.19 0.03 0  0.2 0.03 0  0.21 0.03 0  0.22 0.03 0  0.23 0.03 0  0.24 0.03 0  0.25 0.03 0  0.26 0.03 0  0.27 0.03 0  0.28 0.03 0  0.29 0.03 0  0.3 0.03 0  0.31 0.03 0  0.32 0.03 0  0.33 0.03 0  0.34 0.03 0  0.35 0.03 0  0.36 0.03 0  0.37 0.03 0  0.38 0.03 0  0.39 0.03 0  0.4 0.03 0  0.41 0.03 0  0.42 0.03 0  0.43 0.03 0  0.44 0.03 0  0.45 0.03 0  0.46 0.03 0  0.47 0.03 0  0.48 0.03 0  0.49 0.03 0  0.5 0.03 0  0.51 0.03 0  0.52 0.03 0  0.53 0.03 0  0.54 0.03 0  0.55 0.03 0  0.5600000000000001 0.03 0  0.57 0.03 0  0.58 0.03 0  0.59 0.03 0  0.6 0.03 0  0.61 0.03 0  0.62 0.03 0  0.63 0.03 0  0.64 0.03 0  0.65 0.03 0  0.66 0.03 0  0.67 0.03 0  0.68 0.03 0  0.6899999999999999 0.03 0  0.7 0.03 0  0.71 0.03 0  0.72 0.03 0  0.73 0.03 0  0.74 0.03 0  0.75 0.03 0  0.76 0.03 0  0.77 0.03 0  0.78 0.03 0  0.79 0.03 0  0.8 0.03 0  0.8100000000000001 0.03 0  0.82 0.03 0  0.83 0.03 0  0.84 0.03 0  0.85 0.03 0  0.86 0.03 0  0.87 0.03 0  0.88 0.03 0  0.89 0.03 0  0.9 0.03 0  0.91 0.03 0  0.92 0.03 0  0.93 0.03 0  0.9399999999999999 0.03 0  0.95 0.03 0  0.96 0.03 0  0.97 0.03 0  0.98 0.03 0  0.99 0.03 0  1 0.03 0  0 0.04 0  0.01 0.04 0  0.02 0.04 0  0.03 0.04 0  0.04 0.04 0  0.05 0.04 0  0.06 0.04 0  0.07000000000000001 0.04 0  0.08 0.04 0  0.09 0.04 0  0.1 0.04 0  0.11 0.04 0  0.12 0.04 0  0.13 0.04 0  0.14 0.04 0  0.15 0.04 0  0.16 0.04 0  0.17 0.04 0  0.18 0.04 0  0.19 0.04 0  0.2 0.04 0  0.21 0.04 0  0.22 0.04 0  0.23 0.04 0  0.24 0.04 0  0.25 0.04 0  0.26 0.04 0  0.27 0.04 0  0.28 0.04 0  0.29 0.04 0  0.3 0.04 0  0.31 0.04 0  0.32 0.04 0  0.33 0.04 0  0.34 0.04 0  0.35 0.04 0  0.36 0.04 0  0.37 0.04 0  0.38 0.04 0  0.39 0.04 0  0.4 0.04 0  0.41 0.04 0  0.42 0.04 0  0.43 0.04 0  0.44 0.04 0  0.45 0.04 0  0.46 0.04 0  0.47 0.04 0  0.48 0.04 0  0.49 0.04 0  0.5 0.04 0  0.51 0.04 0  0.52 0.04 0  0.53 0.04 0  0.54 0.04 0  0.55 0.04 0  0.5600000000000001 0.04 0  0.57 0.04 0  0.58 0.04 0  0.59 0.04 0  0.6 0.04 0  0.61 0.04 0  0.62 0.04 0  0.63 0.04 0  0.64 0.04 0  0.65 0.04 0  0.66 0.04 0  0.67 0.04 0  0.68 0.04 0  0.6899999999999999 0.04 0  0.7 0.04 0  0.71 0.04 0  0.72 0.04 0  0.73 0.04 0  0.74 0.04 0  0.75 0.04 0  0.76 0.04 0  0.77 0.04 0  0.78 0.04 0  0.79 0.04 0  0.8 0.04 0  0.8100000000000001 0.04 0  0.82 0.04 0  0.83 0.04 0  0.84 0.04 0  0.85 0.04 0  0.86 0.04 0  0.87 0.04 0  0.88 0.04 0  0.89 0.04 0  0.9 0.04 0  0.91 0.04 0  0.92 0.04 0  0.93 0.04 0  0.9399999999999999 0.04 0  0.95 0.04 0  0.96 0.04 0  0.97 0.04 0  0.98 0.04 0  0.99 0.04 0  1 0.04 0  0 0.05 0  0.01 0.05 0  0.02 0.05 0  0.03 0.05 0  0.04 0.05 0  0.05 0.05 0  0.06 0.05 0  0.07000000000000001 0.05 0  0.08 0.05 0  0.09 0.05 0  0.1 0.05 0  0.11 0.05 0  0.12 0.05 0  0.13 0.05 0  0.14 0.05 0  0.15 0.05 0  0.16 0.05 0  0.17 0.05 0  0.18 0.05 0  0.19 0.05 0  0.2 0.05 0  0.21 0.05 0  0.22 0.05 0  0.23 0.05 0  0.24 0.05 0  0.25 0.05 0  0.26 0.05 0  0.27 0.05 0  0.28 0.05 0  0.29 0.05 0  0.3 0.05 0  0.31 0.05 0  0.32 0.05 0  0.33 0.05 0  0.34 0.05 0  0.35 0.05 0  0.36 0.05 0  0.37 0.05 0  0.38 0.05 0  0.39 0.05 0  0.4 0.05 0  0.41 0.05 0  0.42 0.05 0  0.43 0.05 0  0.44 0.05 0  0.45 0.05 0  0.46 0.05 0  0.47 0.05 0  0.48 0.05 0  0.49 0.05 0  0.5 0.05 0  0.51 0.05 0  0.52 0.05 0  0.53 0.05 0  0.54 0.05 0  0.55 0.05 0  0.5600000000000001 0.05 0  0.57 0.05 0  0.58 0.05 0  0.59 0.05 0  0.6 0.05 0  0.61 0.05 0  0.62 0.05 0  0.63 0.05 0  0.64 0.05 0  0.65 0.05 0  0.66 0.05 0  0.67 0.05 0  0.68 0.05 0  0.6899999999999999 0.05 0  0.7 0.05 0  0.71 0.05 0  0.72 0.05 0  0.73 0.05 0  0.74 0.05 0  0.75 0.05 0  0.76 0.05 0  0.77 0.05 0  0.78 0.05 0  0.79 0.05 0  0.8 0.05 0  0.8100000000000001 0.05 0  0.82 0.05 0  0.83 0.05 0  0.84 0.05 0  0.85 0.05 0  0.86 0.05 0  0.87 0.05 0  0.88 0.05 0  0.89 0.05 0  0.9 0.05 0  0.91 0.05 0  0.92 0.05 0  0.93 0.05 0  0.9399999999999999 0.05 0  0.95 0.05 0  0.96 0.05 0  0.97 0.05 0  0.98 0.05 0  0.99 0.05 0  1 0.05 0  0 0.06 0  0.01 0.06 0  0.02 0.06 0  0.03 0.06 0  0.04 0.06 0  0.05 0.06 0  0.06 0.06 0  0.07000000000000001 0.06 0  0.08 0.06 0  0.09 0.06 0  0.1 0.06 0  0.11 0.06 0  0.12 0.06 0  0.13 0.06 0  0.14 0.06 0  0.15 0.06 0  0.16 0.06 0  0.17 0.06 0  0.18 0.06 0  0.19 0.06 0  0.2 0.06 0  0.21 0.06 0  0.22 0.06 0  0.23 0.06 0  0.24 0.06 0  0.25 0.06 0  0.26 0.06 0  0.27 0.06 0  0.28 0.06 0  0.29 0.06 0  0.3 0.06 0  0.31 0.06 0  0.32 0.06 0  0.33 0.06 0  0.34 0.06 0  0.35 0.06 0  0.36 0.06 0  0.37 0.06 0  0.38 0.06 0  0.39 0.06 0  0.4 0.06 0  0.41 0.06 0  0.42 0.06 0  0.43 0.06 0  0.44 0.06 0  0.45 0.06 0  0.46 0.06 0  0.47 0.06 0  0.48 0.06 0  0.49 0.06 0  0.5 0.06 0  0.51 0.06 0  0.52 0.06 0  0.53 0.06 0  0.54 0.06 0  0.55 0.06 0  0.5600000000000001 0.06 0  0.57 0.06 0  0.58 0.06 0  0.59 0.06 0  0.6 0.06 0  0.61 0.06 0  0.62 0.06 0  0.63 0.06 0  0.64 0.06 0  0.65 0.06 0  0.66 0.06 0  0.67 0.06 0  0.68 0.06 0  0.6899999999999999 0.06 0  0.7 0.06 0  0.71 0.06 0  0.72 0.06 0  0.73 0.06 0  0.74 0.06 0  0.75 0.06 0  0.76 0.06 0  0.77 0.06 0  0.78 0.06 0  0.79 0.06 0  0.8 0.06 0  0.8100000000000001 0.06 0  0.82 0.06 0  0.83 0.06 0  0.84 0.06 0  0.85 0.06 0  0.86 0.06 0  0.87 0.06 0  0.88 0.06 0  0.89 0.06 0  0.9 0.06 0  0.91 0.06 0  0.92 0.06 0  0.93 0.06 0  0.9399999999999999 0.06 0  0.95 0.06 0  0.96 0.06 0  0.97 0.06 0  0.98 0.06 0  0.99 0.06 0  1 0.06 0  0 0.07000000000000001 0  0.01 0.07000000000000001 0  0.02 0.07000000000000001 0  0.03 0.07000000000000001 0  0.04 0.07000000000000001 0  0.05 0.07000000000000001 0  0.06 0.07000000000000001 0  0.07000000000000001 0.07000000000000001 0  0.08 0.07000000000000001 0  0.09 0.07000000000000001 0  0.1 0.07000000000000001 0  0.11 0.07000000000000001 0  0.12 0.07000000000000001 0  0.13 0.07000000000000001 0  0.14 0.07000000000000001 0  0.15 0.07000000000000001 0  0.16 0.07000000000000001 0  0.17 0.0700
[...]
<PointData  Scalars="u"> 
<DataArray  type="Float64"  Name="u"  format="ascii">0.0000000000000000e+00  0.0000000000000000e+00  0.0000000000000000e+00  0.0000000000000000e+00  0.0000000000000000e+00  0.0000000000000000e+00  0.0000000000000000e+00  0.0000000000000000e+00  0.0000000000000000e+00  0.0000000000000000e+00  0.0000000000000000e+00  0.0000000000000000e+00  0.0000000000000000e+00  0.0000000000000000e+00  0.0000000000000000e+00  0.0000000000000000e+00  0.0000000000000000e+00  0.0000000000000000e+00  0.0000000000000000e+00  0.0000000000000000e+00  0.0000000000000000e+00  0.0000000000000000e+00  0.0000000000000000e+00  0.0000000000000000e+00  0.0000000000000000e+00  0.0000000000000000e+00  0.0000000000000000e+00  0.0000000000000000e+00  0.0000000000000000e+00  0.0000000000000000e+00  0.0000000000000000e+00  0.0000000000000000e+00  0.0000000000000000e+00  0.0000000000000000e+00  0.0000000000000000e+00  0.0000000000000000e+00  0.0000000000000000e+00  0.0000000000000000e+00  0.0000000000000000e+00  0.0000000000000000e+00  0.0000000000000000e+00  0.0000000000000000e+00  0.0000000000000000e+00  0.0000000000000000e+00  0.0000000000000000e+00  0.0000000000000000e+00  0.0000000000000000e+00  0.0000000000000000e+00  0.0000000000000000e+00  0.0000000000000000e+00  0.0000000000000000e+00  0.0000000000000000e+00  0.0000000000000000e+00  0.0000000000000000e+00  0.0000000000000000e+00  0.0000000000000000e+00  0.0000000000000000e+00  0.0000000000000000e+00  0.0000000000000000e+00  0.0000000000000000e+00  0.0000000000000000e+00  0.0000000000000000e+00  0.0000000000000000e+00  0.0000000000000000e+00  0.0000000000000000e+00  0.0000000000000000e+00  0.0000000000000000e+00  0.0000000000000000e+00  0.0000000000000000e+00  0.0000000000000000e+00  0.0000000000000000e+00  0.0000000000000000e+00  0.0000000000000000e+00  0.0000000000000000e+00  0.0000000000000000e+00  0.0000000000000000e+00  0.0000000000000000e+00  0.0000000000000000e+00  0.0000000000000000e+00  0.0000000000000000e+00  0.0000000000000000e+00  0.0000000000000000e+00  0.0000000000000000e+00  0.0000000000000000e+00  0.0000000000000000e+00  0.0000000000000000e+00  0.0000000000000000e+00  0.0000000000000000e+00  0.0000000000000000e+00  0.0000000000000000e+00  0.0000000000000000e+00  0.0000000000000000e+00  0.0000000000000000e+00  0.0000000000000000e+00  0.0000000000000000e+00  0.0000000000000000e+00  0.0000000000000000e+00  0.0000000000000000e+00  0.0000000000000000e+00  0.0000000000000000e+00  0.0000000000000000e+00  0.0000000000000000e+00  5.9030455109015245e-07  1.1963294721935390e-06  1.8184489531692387e-06  2.4568896920002109e-06  3.1118420789210822e-06  3.7834618286423880e-06  4.4718649414279068e-06  5.1771220585175474e-06  5.8992523463666096e-06  6.6382169028541547e-06  7.3939116838042008e-06  8.1661599555717095e-06  8.9547042890452246e-06  9.7591981219652999e-06  1.0579196930112798e-05  1.1414149063788583e-05  1.2263386324248819e-05  1.3126114375253496e-05  1.4001403107824121e-05  1.4888177101198255e-05  1.5785206349857644e-05  1.6691097454598140e-05  1.7604285504485064e-05  1.8523026905140773e-05  1.9445393436154543e-05  2.0369267844964887e-05  2.1292341304894685e-05  2.2212113079098433e-05  2.3125892738182932e-05  2.4030805274868731e-05  2.4923799442280775e-05  2.5801659611216449e-05  2.6661021394383272e-05  2.7498391220735789e-05  2.8310169960367450e-05  2.9092680599928722e-05  2.9842199851949388e-05  3.0554993451026683e-05  3.1227354749735458e-05  3.1855646082345216e-05  3.2436342221300769e-05  3.2966075117330510e-05  3.3441678996536711e-05  3.3860234795062303e-05  3.4219112851008668e-05  3.4516012750663690e-05  3.4748999246259291e-05  3.4916533227779601e-05  3.5017496841536758e-05  3.5051212000194249e-05  3.5017451716917473e-05  3.4916443911969049e-05  3.4748867573163111e-05  3.4515841390542448e-05  3.4218905218629421e-05  3.3859994934932078e-05  3.3441411451070542e-05  3.2965784784404691e-05  3.2436034207820420e-05  3.1855325560185865e-05  3.1227026819807305e-05  3.0554663020292110e-05  2.9841871527130931e-05  2.9092358600413068e-05  2.8309858051653909e-05  2.7498092668599482e-05  2.6660738938998012e-05  2.5801395459659484e-05  2.4923555277233142e-05  2.4030582277001143e-05  2.3125691619453006e-05  2.2211934124253817e-05  2.1292184418517284e-05  2.0369132601663801e-05  1.9445279131816983e-05  1.8522932607459561e-05  1.7604210101346195e-05  1.6691039699267660e-05  1.5785164902187420e-05  1.4888150564416377e-05  1.4001390060642288e-05  1.3126113399292634e-05  1.2263396026902060e-05  1.1414168096775189e-05  1.0579224004044826e-05  9.7592320173341876e-06  8.9547438640075910e-06  8.1662041509876199e-06  7.3939595259059088e-06  6.6382675039507716e-06  5.8993049039401813e-06  5.1771758530252396e-06  4.4719193330474161e-06  3.7835162528088266e-06  3.1118960378018206e-06  2.4569427194165985e-06  1.8185003826691418e-06  1.1963766940266858e-06  5.9033307906577636e-07  0.0000000000000000e+00  0.0000000000000000e+00  1.1962681103642596e-06  2.4260116319053161e-06  3.6898290692343542e-06  4.9883205807761760e-06  6.3220045618433370e-06  7.6913257628646169e-06  9.0966524709036734e-06  1.0538265116811964e-05  1.2016343247715349e-05  1.3530951356357495e-05  1.5082023556580381e-05  1.6669347096818233e-05  1.8292544722732074e-05  1.9951055924058576e-05  2.1644117129782251e-05  2.3370740950303125e-05  2.5129694605599746e-05  2.6919477724949376e-05  2.8738299756379974e-05  3.0584057282836139e-05  3.2454311606269092e-05  3.4346267029920568e-05  3.6256750341452938e-05  3.8182192073460999e-05  4.0118610190897225e-05  4.2061596923607748e-05  4.4006309523079624e-05  4.5947465770648083e-05  4.7879345095029979e-05  4.9795796164449621e-05  5.1690251796893823e-05  5.3555751975728700e-05  5.5384975661633106e-05  5.7170281951417424e-05  5.8903760947320111e-05  6.0577294466046618e-05  6.2182626437661993e-05  6.3711442525616493e-05  6.5155458149692089e-05  6.6506513726095196e-05  6.7756675568984902e-05  6.8898340544515672e-05  6.9924342252270270e-05  7.0828056251642863e-05  7.1603501672276338e-05  7.2245436466367697e-05  7.2749443589729460e-05  7.3112005545771281e-05  7.3330564992491259e-05  7.3403569489954639e-05  7.3330498939610741e-05  7.3111874815423456e-05  7.2749250882344228e-05  7.2245185709463063e-05  7.1603197880497333e-05  7.0827705352457260e-05  6.9923950886600946e-05  6.8897915852464655e-05  6.7756224971010672e-05  6.6506044709422054e-05  6.5154978068707330e-05  6.3710958423390576e-05  6.2182144893978064e-05  6.0576821475314100e-05  5.8903301827908019e-05  5.7169841286198157e-05  5.5384557268054900e-05  5.3555358902609975e-05  5.1689886344306455e-05  4.9795459922601482e-05  4.7879038997884634e-05  4.5947190160109751e-05  4.4006064219834127e-05  4.2061381301156654e-05  4.0118423249817882e-05  3.8182032513484731e-05  3.6256616629466197e-05  3.4346157462592742e-05  3.2454224366354405e-05  3.0583990488729286e-05  2.8738251504749883e-05  2.6919446126580615e-05  2.5129677814764205e-05  2.3370737188132070e-05  2.1644124702188827e-05  1.9951073234824864e-05  1.8292570282388065e-05  1.6669379527916645e-05  1.5082061595962875e-05  1.3530993854947397e-05  1.2016389168331898e-05  1.0538313530440215e-05  9.0967025517360074e-06  7.6913767820541936e-06  6.3220558770189557e-06  4.9883716074434340e-06  3.6898795620251313e-06  2.4260682298640301e-06  1.1963560757424052e-06  0.0000000000000000e+00  0.0000000000000000e+00  1.8183956107744098e-06  3.6898477349539882e-06  5.6154171230441465e-06  7.5962331629937459e-06  9.6332631521956289e-06  1.1727400814048806e-05  1.3879428599944242e-05  1.6090002840975925e-05  1.8359633787432375e-05  2.0688662955870281e-05  2.3077238377923465e-05  2.5525287742977757e-05  2.8032489413562271e-05  3.0598241327737539e-05  3.3221627848038085e-05  3.5901384671630169e-05  3.8635861982415870e-05  4.1422986103474495e-05  4.4260219998059469e-05  4.7144523069655706e-05  5.0072310825822997e-05  5.3039415095958994e-05  5.6041045627630493e-05  5.9071754027248189e-05  6.2125401154145078e-05  6.5195129217822154e-05  6.8273339958869732e-05  7.1351680407109386e-05  7.4421037796051510e-05  7.7471545259830428e-05  8.0492599936197849e-05  8.3472895034292899e-05  8.6400467288289023e-05  8.9262760996532229e-05  9.2046709534096481e-05  9.4738834820431181e-05  9.7325364724782555e-05  9.9792367808081568e-05  1.0212590414580430e-04  1.0431219027427831e-04  1.0633777558337379e-04  1.0818972677733851e-04  1.0985581638497244e-04  1.1132471076310899e-04  1.1258615264765508e-04  1.1363113310151227e-04  1.1445204771973892e-04  1.1504283219690663e-04  1.1539907284415593e-04  1.1551808835106583e-04  1.1539897999159449e-04  1.1504264852998586e-04  1.1445177723589479e-04  1.1363078160419144e-04  1.1258572752800177e-04  1.1132422072919956e-04  1.0985527115378467e-04  1.0818913674600078e-04  1.0633715149626079e-04  1.0431154290153034e-04  1.0212524398671893e-04  9.9791704830297975e-05  9.7324708146852523e-05  9.4738192942367324e-05  9.2046089617231773e-05  8.9262169191472275e-05  8.6399908607395130e-05  8.3472373363530552e-05  8.0492118080116988e-05  7.7471105012890884e-05  7.4420640033432702e-05  7.1351325188578757e-05  6.8273026639718455e-05  6.5194856561876847e-05  6.2125167444579475e-05  5.9071557171949031e-05  5.6040883256684059e-05  5.3039284649629610e-05  5.0072209632154386e-05  4.7144448411267869e-05  4.4260169168353255e-05  4.1422956452636842e-05  3.8635850953993649e-05  3.5901389830527777e-05  3.3221646900922864e-05  3.0598272136828487e-05  2.8032530004817000e-05  2.5525336309576454e-05  2.3077293279944285e-05  2.0688722716924083e-05  1.8359697088954538e-05  1.6090068514779743e-05  1.3879495619552786e-05  1.1727468285781625e-05  9.6333303459936027e-06  7.5963002603662961e-06  5.6154896486575665e-06  3.6899181441225150e-06  1.8185123841564386e-06  0.0000000000000000e+00  0.0000000000000000e+00  2.4568469370611730e-06  4.9883183847570111e-06  7.5962691860420766e-06  1.0282305679092399e-05  1.3048134813166708e-05  1.5895256687356831e-05  1.8825056365054439e-05  2.1838763525678050e-05  2.4937423099356645e-05  2.8121863713740083e-05  3.1392662467324141e-05  3.4750106291599990e-05  3.8194149868015852e-05  4.1724370054378866e-05  4.5339916832801926e-05  4.9039460867630892e-05  5.2821137855590537e-05  5.6682489963580494e-05  6.0620404783588273e-05  6.4631052389952943e-05  6.8709821262440089e-05  7.2851254038223045e-05  7.7048984275473719e-05  8.1295675647074218e-05  8.5582965229750776e-05  8.9901412803953975e-05  9.4240458322790614e-05  9.8588389931458310e-05  1.0293232510565141e-04  1.0725820761081691e-04  1.1155082304254510e-04  1.1579383567002769e-04  1.1996984914884753e-04  1.2406049337345765e-04  1.2804653928924690e-04  1.3190804286629065e-04  1.3562451865011761e-04  1.3917514235620225e-04  1.4253898088663431e-04  1.4569524695360713e-04  1.4862357424464274e-04  1.5130430782311956e-04  1.5371880329663869e-04  1.5584972728672380e-04  1.5768135097606121e-04  1.5919982806840641e-04  1.6039344843174678e-04  1.6125285904596603e-04  1.6177124465472552e-04  1.6194446170917783e-04  1.6177112073845770e-04  1.6125261411009914e-04  1.6039308815034533e-04  1.5919936066202312e-04  1.5768078688375577e-04  1.5584907876118614e-04  1.5371808394647337e-04  1.5130353212814738e-04  1.4862275706983328e-04  1.4569440308533681e-04  1.4253812461132337e-04  1.3917428709684431e-04  1.3562367667115121e-04  1.3190722505203136e-04  1.2804575499659806e-04  1.2405975035525648e-04  1.1996915354118111e-04  1.1579319203464683e-04  1.1155023445407295e-04  1.0725767577814088e-04  1.0293185051702863e-04  9.8587972013905396e-05  9.4240095607126497e-05  8.9901103088677316e-05  8.5582705738102067e-05  8.1295463173102831e-05  7.7048815316359563e-05  7.2851124911137407e-05  6.8709728205249948e-05  6.4630991645843710e-05  6.0620372670253319e-05  5.6682482928060616e-05  5.2821152516088640e-05  4.9039494043813207e-05  4.5339965566118591e-05  4.1724431619931659e-05  3.8194221779410579e-05  3.4750186300122970e-05  3.1392748556639682e-05  2.8121954091175653e-05  2.4937516184691794e-05  2.1838857938315673e-05  1.8825150913584252e-05  1.5895350426673186e-05  1.3048227623217344e-05  1.0282398455620201e-05  7.5963494731944540e-06  4.9884586217725342e-06  2.4569965040014128e-06  0.0000000000000000e+00  0.0000000000000000e+00  3.1118088349698414e-06  6.3220224596265800e-06  9.6332928474514759e-06  1.3048171514866555e-05  1.6569084918700571e-05  2.0198423031503225e-05  2.3938391860986639e-05  2.7791023949881682e-05  3.1758141552399762e-05  3.5841312850283532e-05  4.0041805268878317e-05  4.4360533803174483e-05  4.8798004140059473e-05  5.3354250454706309e-05  5.8028767789407777e-05  6.2820439013539333e-05  6.7727456484642442e-05  7.2747238681499586e-05  7.7876342263617904e-05  8.3110370230395233e-05  8.8443877109310672e-05  9.3870272396598625e-05  9.9381723804871185e-05  1.0496906223680278e-04  1.1062169079610859e-04  1.1632750055655961e-04  1.2207279622310072e-04  1.2784223521716275e-04  1.3361878407726390e-04  1.3938369635770983e-04  1.4511651639819296e-04  1.5079511339150754e-04  1.5639575004743406e-04  1.6189318982076545e-04  1.6726084607324198e-04  1.7247097568589802e-04  1.7749491848075759e-04  1.8230338237851343e-04  1.8686677251996398e-04  1.9115556067496089e-04  1.9514068922112796e-04  1.9879400190212776e-04  2.0208869159435213e-04  2.0499975355843384e-04  2.0750443127196929e-04  2.0958264106714651e-04  2.1121736154458077e-04  2.1239497418213860e-04  2.1310554273236187e-04  2.1334302088540528e-04  2.1310538018168231e-04  2.1239465315767226e-04  2.1121689002089592e-04  2.0958203057031227e-04  2.0750369638969951e-04  2.0499891133855626e-04  2.0208776086971477e-04  1.9879300258189252e-04  1.9513964158815567e-04  1.9115448472488070e-04  1.8686568737130975e-04  1.8230230577558277e-04  1.7749386640265242e-04  1.7246996206736603e-04  1.6725988263555842e-04  1.6189228600454154e-04  1.5639491303578768e-04  1.5079434820793812e-04  1.4511582606359068e-04  1.3938308208853357e-04  1.3361824551194786e-04  1.2784177065405106e-04  1.2207240286071306e-04  1.1632717472559638e-04  1.1062142817651624e-04  1.0496885805498896e-04  9.9381573008166648e-05  9.3870169803591565e-05  8.8443817535953492e-05  8.3110348592868854e-05  7.7876353659480239e-05  7.2747278451230782e-05  6.7727520255847474e-05  6.2820522730207439e-05  5.8028867728572082e-05  5.3354363232731109e-05  4.8798126710571007e-05  4.4360663448509477e-05  4.0041939586610987e-05  3.5841449736243151e-05  3.1758279181599960e-05  2.7791160762062529e-05  2.3938526605303035e-05  2.0198554934273825e-05  1.6569212204207484e-05  1.3048290814294776e-05  9.6334423792519716e-06  6.3222044848408081e-06  3.1120033427475321e-06  0.0000000000000000e+00  0.0000000000000000e+00  3.7834397343582111e-06  7.6913609146610754e-06  1.1727438035520890e-05  1.5895318789060568e-05  2.0198457312332983e-05  2.4640327053005454e-05  2.9224215372351918e-05  3.3953237128815077e-05  3.8830277415259770e-05  4.3857945095436099e-05  4.9038513027864616e-05  5.4373852036119369e-05  5.9865357722049618e-05  6.5513869584061084e-05  7.1319582163347544e-05  7.7281948040594387e-05  8.3399572646122909e-05  8.9670101033030561e-05  9.6090096997792851e-05  1.0265491522131410e-04  1.0935856745005853e-04  1.1619358414552252e-04  1.2315087350195806e-04  1.3021958026543953e-04  1.3738694737633751e-04  1.4463818409104072e-04  1.5195634489998752e-04  1.5932222422245385e-04  1.6671427249329319e-04  1.7410853981281047e-04  1.8147865377168162e-04  1.8879583831186677e-04  1.9602898049206802e-04  2.0314475170656214e-04  2.1010778924301086e-04  2.1688094290836502e-04  2.2342558989630045e-04  2.2970201897804757e-04  2.3566988257469696e-04  2.4128871234470491e-04  2.4651849071705340e-04  2.5132026745291542e-04  2.5565680706447541e-04  2.5949324994237454e-04  2.6279776762748311e-04  2.6554219101930450e-04  2.6770258966177360e-04  2.6925978073983264e-04  2.7019974811745415e-04  2.7051395463014588e-04  2.7019953479080880e-04  2.6925935984844417e-04  2.6770197245809595e-04  2.6554139372349814e-04  2.6279681069053416e-04  2.5949215714722655e-04  2.5565560452479169e-04  2.5131898257242842e-04  2.4651715117191914e-04  2.4128734514205038e-04  2.3566851322906501e-04  2.2970067083732051e-04  2.2342428363129150e-04  2.1687969617351330e-04  2.1010661649813666e-04  2.0314366418539150e-04  1.9602798629649428e-04  1.8879494260754862e-04  1.8147785905382613e-04  1.7410784622678451e-04  1.6671367817740372e-04  1.5932172566001239e-04  1.5195593726316997e-04  1.4463786156473197e-04  1.3738670345260953e-04  1.3021940800503158e-04  1.2315076575922999e-04  1.1619353375686622e-04  1.0935856738702913e-04  1.0265495871086683e-04  9.6090177612825689e-05  8.9670212756777623e-05  8.3399709914136868e-05  7.7282105763912327e-05  7.1319755736318644e-05  6.5514054879942248e-05  5.9865551079181356e-05  5.4374050237092282e-05  4.9038713273774836e-05  4.3858144977445446e-05  3.8830474890570592e-05  3.3953430522314893e-05  2.9224403257023314e-05  2.4640507380754782e-05  2.0198632674822734e-05  1.5895490998916644e-05  1.1727656965341072e-05  7.6916003212561741e-06  3.7836888521161982e-06  0.0000000000000000e+00  0.0000000000000000e+00  4.4718548385271444e-06  9.0967056689733614e-06  1.3879493190751553e-05  1.8825116968490493e-05  2.3938472086560555e-05  2.9224251569305572e-05  3.4687194406832688e-05  4.0331791265057407e-05  4.6162332916664108e-05  5.2182826902671366e-05  5.8396929076908094e-05  6.4807863111960990e-05  7.1418329651294109e-05  7.8230404962280318e-05  8.5245428375160269e-05  9.2463878007938068e-05  9.9885234449117384e-05  1.0750783228341627e-04  1.1532869962700884e-04  1.2334338619767759e-04  1.3154578089050591e-04  1.3992792036994945e-04  1.4847979083034118e-04  1.5718912582235179e-04  1.6604120388862494e-04  1.7501865069029194e-04  1.8410125131602538e-04  1.9326577951717260e-04  2.0248585166525812e-04  2.1173181422013716e-04  2.2097067434449132e-04  2.3016608394117193e-04  2.3927838771929726e-04  2.4826474566405692e-04  2.5707933975839856e-04  2.6567367329768927e-04  2.7399696917903172e-04  2.8199667060364511e-04  2.8961904405398981e-04  2.9680987996763753e-04  3.0351528168043622e-04  3.0968252795548010e-04  3.1526098908908200e-04  3.2020307174940034e-04  3.2446516348026992e-04  3.2800854485551912e-04  3.3080023581811516e-04  3.3281374311222139e-04  3.3402967811727789e-04  3.3443621868125862e-04  3.3402939467328419e-04  3.3281318447846554e-04  3.3079941808517271e-04  3.2800749114827050e-04  3.2446390283171134e-04  3.2020163773950025e-04  3.1525941833535504e-04  3.0968085856839276e-04  3.0351355177587834e-04  2.9680812631394907e-04  2.8961730092305545e-04  2.8199496884959418e-04  2.7399533558792851e-04  2.6567213019040820e-04  2.5707790482687985e-04  2.4826343203180907e-04  2.3927720416462125e-04  2.3016503525707122e-04  2.2096976177862239e-04  2.1173103598730092e-04  2.0248520345475651e-04  1.9326525501323012e-04  1.8410084268622568e-04  1.7501834903014036e-04  1.6604099961775470e-04  1.5718900902550746e-04  1.4847975154191057e-04  1.3992794880442820e-04  1.3154586762254155e-04  1.2334352229651931e-04  1.1532887675121575e-04  1.0750804274151393e-04  9.9885471232006822e-05  9.2464134798406989e-05  8.5245699539368965e-05  7.8230685527513392e-05  7.1418615273721850e-05  6.4808150037521693e-05  5.8397214098483764e-05  5.2183107318786946e-05  4.6162606485545618e-05  4.0332056032358725e-05  3.4687448811214838e-05  2.9224497625472499e-05  2.3938698243785745e-05  1.8825384561881793e-05  1.3879776178644254e-05  9.0970156712575227e-06  4.4721701699214599e-06  0.0000000000000000e+00  0.0000000000000000e+00  5.1771249673113706e-06  1.0538338646190571e-05  1.6090091224582887e-05  2.1838851802990891e-05  2.7791114963714081e-05  3.3953323231365188e-05  4.0331832299585741e-05  4.6932953848523038e-05  5.3762765475591026e-05  6.0827096306070532e-05  6.8131436433102510e-05  7.5680840569146196e-05  8.3479819729004461e-05  9.1532218179330306e-05  9.9841075130289341e-05  1.0840847020995772e-04  1.1723535189650056e-04  1.2632134832340466e-04  1.3566456018780084e-04  1.4526133591094602e-04  1.5510602974169813e-04  1