<?xml version="1.0"?>
<VTKFile type="UnstructuredGrid"  version="0.1"  >
<UnstructuredGrid>
<Piece  NumberOfPoints="10201" NumberOfCells="20000">
<Points>
<DataArray  type="Float64"  NumberOfComponents="3"  format="ascii">0 0 0  0.01 0 0  0.02 0 0  0.03 0 0  0.04 0 0  0.05 0 0  0.06 0 0  0.07000000000000001 0 0  0.08 0 0  0.09 0 0  0.1 0 0  0.11 0 0  0.12 0 0  0.13 0 0  0.14 0 0  0.15 0 0  0.16 0 0  0.17 0 0  0.18 0 0  0.19 0 0  0.2 0 0  0.21 0 0  0.22 0 0  0.23 0 0  0.24 0 0  0.25 0 0  0.26 0 0  0.27 0 0  0.28 0 0  0.29 0 0  0.3 0 0  0.31 0 0  0.32 0 0  0.33 0 0  0.34 0 0  0.35 0 0  0.36 0 0  0.37 0 0  0.38 0 0  0.39 0 0  0.4 0 0  0.41 0 0  0.42 0 0  0.43 0 0  0.44 0 0  0.45 0 0  0.46 0 0  0.47 0 0  0.48 0 0  0.49 0 0  0.5 0 0  0.51 0 0  0.52 0 0  0.53 0 0  0.54 0 0  0.55 0 0  0.5600000000000001 0 0  0.57 0 0  0.58 0 0  0.59 0 0  0.6 0 0  0.61 0 0  0.62 0 0  0.63 0 0  0.64 0 0  0.65 0 0  0.66 0 0  0.67 0 0  0.68 0 0  0.6899999999999999 0 0  0.7 0 0  0.71 0 0  0.72 0 0  0.73 0 0  0.74 0 0  0.75 0 0  0.76 0 0  0.77 0 0  0.78 0 0  0.79 0 0  0.8 0 0  0.8100000000000001 0 0  0.82 0 0  0.83 0 0  0.84 0 0  0.85 0 0  0.86 0 0  0.87 0 0  0.88 0 0  0.89 0 0  0.9 0 0  0.91 0 0  0.92 0 0  0.93 0 0  0.9399999999999999 0 0  0.95 0 0  0.96 0 0  0.97 0 0  0.98 0 0  0.99 0 0  1 0 0  0 0.01 0  0.01 0.01 0  0.02 0.01 0  0.03 0.01 0  0.04 0.01 0  0.05 0.01 0  0.06 0.01 0  0.07000000000000001 0.01 0  0.08 0.01 0  0.09 0.01 0  0.1 0.01 0  0.11 0.01 0  0.12 0.01 0  0.13 0.01 0  0.14 0.01 0  0.15 0.01 0  0.16 0.01 0  0.17 0.01 0  0.18 0.01 0  0.19 0.01 0  0.2 0.01 0  0.21 0.01 0  0.22 0.01 0  0.23 0.01 0  0.24 0.01 0  0.25 0.01 0  0.26 0.01 0  0.27 0.01 0  0.28 0.01 0  0.29 0.01 0  0.3 0.01 0  0.31 0.01 0  0.32 0.01 0  0.33 0.01 0  0.34 0.01 0  0.35 0.01 0  0.36 0.01 0  0.37 0.01 0  0.38 0.01 0  0.39 0.01 0  0.4 0.01 0  0.41 0.01 0  0.42 0.01 0  0.43 0.01 0  0.44 0.01 0  0.45 0.01 0  0.46 0.01 0  0.47 0.01 0  0.48 0.01 0  0.49 0.01 0  0.5 0.01 0  0.51 0.01 0  0.52 0.01 0  0.53 0.01 0  0.54 0.01 0  0.55 0.01 0  0.5600000000000001 0.01 0  0.57 0.01 0  0.58 0.01 0  0.59 0.01 0  0.6 0.01 0  0.61 0.01 0  0.62 0.01 0  0.63 0.01 0  0.64 0.01 0  0.65 0.01 0  0.66 0.01 0  0.67 0.01 0  0.68 0.01 0  0.6899999999999999 0.01 0  0.7 0.01 0  0.71 0.01 0  0.72 0.01 0  0.73 0.01 0  0.74 0.01 0  0.75 0.01 0  0.76 0.01 0  0.77 0.01 0  0.78 0.01 0  0.79 0.01 0  0.8 0.01 0  0.8100000000000001 0.01 0  0.82 0.01 0  0.83 0.01 0  0.84 0.01 0  0.85 0.01 0  0.86 0.01 0  0.87 0.01 0  0.88 0.01 0  0.89 0.01 0  0.9 0.01 0  0.91 0.01 0  0.92 0.01 0  0.93 0.01 0  0.9399999999999999 0.01 0  0.95 0.01 0  0.96 0.01 0  0.97 0.01 0  0.98 0.01 0  0.99 0.01 0  1 0.01 0  0 0.02 0  0.01 0.02 0  0.02 0.02 0  0.03 0.02 0  0.04 0.02 0  0.05 0.02 0  0.06 0.02 0  0.07000000000000001 0.02 0  0.08 0.02 0  0.09 0.02 0  0.1 0.02 0  0.11 0.02 0  0.12 0.02 0  0.13 0.02 0  0.14 0.02 0  0.15 0.02 0  0.16 0.02 0  0.17 0.02 0  0.18 0.02 0  0.19 0.02 0  0.2 0.02 0  0.21 0.02 0  0.22 0.02 0  0.23 0.02 0  0.24 0.02 0  0.25 0.02 0  0.26 0.02 0  0.27 0.02 0  0.28 0.02 0  0.29 0.02 0  0.3 0.02 0  0.31 0.02 0  0.32 0.02 0  0.33 0.02 0  0.34 0.02 0  0.35 0.02 0  0.36 0.02 0  0.37 0.02 0  0.38 0.02 0  0.39 0.02 0  0.4 0.02 0  0.41 0.02 0  0.42 0.02 0  0.43 0.02 0  0.44 0.02 0  0.45 0.02 0  0.46 0.02 0  0.47 0.02 0  0.48 0.02 0  0.49 0.02 0  0.5 0.02 0  0.51 0.02 0  0.52 0.02 0  0.53 0.02 0  0.54 0.02 0  0.55 0.02 0  0.5600000000000001 0.02 0  0.57 0.02 0  0.58 0.02 0  0.59 0.02 0  0.6 0.02 0  0.61 0.02 0  0.62 0.02 0  0.63 0.02 0  0.64 0.02 0  0.65 0.02 0  0.66 0.02 0  0.67 0.02 0  0.68 0.02 0  0.6899999999999999 0.02 0  0.7 0.02 0  0.71 0.02 0  0.72 0.02 0  0.73 0.02 0  0.74 0.02 0  0.75 0.02 0  0.76 0.02 0  0.77 0.02 0  0.78 0.02 0  0.79 0.02 0  0.8 0.02 0  0.8100000000000001 0.02 0  0.82 0.02 0  0.83 0.02 0  0.84 0.02 0  0.85 0.02 0  0.86 0.02 0  0.87 0.02 0  0.88 0.02 0  0.89 0.02 0  0.9 0.02 0  0.91 0.02 0  0.92 0.02 0  0.93 0.02 0  0.9399999999999999 0.02 0  0.95 0.02 0  0.96 0.02 0  0.97 0.02 0  0.98 0.02 0  0.99 0.02 0  1 0.02 0  0 0.03 0  0.01 0.03 0  0.02 0.03 0  0.03 0.03 0  0.04 0.03 0  0.05 0.03 0  0.06 0.03 0  0.07000000000000001 0.03 0  0.08 0.03 0  0.09 0.03 0  0.1 0.03 0  0.11 0.03 0  0.12 0.03 0  0.13 0.03 0  0.14 0.03 0  0.15 0.03 0  0.16 0.03 0  0.17 0.03 0  0.18 0.03 0  0.19 0.03 0  0.2 0.03 0  0.21 0.03 0  0.22 0.03 0  0.23 0.03 0  0.24 0.03 0  0.25 0.03 0  0.26 0.03 0  0.27 0.03 0  0.28 0.03 0  0.29 0.03 0  0.3 0.03 0  0.31 0.03 0  0.32 0.03 0  0.33 0.03 0  0.34 0.03 0  0.35 0.03 0  0.36 0.03 0  0.37 0.03 0  0.38 0.03 0  0.39 0.03 0  0.4 0.03 0  0.41 0.03 0  0.42 0.03 0  0.43 0.03 0  0.44 0.03 0  0.45 0.03 0  0.46 0.03 0  0.47 0.03 0  0.48 0.03 0  0.49 0.03 0  0.5 0.03 0  0.51 0.03 0  0.52 0.03 0  0.53 0.03 0  0.54 0.03 0  0.55 0.03 0  0.5600000000000001 0.03 0  0.57 0.03 0  0.58 0.03 0  0.59 0.03 0  0.6 0.03 0  0.61 0.03 0  0.62 0.03 0  0.63 0.03 0  0.64 0.03 0  0.65 0.03 0  0.66 0.03 0  0.67 0.03 0  0.68 0.03 0  0.6899999999999999 0.03 0  0.7 0.03 0  0.71 0.03 0  0.72 0.03 0  0.73 0.03 0  0.74 0.03 0  0.75 0.03 0  0.76 0.03 0  0.77 0.03 0  0.78 0.03 0  0.79 0.03 0  0.8 0.03 0  0.8100000000000001 0.03 0  0.82 0.03 0  0.83 0.03 0  0.84 0.03 0  0.85 0.03 0  0.86 0.03 0  0.87 0.03 0  0.88 0.03 0  0.89 0.03 0  0.9 0.03 0  0.91 0.03 0  0.92 0.03 0  0.93 0.03 0  0.9399999999999999 0.03 0  0.95 0.03 0  0.96 0.03 0  0.97 0.03 0  0.98 0.03 0  0.99 0.03 0  1 0.03 0  0 0.04 0  0.01 0.04 0  0.02 0.04 0  0.03 0.04 0  0.04 0.04 0  0.05 0.04 0  0.06 0.04 0  0.07000000000000001 0.04 0  0.08 0.04 0  0.09 0.04 0  0.1 0.04 0  0.11 0.04 0  0.12 0.04 0  0.13 0.04 0  0.14 0.04 0  0.15 0.04 0  0.16 0.04 0  0.17 0.04 0  0.18 0.04 0  0.19 0.04 0  0.2 0.04 0  0.21 0.04 0  0.22 0.04 0  0.23 0.04 0  0.24 0.04 0  0.25 0.04 0  0.26 0.04 0  0.27 0.04 0  0.28 0.04 0  0.29 0.04 0  0.3 0.04 0  0.31 0.04 0  0.32 0.04 0  0.33 0.04 0  0.34 0.04 0  0.35 0.04 0  0.36 0.04 0  0.37 0.04 0  0.38 0.04 0  0.39 0.04 0  0.4 0.04 0  0.41 0.04 0  0.42 0.04 0  0.43 0.04 0  0.44 0.04 0  0.45 0.04 0  0.46 0.04 0  0.47 0.04 0  0.48 0.04 0  0.49 0.04 0  0.5 0.04 0  0.51 0.04 0  0.52 0.04 0  0.53 0.04 0  0.54 0.04 0  0.55 0.04 0  0.5600000000000001 0.04 0  0.57 0.04 0  0.58 0.04 0  0.59 0.04 0  0.6 0.04 0  0.61 0.04 0  0.62 0.04 0  0.63 0.04 0  0.64 0.04 0  0.65 0.04 0  0.66 0.04 0  0.67 0.04 0  0.68 0.04 0  0.6899999999999999 0.04 0  0.7 0.04 0  0.71 0.04 0  0.72 0.04 0  0.73 0.04 0  0.74 0.04 0  0.75 0.04 0  0.76 0.04 0  0.77 0.04 0  0.78 0.04 0  0.79 0.04 0  0.8 0.04 0  0.8100000000000001 0.04 0  0.82 0.04 0  0.83 0.04 0  0.84 0.04 0  0.85 0.04 0  0.86 0.04 0  0.87 0.04 0  0.88 0.04 0  0.89 0.04 0  0.9 0.04 0  0.91 0.04 0  0.92 0.04 0  0.93 0.04 0  0.9399999999999999 0.04 0  0.95 0.04 0  0.96 0.04 0  0.97 0.04 0  0.98 0.04 0  0.99 0.04 0  1 0.04 0  0 0.05 0  0.01 0.05 0  0.02 0.05 0  0.03 0.05 0  0.04 0.05 0  0.05 0.05 0  0.06 0.05 0  0.07000000000000001 0.05 0  0.08 0.05 0  0.09 0.05 0  0.1 0.05 0  0.11 0.05 0  0.12 0.05 0  0.13 0.05 0  0.14 0.05 0  0.15 0.05 0  0.16 0.05 0  0.17 0.05 0  0.18 0.05 0  0.19 0.05 0  0.2 0.05 0  0.21 0.05 0  0.22 0.05 0  0.23 0.05 0  0.24 0.05 0  0.25 0.05 0  0.26 0.05 0  0.27 0.05 0  0.28 0.05 0  0.29 0.05 0  0.3 0.05 0  0.31 0.05 0  0.32 0.05 0  0.33 0.05 0  0.34 0.05 0  0.35 0.05 0  0.36 0.05 0  0.37 0.05 0  0.38 0.05 0  0.39 0.05 0  0.4 0.05 0  0.41 0.05 0  0.42 0.05 0  0.43 0.05 0  0.44 0.05 0  0.45 0.05 0  0.46 0.05 0  0.47 0.05 0  0.48 0.05 0  0.49 0.05 0  0.5 0.05 0  0.51 0.05 0  0.52 0.05 0  0.53 0.05 0  0.54 0.05 0  0.55 0.05 0  0.5600000000000001 0.05 0  0.57 0.05 0  0.58 0.05 0  0.59 0.05 0  0.6 0.05 0  0.61 0.05 0  0.62 0.05 0  0.63 0.05 0  0.64 0.05 0  0.65 0.05 0  0.66 0.05 0  0.67 0.05 0  0.68 0.05 0  0.6899999999999999 0.05 0  0.7 0.05 0  0.71 0.05 0  0.72 0.05 0  0.73 0.05 0  0.74 0.05 0  0.75 0.05 0  0.76 0.05 0  0.77 0.05 0  0.78 0.05 0  0.79 0.05 0  0.8 0.05 0  0.8100000000000001 0.05 0  0.82 0.05 0  0.83 0.05 0  0.84 0.05 0  0.85 0.05 0  0.86 0.05 0  0.87 0.05 0  0.88 0.05 0  0.89 0.05 0  0.9 0.05 0  0.91 0.05 0  0.92 0.05 0  0.93 0.05 0  0.9399999999999999 0.05 0  0.95 0.05 0  0.96 0.05 0  0.97 0.05 0  0.98 0.05 0  0.99 0.05 0  1 0.05 0  0 0.06 0  0.01 0.06 0  0.02 0.06 0  0.03 0.06 0  0.04 0.06 0  0.05 0.06 0  0.06 0.06 0  0.07000000000000001 0.06 0  0.08 0.06 0  0.09 0.06 0  0.1 0.06 0  0.11 0.06 0  0.12 0.06 0  0.13 0.06 0  0.14 0.06 0  0.15 0.06 0  0.16 0.06 0  0.17 0.06 0  0.18 0.06 0  0.19 0.06 0  0.2 0.06 0  0.21 0.06 0  0.22 0.06 0  0.23 0.06 0  0.24 0.06 0  0.25 0.06 0  0.26 0.06 0  0.27 0.06 0  0.28 0.06 0  0.29 0.06 0  0.3 0.06 0  0.31 0.06 0  0.32 0.06 0  0.33 0.06 0  0.34 0.06 0  0.35 0.06 0  0.36 0.06 0  0.37 0.06 0  0.38 0.06 0  0.39 0.06 0  0.4 0.06 0  0.41 0.06 0  0.42 0.06 0  0.43 0.06 0  0.44 0.06 0  0.45 0.06 0  0.46 0.06 0  0.47 0.06 0  0.48 0.06 0  0.49 0.06 0  0.5 0.06 0  0.51 0.06 0  0.52 0.06 0  0.53 0.06 0  0.54 0.06 0  0.55 0.06 0  0.5600000000000001 0.06 0  0.57 0.06 0  0.58 0.06 0  0.59 0.06 0  0.6 0.06 0  0.61 0.06 0  0.62 0.06 0  0.63 0.06 0  0.64 0.06 0  0.65 0.06 0  0.66 0.06 0  0.67 0.06 0  0.68 0.06 0  0.6899999999999999 0.06 0  0.7 0.06 0  0.71 0.06 0  0.72 0.06 0  0.73 0.06 0  0.74 0.06 0  0.75 0.06 0  0.76 0.06 0  0.77 0.06 0  0.78 0.06 0  0.79 0.06 0  0.8 0.06 0  0.8100000000000001 0.06 0  0.82 0.06 0  0.83 0.06 0  0.84 0.06 0  0.85 0.06 0  0.86 0.06 0  0.87 0.06 0  0.88 0.06 0  0.89 0.06 0  0.9 0.06 0  0.91 0.06 0  0.92 0.06 0  0.93 0.06 0  0.9399999999999999 0.06 0  0.95 0.06 0  0.96 0.06 0  0.97 0.06 0  0.98 0.06 0  0.99 0.06 0  1 0.06 0  0 0.07000000000000001 0  0.01 0.07000000000000001 0  0.02 0.07000000000000001 0  0.03 0.07000000000000001 0  0.04 0.07000000000000001 0  0.05 0.07000000000000001 0  0.06 0.07000000000000001 0  0.07000000000000001 0.07000000000000001 0  0.08 0.07000000000000001 0  0.09 0.07000000000000001 0  0.1 0.07000000000000001 0  0.11 0.07000000000000001 0  0.12 0.07000000000000001 0  0.13 0.07000000000000001 0  0.14 0.07000000000000001 0  0.15 0.07000000000000001 0  0.16 0.07000000000000001 0  0.17 0.0700
[...]
<PointData  Scalars="Indicator Function"> 
<DataArray  type="Float64"  Name="Indicator Function"  format="ascii">-4.2600243800333480e-21  1.0523854293362821e-20  9.7786166386371137e-20  -7.7665365866941956e-20  -3.0657085109854960e-20  -2.2423740465780474e-20  -2.3503525628267712e-20  4.9133607190345007e-19  8.0816284906833271e-19  -2.2167396426226359e-21  1.8403183694832660e-18  8.9378073522975781e-19  -1.7415100517667604e-20  -1.2927635395652683e-20  7.3434036885990406e-18  -1.3585470189525126e-20  1.6851887013388314e-34  2.1680337279191366e-18  -7.4576913405983115e-21  -1.3226441726739555e-20  1.0767745080624787e-17  -5.6556605428801477e-21  -3.3793975161557560e-20  4.1927090300265323e-18  -9.2754815313224631e-21  -2.0084736766232841e-20  -1.4131921672575353e-20  -3.4962715582307014e-20  3.4453706494440356e-17  -1.3776375054848417e-20  -4.6920731031680931e-20  -2.1003753814255145e-20  -4.2353427619463409e-20  -3.3548853074307834e-20  1.9427725220733085e-18  -3.8949793260752749e-20  -7.3093082013292529e-20  -8.8788720840784834e-20  -9.5384741180295224e-20  -9.1564992396188923e-20  1.6306579098870789e-18  -2.5096951848974012e-20  -2.2981143758637057e-20  -3.0272358426750536e-20  -3.0534403971457750e-20  -1.5267201985728098e-20  2.7497465165902700e-18  -1.2001816154513724e-20  -1.0822551108654737e-20  -1.1673535246176196e-20  -7.2867878766239004e-21  -1.1459623050291028e-20  -7.4480730595711033e-21  -1.1717275697403159e-20  -7.1825750418366240e-21  -3.1233388551085751e-24  6.1529775446005937e-22  -3.3073098412297332e-23  -5.0474924537958610e-23  -4.4280727628184097e-23  -2.7881485292523697e-23  -1.3668545683656069e-23  -4.4946107817476003e-24  1.4693679385278594e-38  -2.9387358770557188e-39  -7.3468396926392969e-39  -4.2611670217307922e-38  1.6163047323806453e-38  2.7204281145749381e-22  1.0285575569695016e-38  -1.4693679385278594e-39  -1.4693679385278594e-39  -1.2489627477486805e-38  -7.3468396926392969e-40  1.6897731293070383e-38  -1.8367099231598242e-38  -1.2489627477486805e-38  1.1020259538958945e-38  -3.6734198463196485e-39  1.1020259538958945e-38  -1.2122285492854840e-38  2.1445769803478249e-22  5.5101297694794727e-39  5.5101297694794727e-39  -3.3060778616876836e-39  5.5101297694794727e-39  -3.6734198463196485e-40  -1.6530389308438418e-39  -6.0611427464274200e-39  -1.6530389308438418e-39  1.2856969462118770e-39  2.7550648847397363e-39  -5.9693072502694288e-39  -2.2099293795459005e-36  -8.2651946542192090e-40  -9.1835496157991212e-41  1.0561082058168989e-39  1.0561082058168989e-39  -5.7397185098744507e-40  -1.4349296274686127e-41  -3.7595156239677652e-40  -5.9091654287755505e-21  7.6741776842029685e-05  5.0658500655016727e-05  1.5987974832208155e-04  1.1117758721279389e-05  9.7235666675816197e-07  4.5689826407996104e-04  2.3255744070870075e-04  5.6277205190444440e-04  7.9414687886608727e-05  3.9933231313969991e-05  2.6710875556045167e-04  3.3951012235698734e-04  1.4396749962945659e-04  3.0368247710023377e-04  1.1905534690974037e-04  2.4473407393279335e-04  3.2596041200595515e-04  1.5796833084570191e-04  5.7731750250747740e-04  2.0512327897286887e-04  4.4084740584594367e-04  1.0188332285379620e-04  6.0877813577983858e-04  3.3418444134516588e-04  7.2362890412992536e-04  5.0915613742911537e-04  5.1724407792886956e-04  3.7121025250891386e-04  4.9634622050825233e-04  1.7701752870165758e-04  7.5673998281008915e-04  5.3179838643960665e-04  4.9707233015971141e-04  3.5582624373678304e-04  2.0495930292997401e-05  7.0165709766113564e-04  9.6589935884313337e-04  1.1165257209514790e-03  1.1600358788698953e-03  1.0694703231076876e-03  8.3844954980739352e-04  3.9920812624990198e-05  4.1399148187178255e-04  3.3834258758546763e-04  5.5005892139134926e-04  4.9881092645994590e-04  4.3241099808989756e-04  3.8992349712108494e-04  2.3869507060815146e-04  2.1029171593910188e-04  2.5510570980530133e-04  7.8885361493737370e-05  1.3417255622285060e-04  1.4399339574706359e-04  5.7393071254372348e-05  5.6265070816091453e-08  5.3013614256344200e-06  2.6393087284375520e-06  2.0735649814678564e-06  1.5988305422326093e-06  1.1734974949996256e-06  8.2733403974058581e-07  5.7168302646319606e-07  4.0074266226247407e-07  2.9361510829195462e-07  2.2951449513001471e-07  1.9169584980698296e-07  1.6872005698412548e-07  1.5362107674165599e-07  1.4241194637626221e-07  1.3292675796269485e-07  1.2405273561950502e-07  1.1525650953935635e-07  1.0632431672147412e-07  9.7231974305444983e-08  8.8081622918220640e-08  7.9068392565828500e-08  7.0456096616028821e-08  6.2548258122772510e-08  5.5642859047460820e-08  4.9962421949332597e-08  4.5564054262193200e-08  4.2260425097935123e-08  3.9609249114676393e-08  3.7024256710308830e-08  3.3999685638011503e-08  3.0347264923806821e-08  2.6299016098517864e-08  2.2387531834791804e-08  1.9132575268188902e-08  1.6676470733064417e-08  1.4650804203379908e-08  1.2566323346522061e-08  1.0424366038321693e-08  8.5908820707474949e-09  7.1351766369234267e-09  6.0555746949201770e-09  3.9576558719511277e-09  2.7690848129803729e-09  -9.6427270965890772e-40  -6.6121618670683875e-21  1.0645006089241665e-04  1.2023950144178456e-04  4.3809861147511251e-05  2.5052168782204891e-04  1.8951579953874474e-04  2.5455272801685303e-04  6.4243425466751949e-04  4.8458347502661415e-04  2.7351379743967248e-04  1.2047818524596933e-04  4.5172888086044490e-05  3.8844840349143759e-04  8.5716261759594223e-04  6.9661848928681918e-05  1.3190398665684417e-04  3.7368493379120955e-04  1.2945704694367801e-04  6.9652359445049967e-04  2.9704662723444582e-05  8.8706277900447623e-05  6.7210742408681929e-04  5.4184566966249104e-04  1.0024185873282968e-03  4.5386411127553968e-04  4.7744350613025980e-04  5.1820506842426212e-04  8.8133321491718039e-04  1.4465434277787896e-03  7.8178804478587266e-04  7.1515015468412988e-04  1.3600018430786032e-03  3.3014123188355998e-04  1.0187307740665925e-03  4.7913850445299591e-04  4.2761671546407369e-04  1.1137420013708427e-03  1.3406134402469286e-03  1.5075957386095008e-03  1.6323911885076493e-03  1.6117011472204981e-03  1.3623729766792819e-03  3.0194105383534261e-04  1.8289617529804262e-04  8.7818867870545828e-04  6.9982115531330063e-04  4.1219008552865078e-04  5.9712804649871226e-04  4.3392534652233057e-04  1.6240564668281961e-04  1.3490055768667581e-04  1.3805763962252714e-04  3.7307848706579161e-04  1.2064758565637540e-04  2.6220130167954164e-04  1.7497257682674527e-04  1.0056765061158677e-05  1.0240378830688487e-06  4.8448819783901201e-06  3.2753744739889419e-06  2.6249587994541105e-06  2.0051406658524723e-06  1.4407027782487803e-06  9.9980108429391372e-07  6.9112259377446260e-07  4.9202924787191995e-07  3.7063186435490492e-07  2.9837783454316600e-07  2.5503638249935244e-07  2.2765741790775795e-07  2.0855867300054241e-07  1.9351344596810558e-07  1.8032935915295473e-07  1.6792892066268594e-07  1.5582647491515592e-07  1.4384724598347253e-07  1.3198252074822386e-07  1.2031741425211785e-07  1.0899534724381280e-07  9.8199329924399832e-08  8.8135007297909191e-08  7.9000183187910376e-08  7.0930907321849235e-08  6.3934403698640280e-08  5.7849564982142225e-08  5.2388285425105376e-08  4.7268422677716103e-08  4.2355899284089778e-08  3.7679507943021006e-08  3.3284880911325241e-08  2.9109048294660169e-08  2.5086412906601624e-08  2.1349778387098558e-08  1.8123489262435249e-08  1.5374754273712974e-08  1.2864905418580787e-08  1.0571598693835967e-08  9.0448803806488764e-09  7.0174221228610013e-09  3.7028916797705602e-09  2.2040519077917891e-39  -8.8132740149836683e-21  1.1911411888257055e-04  1.7538242427249606e-04  7.1391605191685917e-05  2.3086655358644758e-04  1.1704315604065304e-05  7.3743898174734188e-05  7.0180498780585913e-04  3.0755312503992033e-04  9.9360106364082936e-04  2.6012824490153258e-04  6.4027082885164337e-05  3.8407339313316157e-04  5.7875494443434584e-04  4.3087800169099092e-04  5.6670175585168514e-04  4.8604891686274739e-04  6.1802843690213368e-04  4.0180951181860300e-04  1.2804819555585023e-04  9.9945168797717756e-04  6.2542475381554955e-04  1.0958458649629962e-03  7.6978460325451430e-04  1.5043626770044566e-03  1.2006866235187077e-03  1.4885569701089531e-03  9.2181009551927197e-04  5.2582541646257542e-04  1.1062334681631542e-03  1.4804240210379706e-03  2.0406984551387357e-04  1.8303580174555173e-03  1.3893215256166761e-03  9.6492969031793617e-04  4.1349807121314063e-04  1.9684147836356933e-05  1.7468242087923316e-03  1.6825251609685233e-03  1.7190861399772226e-03  1.7353891220601553e-03  1.5616937329745882e-03  1.2031731534262993e-03  3.3421811935279930e-04  7.2590354423402879e-04  6.5245961862654754e-04  1.4956599035873344e-03  1.0784160696192637e-03  7.4687711328139952e-04  5.9977897995782640e-04  4.3525254452078774e-04  4.6815139725399065e-04  5.2650981984445338e-04  2.7977793369750591e-04  3.1642699429474091e-04  3.2405375416537949e-04  8.3268621093527767e-05  1.4919469328475601e-05  4.1802775938850613e-06  3.1983643698025222e-06  2.9596753885246762e-06  2.5150623476210490e-06  1.9272663445469491e-06  1.3913656222754032e-06  9.7547994504775446e-07  6.8874076406792170e-07  5.0446181404054119e-07  3.9133679240909274e-07  3.2314196278753761e-07  2.8101403340008910e-07  2.5306344435826113e-07  2.3243451901602590e-07  2.1539068950618695e-07  2.0000847086851051e-07  1.8536709745487057e-07  1.7107773243003865e-07  1.5703075039233324e-07  1.4326655478305100e-07  1.2991089352707368e-07  1.1714125875482542e-07  1.0516213398421419e-07  9.4171021751147613e-08  8.4305357535157981e-08  7.5581905332158525e-08  6.7870312726764107e-08  6.0952150960530892e-08  5.4667238634080426e-08  4.9043678530556572e-08  4.4243069148859039e-08  4.0270504516250062e-08  3.6696888542409127e-08  3.2807804454461402e-08  2.8240520990012132e-08  2.3469842116995758e-08  1.9391810809223846e-08  1.6316208075528957e-08  1.3713982350926146e-08  1.1300062447974246e-08  9.2586546405408244e-09  5.5888452094435380e-09  -4.5917748078995606e-40  -7.8008655078558820e-21  1.5876583027917831e-04  1.8780551611465338e-04  1.6880682190274695e-04  5.5208638152314531e-05  3.4370860718774206e-04  3.1544467279543412e-04  3.1759260827766029e-04  7.8935379101731287e-04  4.9922444684790161e-04  3.5602207144147204e-04  1.5987605856768492e-04  1.4115435827064880e-04  4.9082883577625778e-04  1.1497368234754972e-03  9.9054114573186581e-05  2.3183762428873370e-04  3.4712572775421192e-04  1.5641270957987200e-04  1.0233386633126910e-03  6.2088755827787435e-05  3.6730987547462196e-04  5.4678255585563712e-04  3.3685684293286198e-04  7.8915030243965640e-04  4.4402289402848778e-05  2.8256408454954963e-05  1.1503851268341626e-03  1.5114653650333018e-03  1.8715092144566108e-03  4.8791514141528249e-04  1.5276187416542600e-03  1.6804506851507406e-03  1.1679969368531007e-03  1.8934466551141292e-03  8.2665177834807433e-04  6.6359159883471873e-04  1.1491141840093888e-03  2.1654112826000704e-03  2.0693863157352299e-03  2.0016516779522782e-03  1.9363626527768667e-03  1.6093820384098514e-03  4.5080996086890125e-04  6.0971053161106188e-04  1.4466264688245255e-03  6.9691455913519602e-04  1.2619240400460240e-03  1.3431589460909125e-03  8.4457256568553209e-04  3.7864700897677215e-04  3.2236626541841400e-05  4.5292400868976922e-05  6.5975167463467634e-04  6.0154794001439420e-05  4.1489001317143758e-04  2.4355864672307662e-04  8.2507938972151905e-06  4.3629614673508060e-06  2.5579045256615305e-06  2.7217953513087538e-06  2.7220498735940292e-06  2.3203191296228346e-06  1.7937679812920647e-06  1.3071947972538238e-06  9.3168993183045547e-07  6.7094892680258694e-07  5.0347804152319245e-07  3.9997862225711732e-07  3.3606874754006336e-07  2.9510685404340660e-07  2.6666897999419189e-07  2.4469828568751371e-07  2.2593423634854887e-07  2.0874071556652843e-07  1.9237047965835571e-07  1.7654863159311768e-07  1.6124632659660419e-07  1.4656082952087156e-07  1.3265045603900105e-07  1.1969118318677051e-07  1.0783168645585866e-07  9.7135046370944259e-08  8.7518975431917670e-08  7.8738579668374266e-08  7.0467497469335591e-08  6.2484556699618838e-08  5.4863704300201750e-08  4.7985640254379030e-08  4.2277464780510352e-08  3.7845200532354632e-08  3.4334400759569262e-08  3.1155786730232744e-08  2.7830093123203726e-08  2.4180114039381932e-08  2.0384546897259775e-08  1.6847681232176228e-08  1.3793128694461914e-08  1.1449186505413889e-08  7.3424277348523009e-09  2.5713938924237539e-39  -6.9652292574721337e-21  1.4052789997738837e-04  2.1064956561564938e-04  2.4611886810448297e-04  6.8864490847750720e-05  2.7394626980251541e-04  4.1998807324771508e-05  8.9699431662829473e-05  7.3878822874779511e-04  3.4360232985344684e-04  1.1094412666066340e-03  4.1863384557277376e-04  1.4241835704012395e-04  4.2518206610218175e-04  5.8944475218176973e-04  5.1695405450306300e-04  6.6047912533177345e-04  5.9953036786957240e-04  6.8077797560420596e-04  4.9683280157797696e-04  1.2915284597436380e-04  1.1345820194340157e-03  6.5135676035849401e-04  1.2229883442990733e-03  8.7379539468710095e-04  1.7082554901597408e-03  1.2022718469509065e-03  1.3765310044674464e-03  6.5143408786953966e-04  1.2045585072442148e-04  1.6842416912056595e-03  1.5534864390238249e-03  3.7493331958411382e-04  2.4677203049748597e-03  8.4500507338740403e-04  1.6904228252662254e-03  7.9515853764210609e-04  2.7030639355520963e-04  1.9561242340459784e-03  2.5091076465667056e-03  2.4800269502142235e-03  2.3768000491410611e-03  2.1648733531408428e-03  1.7598605636308775e-03  3.5317013805207599e-04  1.2288680162025930e-03  1.3246877199490294e-03  1.8602367739184152e-03  7.2788182387573878e-04  4.4211412580317790e-04  4.5445925182971268e-04  3.4576886593520124e-04  4.7576511968707336e-04  5.2672017946769521e-04  4.1383946030217506e-04  3.3177918695978780e-04  3.9721979133621350e-04  7.8379882171253679e-05  2.2266626606064240e-05  1.7554074152783184e-06  2.0272515184971467e-06  2.5621875947537296e-06  2.5805573098286015e-06  2.1924947509194746e-06  1.6945986621628735e-06  1.2387357522556062e-06  8.9278190968962836e-07  6.5608276473173567e-07  5.0287708086451937e-07  4.0666832766894913e-07  3.4598618048316279e-07  3.0571746967558923e-07  2.7651981663097142e-07  2.5309158268915984e-07  2.3261187292891134e-07  2.1369599824501045e-07  1.9575042919704986e-07  1.7859883992611699e-07  1.6227698784909775e-07  1.4692079936234456e-07  1.3269825486669026e-07  1.1975191209952560e-07  1.0813402586975453e-07  9.7742276259243286e-08  8.8298205679847917e-08  7.9424346465371371e-08  7.0829200101432463e-08  6.2500967332742955e-08  5.4733577522818182e-08  4.7901736312397970e-08  4.2161042101835505e-08  3.7388090619484368e-08  3.3398239712914630e-08  3.0056720043042031e-08  2.7069556392396289e-08  2.3934768206816658e-08  2.0421045697362698e-08  1.6808992442061621e-08  1.3531457761094393e-08  9.1346115429690027e-09  -5.5101297694794727e-40  -7.2626416614305850e-21  1.2547441555400639e-04  2.6790999576538777e-04  2.3779044126015481e-04  1.9293294885967610e-04  6.8616088165311797e-05  4.0295506720176529e-04  4.4334432567189888e-04  4.1671300278775791e-04  8.3607957507291473e-04  4.9069821377578280e-04  3.6240438443141436e-04  1.9307104951979826e-04  2.0554586010341071e-04  5.9797231820937920e-04  1.2097714194357367e-03  1.2055538845155158e-04  2.0422125032803351e-04  4.4276259496583487e-04  2.1624990640163017e-04  1.1052635203254823e-03  2.4200019268176361e-05  2.8887313331762044e-04  6.9244325799014796e-04  4.5642192775003336e-04  9.1785683707176703e-04  1.7452642857230222e-05  2.2878716868668583e-05  1.1104147376753326e-03  1.4990632652815148e-03  1.9026666969437390e-03  2.9371158738598625e-04  1.7792280614882367e-03  1.5679411892564404e-03  1.6622050312580113e-03  1.8133775321305496e-03  1.2935982615259146e-03  9.2174386606985953e-04  1.1004937491522976e-03  2.4894380556349230e-03  2.7638162792552137e-03  2.7383454237539522e-03  2.6312415264446672e-03  2.2355299933111742e-03  7.8538092863719375e-04  7.6900666465073715e-04  1.9174307418645868e-03  4.6129804142519331e-04  1.6266185862914037e-03  1.3366915548362096e-03  7.3383040568315969e-04  2.7414230170660843e-04  1.1479214056293702e-04  1.1346201599384626e-05  7.0822123239404897e-04  6.1654105926043059e-05  4.4690140060131052e-04  2.4360832748438415e-04  2.2146938722663737e-05  3.9068365783686676e-06  1.1361793251252960e-06  2.0152242317241849e-06  2.6228120255923454e-06  2.5151214698379198e-06  2.0965466808057448e-06  1.6049583931025501e-06  1.1829002496528222e-06  8.6416699043549090e-07  6.4491223057738261e-07  5.0317202916916399e-07  4.1322739216751508e-07  3.5486972053081013e-07  3.1467393068774900e-07  2.8440810829197513e-07  2.5939928453246853e-07  2.3720770468020642e-07  2.1667955094983446e-07  1.9735975984639451e-07  1.7915403562422444e-07  1.6214021516737239e-07  1.4645957781859760e-07  1.3223928571814857e-07  1.1951826598078022e-07  1.0817905757753651e-07  9.7924518344766693e-08  8.8354062005937143e-08  7.9148190195647991e-08  7.0260378234881419e-08  6.1936042713562008e-08  5.4476118887091718e-08  4.7938919510319809e-08  4.2129358459728788e-08  3.6926823740286477e-08  3.2495642066119935e-08  2.8995596936692408e-08  2.6164748903341030e-08  2.3395822594918613e-08  2.0153421584612132e-08  1.6206189307149552e-08  1.1200432836089359e-08  -1.2856969462118770e-39  -5.8516639841534123e-21  1.3083212112057694e-04  2.1709981793126767e-04  2.9136137948151866e-04  3.0963140271532847e-04  3.4072390933538046e-05  3.2059682167813778e-04  6.7021348430017851e-05  7.8917844558460700e-05  7.6135245122237465e-04  4.0417409251977644e-04  1.1628087033062099e-03  5.4473099820269693e-04  2.2676185871759298e-04  4.8428808907205776e-04  6.2225862017330625e-04  5.2533487192454561e-04  7.4262191038965998e-04  6.6487205689915818e-04  7.0510639364080414e-04  6.3642800752456981e-04  2.4681761038734438e-04  1.2790709105317823e-03  6.9316614351477770e-04  1.2666735975350903e-03  8.6365041709776603e-04  1.7871139703810217e-03  1.2803604215861238e-03  1.5499143927409080e-03  8.7068952811155504e-04  3.5402875758744844e-04  1.7166612742018895e-03  1.6652200883396793e-03  2.4073970885743609e-04  2.7636551226817626e-03  8.7111740980160067e-04  1.8158137524725716e-03  9.6692519234104900e-04  2.1004984499728424e-04  2.1027710303118592e-03  2.8264947017972346e-03  2.9194052166185559e-03  2.8425397821183898e-03  2.6121013466872088e-03  2.0481778489803903e-03  3.8703683061584699e-04  1.4594870710996370e-03  1.4506984760506397e-03  2.0366507460599956e-03  8.2442803962701433e-04  5.9053905507703305e-04  5.9466205119786434e-04  4.2071491752373541e-04  5.3016218530966414e-04  6.2098188962707323e-04  3.7780201438693766e-04  3.6748002579233365e-04  4.0067656830263860e-04  5.4276001036504650e-05  2.0806531197827363e-05  4.7711134595998132e-07  1.3302998588585777e-06  2.3231329837606552e-06  2.6393812710304123e-06  2.4384363696808365e-06  2.0125624035840137e-06  1.5421491444920205e-06  1.1376468059334244e-06  8.4035924125082148e-07  6.3858423530459781e-07  5.0655965442714921e-07  4.2102766654269995e-07  3.6404930869223589e-07  3.2343094887260924e-07  2.9180531072807675e-07  2.6508967391960787e-07  2.4119975835511733e-07  2.1918773770370842e-07  1.9871062295524232e-07  1.7972424114278548e-07  1.6230882473581320e-07  1.4655639230948514e-07  1.3248017211407379e-07  1.1994037494698411e-07  1.0861968820121304e-07  9.8100718479483549e-08  8.8053383521696937e-08  7.8429053724403105e-08  6.9475334853345473e-08  6.1483454967900805e-08  5.4466709992855073e-08  4.8139561894626295e-08  4.2273227397069531e-08  3.6979156736305333e-08  3.2515599013563584e-08  2.8917927869398182e-08  2.5928791843587190e-08  2.2997216218041835e-08  1.9114747055068975e-08  1.3141484578500374e-08  -5.1427877848475078e-39  -9.0798338649335295e-21  1.0541420695412295e-04  2.2954320466136394e-04  3.5221039601226502e-04  2.5713934631166780e-04  2.1951004551215960e-04  9.2909691644137729e-05  4.2195270192927188e-04  5.4177341055595735e-04  5.5658825462283411e-04  8.3897529153298552e-04  5.2292123327888121e-04  3.4649115448166486e-04  2.3207201154557415e-04  2.4388470987661369e-04  7.2451827188174005e-04  1.2856890935177621e-03  1.28