<?xml version="1.0"?>
<VTKFile type="UnstructuredGrid"  version="0.1"  >
<UnstructuredGrid>
<Piece  NumberOfPoints="10201" NumberOfCells="20000">
<Points>
<DataArray  type="Float64"  NumberOfComponents="3"  format="ascii">0 0 0  0.01 0 0  0.02 0 0  0.03 0 0  0.04 0 0  0.05 0 0  0.06 0 0  0.07000000000000001 0 0  0.08 0 0  0.09 0 0  0.1 0 0  0.11 0 0  0.12 0 0  0.13 0 0  0.14 0 0  0.15 0 0  0.16 0 0  0.17 0 0  0.18 0 0  0.19 0 0  0.2 0 0  0.21 0 0  0.22 0 0  0.23 0 0  0.24 0 0  0.25 0 0  0.26 0 0  0.27 0 0  0.28 0 0  0.29 0 0  0.3 0 0  0.31 0 0  0.32 0 0  0.33 0 0  0.34 0 0  0.35 0 0  0.36 0 0  0.37 0 0  0.38 0 0  0.39 0 0  0.4 0 0  0.41 0 0  0.42 0 0  0.43 0 0  0.44 0 0  0.45 0 0  0.46 0 0  0.47 0 0  0.48 0 0  0.49 0 0  0.5 0 0  0.51 0 0  0.52 0 0  0.53 0 0  0.54 0 0  0.55 0 0  0.5600000000000001 0 0  0.57 0 0  0.58 0 0  0.59 0 0  0.6 0 0  0.61 0 0  0.62 0 0  0.63 0 0  0.64 0 0  0.65 0 0  0.66 0 0  0.67 0 0  0.68 0 0  0.6899999999999999 0 0  0.7 0 0  0.71 0 0  0.72 0 0  0.73 0 0  0.74 0 0  0.75 0 0  0.76 0 0  0.77 0 0  0.78 0 0  0.79 0 0  0.8 0 0  0.8100000000000001 0 0  0.82 0 0  0.83 0 0  0.84 0 0  0.85 0 0  0.86 0 0  0.87 0 0  0.88 0 0  0.89 0 0  0.9 0 0  0.91 0 0  0.92 0 0  0.93 0 0  0.9399999999999999 0 0  0.95 0 0  0.96 0 0  0.97 0 0  0.98 0 0  0.99 0 0  1 0 0  0 0.01 0  0.01 0.01 0  0.02 0.01 0  0.03 0.01 0  0.04 0.01 0  0.05 0.01 0  0.06 0.01 0  0.07000000000000001 0.01 0  0.08 0.01 0  0.09 0.01 0  0.1 0.01 0  0.11 0.01 0  0.12 0.01 0  0.13 0.01 0  0.14 0.01 0  0.15 0.01 0  0.16 0.01 0  0.17 0.01 0  0.18 0.01 0  0.19 0.01 0  0.2 0.01 0  0.21 0.01 0  0.22 0.01 0  0.23 0.01 0  0.24 0.01 0  0.25 0.01 0  0.26 0.01 0  0.27 0.01 0  0.28 0.01 0  0.29 0.01 0  0.3 0.01 0  0.31 0.01 0  0.32 0.01 0  0.33 0.01 0  0.34 0.01 0  0.35 0.01 0  0.36 0.01 0  0.37 0.01 0  0.38 0.01 0  0.39 0.01 0  0.4 0.01 0  0.41 0.01 0  0.42 0.01 0  0.43 0.01 0  0.44 0.01 0  0.45 0.01 0  0.46 0.01 0  0.47 0.01 0  0.48 0.01 0  0.49 0.01 0  0.5 0.01 0  0.51 0.01 0  0.52 0.01 0  0.53 0.01 0  0.54 0.01 0  0.55 0.01 0  0.5600000000000001 0.01 0  0.57 0.01 0  0.58 0.01 0  0.59 0.01 0  0.6 0.01 0  0.61 0.01 0  0.62 0.01 0  0.63 0.01 0  0.64 0.01 0  0.65 0.01 0  0.66 0.01 0  0.67 0.01 0  0.68 0.01 0  0.6899999999999999 0.01 0  0.7 0.01 0  0.71 0.01 0  0.72 0.01 0  0.73 0.01 0  0.74 0.01 0  0.75 0.01 0  0.76 0.01 0  0.77 0.01 0  0.78 0.01 0  0.79 0.01 0  0.8 0.01 0  0.8100000000000001 0.01 0  0.82 0.01 0  0.83 0.01 0  0.84 0.01 0  0.85 0.01 0  0.86 0.01 0  0.87 0.01 0  0.88 0.01 0  0.89 0.01 0  0.9 0.01 0  0.91 0.01 0  0.92 0.01 0  0.93 0.01 0  0.9399999999999999 0.01 0  0.95 0.01 0  0.96 0.01 0  0.97 0.01 0  0.98 0.01 0  0.99 0.01 0  1 0.01 0  0 0.02 0  0.01 0.02 0  0.02 0.02 0  0.03 0.02 0  0.04 0.02 0  0.05 0.02 0  0.06 0.02 0  0.07000000000000001 0.02 0  0.08 0.02 0  0.09 0.02 0  0.1 0.02 0  0.11 0.02 0  0.12 0.02 0  0.13 0.02 0  0.14 0.02 0  0.15 0.02 0  0.16 0.02 0  0.17 0.02 0  0.18 0.02 0  0.19 0.02 0  0.2 0.02 0  0.21 0.02 0  0.22 0.02 0  0.23 0.02 0  0.24 0.02 0  0.25 0.02 0  0.26 0.02 0  0.27 0.02 0  0.28 0.02 0  0.29 0.02 0  0.3 0.02 0  0.31 0.02 0  0.32 0.02 0  0.33 0.02 0  0.34 0.02 0  0.35 0.02 0  0.36 0.02 0  0.37 0.02 0  0.38 0.02 0  0.39 0.02 0  0.4 0.02 0  0.41 0.02 0  0.42 0.02 0  0.43 0.02 0  0.44 0.02 0  0.45 0.02 0  0.46 0.02 0  0.47 0.02 0  0.48 0.02 0  0.49 0.02 0  0.5 0.02 0  0.51 0.02 0  0.52 0.02 0  0.53 0.02 0  0.54 0.02 0  0.55 0.02 0  0.5600000000000001 0.02 0  0.57 0.02 0  0.58 0.02 0  0.59 0.02 0  0.6 0.02 0  0.61 0.02 0  0.62 0.02 0  0.63 0.02 0  0.64 0.02 0  0.65 0.02 0  0.66 0.02 0  0.67 0.02 0  0.68 0.02 0  0.6899999999999999 0.02 0  0.7 0.02 0  0.71 0.02 0  0.72 0.02 0  0.73 0.02 0  0.74 0.02 0  0.75 0.02 0  0.76 0.02 0  0.77 0.02 0  0.78 0.02 0  0.79 0.02 0  0.8 0.02 0  0.8100000000000001 0.02 0  0.82 0.02 0  0.83 0.02 0  0.84 0.02 0  0.85 0.02 0  0.86 0.02 0  0.87 0.02 0  0.88 0.02 0  0.89 0.02 0  0.9 0.02 0  0.91 0.02 0  0.92 0.02 0  0.93 0.02 0  0.9399999999999999 0.02 0  0.95 0.02 0  0.96 0.02 0  0.97 0.02 0  0.98 0.02 0  0.99 0.02 0  1 0.02 0  0 0.03 0  0.01 0.03 0  0.02 0.03 0  0.03 0.03 0  0.04 0.03 0  0.05 0.03 0  0.06 0.03 0  0.07000000000000001 0.03 0  0.08 0.03 0  0.09 0.03 0  0.1 0.03 0  0.11 0.03 0  0.12 0.03 0  0.13 0.03 0  0.14 0.03 0  0.15 0.03 0  0.16 0.03 0  0.17 0.03 0  0.18 0.03 0  0.19 0.03 0  0.2 0.03 0  0.21 0.03 0  0.22 0.03 0  0.23 0.03 0  0.24 0.03 0  0.25 0.03 0  0.26 0.03 0  0.27 0.03 0  0.28 0.03 0  0.29 0.03 0  0.3 0.03 0  0.31 0.03 0  0.32 0.03 0  0.33 0.03 0  0.34 0.03 0  0.35 0.03 0  0.36 0.03 0  0.37 0.03 0  0.38 0.03 0  0.39 0.03 0  0.4 0.03 0  0.41 0.03 0  0.42 0.03 0  0.43 0.03 0  0.44 0.03 0  0.45 0.03 0  0.46 0.03 0  0.47 0.03 0  0.48 0.03 0  0.49 0.03 0  0.5 0.03 0  0.51 0.03 0  0.52 0.03 0  0.53 0.03 0  0.54 0.03 0  0.55 0.03 0  0.5600000000000001 0.03 0  0.57 0.03 0  0.58 0.03 0  0.59 0.03 0  0.6 0.03 0  0.61 0.03 0  0.62 0.03 0  0.63 0.03 0  0.64 0.03 0  0.65 0.03 0  0.66 0.03 0  0.67 0.03 0  0.68 0.03 0  0.6899999999999999 0.03 0  0.7 0.03 0  0.71 0.03 0  0.72 0.03 0  0.73 0.03 0  0.74 0.03 0  0.75 0.03 0  0.76 0.03 0  0.77 0.03 0  0.78 0.03 0  0.79 0.03 0  0.8 0.03 0  0.8100000000000001 0.03 0  0.82 0.03 0  0.83 0.03 0  0.84 0.03 0  0.85 0.03 0  0.86 0.03 0  0.87 0.03 0  0.88 0.03 0  0.89 0.03 0  0.9 0.03 0  0.91 0.03 0  0.92 0.03 0  0.93 0.03 0  0.9399999999999999 0.03 0  0.95 0.03 0  0.96 0.03 0  0.97 0.03 0  0.98 0.03 0  0.99 0.03 0  1 0.03 0  0 0.04 0  0.01 0.04 0  0.02 0.04 0  0.03 0.04 0  0.04 0.04 0  0.05 0.04 0  0.06 0.04 0  0.07000000000000001 0.04 0  0.08 0.04 0  0.09 0.04 0  0.1 0.04 0  0.11 0.04 0  0.12 0.04 0  0.13 0.04 0  0.14 0.04 0  0.15 0.04 0  0.16 0.04 0  0.17 0.04 0  0.18 0.04 0  0.19 0.04 0  0.2 0.04 0  0.21 0.04 0  0.22 0.04 0  0.23 0.04 0  0.24 0.04 0  0.25 0.04 0  0.26 0.04 0  0.27 0.04 0  0.28 0.04 0  0.29 0.04 0  0.3 0.04 0  0.31 0.04 0  0.32 0.04 0  0.33 0.04 0  0.34 0.04 0  0.35 0.04 0  0.36 0.04 0  0.37 0.04 0  0.38 0.04 0  0.39 0.04 0  0.4 0.04 0  0.41 0.04 0  0.42 0.04 0  0.43 0.04 0  0.44 0.04 0  0.45 0.04 0  0.46 0.04 0  0.47 0.04 0  0.48 0.04 0  0.49 0.04 0  0.5 0.04 0  0.51 0.04 0  0.52 0.04 0  0.53 0.04 0  0.54 0.04 0  0.55 0.04 0  0.5600000000000001 0.04 0  0.57 0.04 0  0.58 0.04 0  0.59 0.04 0  0.6 0.04 0  0.61 0.04 0  0.62 0.04 0  0.63 0.04 0  0.64 0.04 0  0.65 0.04 0  0.66 0.04 0  0.67 0.04 0  0.68 0.04 0  0.6899999999999999 0.04 0  0.7 0.04 0  0.71 0.04 0  0.72 0.04 0  0.73 0.04 0  0.74 0.04 0  0.75 0.04 0  0.76 0.04 0  0.77 0.04 0  0.78 0.04 0  0.79 0.04 0  0.8 0.04 0  0.8100000000000001 0.04 0  0.82 0.04 0  0.83 0.04 0  0.84 0.04 0  0.85 0.04 0  0.86 0.04 0  0.87 0.04 0  0.88 0.04 0  0.89 0.04 0  0.9 0.04 0  0.91 0.04 0  0.92 0.04 0  0.93 0.04 0  0.9399999999999999 0.04 0  0.95 0.04 0  0.96 0.04 0  0.97 0.04 0  0.98 0.04 0  0.99 0.04 0  1 0.04 0  0 0.05 0  0.01 0.05 0  0.02 0.05 0  0.03 0.05 0  0.04 0.05 0  0.05 0.05 0  0.06 0.05 0  0.07000000000000001 0.05 0  0.08 0.05 0  0.09 0.05 0  0.1 0.05 0  0.11 0.05 0  0.12 0.05 0  0.13 0.05 0  0.14 0.05 0  0.15 0.05 0  0.16 0.05 0  0.17 0.05 0  0.18 0.05 0  0.19 0.05 0  0.2 0.05 0  0.21 0.05 0  0.22 0.05 0  0.23 0.05 0  0.24 0.05 0  0.25 0.05 0  0.26 0.05 0  0.27 0.05 0  0.28 0.05 0  0.29 0.05 0  0.3 0.05 0  0.31 0.05 0  0.32 0.05 0  0.33 0.05 0  0.34 0.05 0  0.35 0.05 0  0.36 0.05 0  0.37 0.05 0  0.38 0.05 0  0.39 0.05 0  0.4 0.05 0  0.41 0.05 0  0.42 0.05 0  0.43 0.05 0  0.44 0.05 0  0.45 0.05 0  0.46 0.05 0  0.47 0.05 0  0.48 0.05 0  0.49 0.05 0  0.5 0.05 0  0.51 0.05 0  0.52 0.05 0  0.53 0.05 0  0.54 0.05 0  0.55 0.05 0  0.5600000000000001 0.05 0  0.57 0.05 0  0.58 0.05 0  0.59 0.05 0  0.6 0.05 0  0.61 0.05 0  0.62 0.05 0  0.63 0.05 0  0.64 0.05 0  0.65 0.05 0  0.66 0.05 0  0.67 0.05 0  0.68 0.05 0  0.6899999999999999 0.05 0  0.7 0.05 0  0.71 0.05 0  0.72 0.05 0  0.73 0.05 0  0.74 0.05 0  0.75 0.05 0  0.76 0.05 0  0.77 0.05 0  0.78 0.05 0  0.79 0.05 0  0.8 0.05 0  0.8100000000000001 0.05 0  0.82 0.05 0  0.83 0.05 0  0.84 0.05 0  0.85 0.05 0  0.86 0.05 0  0.87 0.05 0  0.88 0.05 0  0.89 0.05 0  0.9 0.05 0  0.91 0.05 0  0.92 0.05 0  0.93 0.05 0  0.9399999999999999 0.05 0  0.95 0.05 0  0.96 0.05 0  0.97 0.05 0  0.98 0.05 0  0.99 0.05 0  1 0.05 0  0 0.06 0  0.01 0.06 0  0.02 0.06 0  0.03 0.06 0  0.04 0.06 0  0.05 0.06 0  0.06 0.06 0  0.07000000000000001 0.06 0  0.08 0.06 0  0.09 0.06 0  0.1 0.06 0  0.11 0.06 0  0.12 0.06 0  0.13 0.06 0  0.14 0.06 0  0.15 0.06 0  0.16 0.06 0  0.17 0.06 0  0.18 0.06 0  0.19 0.06 0  0.2 0.06 0  0.21 0.06 0  0.22 0.06 0  0.23 0.06 0  0.24 0.06 0  0.25 0.06 0  0.26 0.06 0  0.27 0.06 0  0.28 0.06 0  0.29 0.06 0  0.3 0.06 0  0.31 0.06 0  0.32 0.06 0  0.33 0.06 0  0.34 0.06 0  0.35 0.06 0  0.36 0.06 0  0.37 0.06 0  0.38 0.06 0  0.39 0.06 0  0.4 0.06 0  0.41 0.06 0  0.42 0.06 0  0.43 0.06 0  0.44 0.06 0  0.45 0.06 0  0.46 0.06 0  0.47 0.06 0  0.48 0.06 0  0.49 0.06 0  0.5 0.06 0  0.51 0.06 0  0.52 0.06 0  0.53 0.06 0  0.54 0.06 0  0.55 0.06 0  0.5600000000000001 0.06 0  0.57 0.06 0  0.58 0.06 0  0.59 0.06 0  0.6 0.06 0  0.61 0.06 0  0.62 0.06 0  0.63 0.06 0  0.64 0.06 0  0.65 0.06 0  0.66 0.06 0  0.67 0.06 0  0.68 0.06 0  0.6899999999999999 0.06 0  0.7 0.06 0  0.71 0.06 0  0.72 0.06 0  0.73 0.06 0  0.74 0.06 0  0.75 0.06 0  0.76 0.06 0  0.77 0.06 0  0.78 0.06 0  0.79 0.06 0  0.8 0.06 0  0.8100000000000001 0.06 0  0.82 0.06 0  0.83 0.06 0  0.84 0.06 0  0.85 0.06 0  0.86 0.06 0  0.87 0.06 0  0.88 0.06 0  0.89 0.06 0  0.9 0.06 0  0.91 0.06 0  0.92 0.06 0  0.93 0.06 0  0.9399999999999999 0.06 0  0.95 0.06 0  0.96 0.06 0  0.97 0.06 0  0.98 0.06 0  0.99 0.06 0  1 0.06 0  0 0.07000000000000001 0  0.01 0.07000000000000001 0  0.02 0.07000000000000001 0  0.03 0.07000000000000001 0  0.04 0.07000000000000001 0  0.05 0.07000000000000001 0  0.06 0.07000000000000001 0  0.07000000000000001 0.07000000000000001 0  0.08 0.07000000000000001 0  0.09 0.07000000000000001 0  0.1 0.07000000000000001 0  0.11 0.07000000000000001 0  0.12 0.07000000000000001 0  0.13 0.07000000000000001 0  0.14 0.07000000000000001 0  0.15 0.07000000000000001 0  0.16 0.07000000000000001 0  0.17 0.0700
[...]
<PointData  Scalars="Indicator Function"> 
<DataArray  type="Float64"  Name="Indicator Function"  format="ascii">0.0000000000000000e+00  -6.7101089672955191e-20  1.6955299657748226e-20  3.3309675213343660e-19  3.4487485202308600e-19  -3.5827840008899060e-20  -3.1363430964563127e-20  6.5337375323070360e-19  9.3652329048333651e-19  -9.0277966143151681e-36  5.0182233205658866e-18  2.9550558552787466e-18  -4.2432850442773365e-20  -3.6521328152319643e-20  7.6323117381292248e-18  -9.0366667590369196e-21  -6.6299107087428239e-21  2.1754747334311108e-18  -3.5818302226774282e-20  -5.1157514147785952e-35  5.5530753397038868e-18  0.0000000000000000e+00  -3.8902664298670822e-20  1.3305097895948189e-17  -5.2866023676990543e-20  -2.6433011838495283e-20  -1.9870026380630577e-20  -4.6266671291171790e-20  4.1435140757934256e-17  -1.7656618187700978e-20  -8.5027885534627109e-20  -3.0408070202164220e-20  -4.9934824845212902e-20  -1.5452394411550264e-20  2.5039748677930560e-17  -9.8708676151863510e-20  -1.3107842139052687e-19  -1.4850129459124930e-19  -1.5357512890531562e-19  -1.4936035453346653e-19  8.7011094186917782e-18  -8.8704393364947233e-20  -2.5746949767327191e-20  -3.4216088657799189e-20  -1.9646906725671259e-20  -2.2952353422280690e-20  3.0287292062563207e-17  -1.4661320870608345e-20  -8.5714197746898301e-21  -1.3467712900497359e-21  -2.2624875970119558e-20  -1.1312437985059786e-20  -8.2598721950477782e-21  -9.0817045429970198e-21  -8.4429456737611638e-21  -5.0033137829520899e-21  2.3259011680187111e-19  -1.1756461269543837e-21  -4.0780849387766526e-22  -2.7193498153115785e-22  -5.2060234626391912e-22  -5.7919966872219445e-22  -4.9348964200573583e-22  -1.4537964211892756e-21  -2.2064261571313622e-21  -1.0847106748843255e-21  -2.2600746066612877e-21  -2.9057529205730642e-21  3.2624669520049457e-18  -9.4039548065783001e-38  -7.0118107351497991e-23  -3.5928271655902750e-22  -5.3441294038671319e-22  -4.0794457290508650e-22  -8.9683308939138760e-23  -6.2241033016556896e-22  -8.8278069667118952e-22  -7.6778129129452734e-22  -7.7427195183751286e-22  -6.5104649465094833e-22  -5.8293064638483538e-22  5.6884760131873552e-20  -2.7768034393667566e-22  -2.4738137391557787e-22  -4.7019774032891500e-38  0.0000000000000000e+00  -1.5853304219194641e-22  -1.5542614334145822e-22  -7.5393709721793461e-23  -5.8774717541114375e-38  -1.0100592622976187e-22  -8.8927131250091098e-23  -2.4351721952860810e-22  9.1109860272628759e-19  -6.1138263152343868e-23  -9.5857581310597536e-23  -4.2361416388058893e-23  -7.9092320789365041e-23  -4.6738537666831466e-23  -7.1131778900970569e-23  1.8807909613156600e-37  -3.6363648875100771e-20  5.7352056259741104e-04  2.3742788380044875e-04  1.6026415606025835e-04  3.5501217258528480e-04  2.8592212776471442e-04  5.0245592377191287e-04  3.1376538213431147e-04  7.0681950453279946e-04  5.2978786155035412e-05  3.2584436978182349e-05  4.4177400133508344e-04  7.6212445017141423e-04  3.8334005268366133e-04  4.6623973308961703e-04  2.8328454891142626e-04  2.1147841738966868e-05  7.8832197379281508e-04  1.3335071811951697e-04  6.4524517024617774e-04  2.1978502969675049e-04  3.1887480258670388e-04  2.5621510928524038e-04  5.7270054311423771e-04  2.1190641089818938e-04  9.5234961812901771e-04  7.1589314722919834e-04  9.4979191772343388e-04  3.5857029548465899e-04  6.3614671272602531e-04  8.7232005077442069e-04  1.0955661890521809e-03  6.8562930510421749e-04  5.5673118171073834e-04  2.5371378174396182e-05  8.7616225178278743e-04  1.3400963026516763e-03  1.6912507675969205e-03  1.8295361161422862e-03  1.8517955151742783e-03  1.7647391904962409e-03  1.4127585382232590e-03  8.9157702250637920e-04  4.6381581351224641e-04  3.8447434976123776e-04  8.2694568255891135e-04  6.0064820261658688e-04  5.2822975367704792e-04  2.8571154641754285e-04  1.1553198404545385e-05  1.8484675517812370e-05  4.0757353195333646e-04  1.1254423064590825e-04  9.2524514036026171e-05  1.1733918776490819e-04  9.3424994078586353e-05  6.8933840705489612e-05  4.6328918629736957e-05  2.5860084154676876e-05  1.5938660721325463e-05  1.1971649252475702e-05  7.7235138072196768e-06  8.9179442522047243e-06  1.2898025348747369e-05  1.9740255408588658e-05  2.9877312372014945e-05  4.6017541788479072e-06  4.0713884625557182e-05  3.1988448768515973e-05  1.4949656934007388e-05  6.0509756826597834e-06  1.2631355285605223e-06  5.8406942693833172e-06  6.7067805420586323e-06  3.9954858350633391e-06  6.3624803655449322e-06  1.0590236348789320e-05  1.0607645091918285e-05  9.4522677634542606e-06  1.0104097652817824e-05  1.0948682200735292e-05  8.2218759091501575e-06  7.8456073513732908e-06  7.3823801329025189e-06  7.6523658708713200e-07  6.2082988177918400e-06  1.6076935759854027e-06  5.5998169698897931e-06  2.7163446640731832e-06  2.0064668481831279e-06  3.3062690122136448e-06  1.6642650081544653e-07  1.6019687806441496e-06  4.3868162365092295e-06  1.4003948835958467e-06  4.0117159480597667e-07  1.5262308724811885e-06  4.9507961399958261e-07  1.6839332865614727e-06  2.5627924236208912e-06  7.1131778900970181e-23  -1.2763454802301459e-20  6.5506926209494144e-04  1.6916856964178785e-04  9.5173448540206569e-05  9.5503770296797275e-06  3.3770788324545954e-04  5.4721570212647034e-04  6.6054960159452893e-04  7.8486465358285908e-04  7.5249425011411099e-05  1.7614320738253023e-04  4.9411553907419907e-04  6.7991986081985395e-04  1.0045226578873027e-03  9.6437072499704340e-04  6.4304187378000247e-04  1.2499487002161518e-03  8.8088665513217683e-05  4.8990550231179861e-04  1.0138628400094107e-03  4.8430861811169732e-04  1.6541363801045614e-03  1.0777582484291276e-03  1.7857858701901079e-03  1.0305720244963444e-03  1.3054677425325598e-03  4.5552647687913122e-05  3.2512259566790238e-04  1.7648666535154682e-03  1.2880848188369899e-03  3.3511168864806657e-05  1.7677286924167020e-03  1.1173765060079176e-04  1.1903332303678806e-03  6.8075944644517647e-04  1.2053475855211778e-03  1.6562143079568040e-03  2.2052038770219158e-03  2.5384670035102489e-03  2.6325779806195670e-03  2.5607544630883296e-03  2.3576640649147378e-03  1.7804279449525804e-03  2.3183752295999222e-04  1.0997857514513140e-03  9.5763190345144801e-04  9.2144285761375352e-04  1.3016799257833135e-03  1.1132702292604663e-03  3.9697532355231584e-04  3.6810076461431273e-04  6.7224980094897488e-04  2.0000569134901223e-04  2.8608756040490567e-04  1.1683701404855370e-04  1.2614428884009162e-04  9.6605547666895220e-05  7.7544754500390457e-05  4.8571691785630909e-05  2.8527097420723605e-05  1.8619256066695465e-05  1.4647126352429749e-05  1.3641231112180431e-05  1.2376689994256870e-05  2.7083847914363303e-05  2.7920137793735183e-05  3.7457044486343846e-05  4.4398410223628088e-05  5.7798120957569913e-05  2.0315680805240597e-05  1.0952461767946740e-05  3.5046272605953241e-06  4.2781157516747124e-06  1.0107481504722807e-05  8.6533979785911342e-06  3.5834336819424918e-06  1.1215421222223210e-05  1.6938096176059476e-05  1.5148834792993036e-05  1.4943027109912789e-05  1.2142819010840109e-05  1.2350314298386938e-05  1.5656929895585552e-05  7.3368308650067376e-06  9.2551119888849931e-06  6.1852071623344700e-07  5.4728299182305165e-06  9.4757156983090380e-06  5.1561084893857916e-06  5.1662214393413917e-06  7.3166746682527680e-06  4.8887841057488092e-06  5.4229088947286657e-06  1.3669779258367055e-05  7.0857238781616480e-06  8.8367443590707274e-06  1.7693639312807710e-06  1.9621526317076535e-06  5.1324805443660962e-06  4.7877199856322177e-06  1.1959733167890594e-21  -2.4255007249620183e-20  2.2992596116642078e-04  4.5509350324686015e-04  7.4912006838156090e-05  5.4148587239630534e-04  7.5056330464807520e-04  6.6768939219071606e-04  8.8316142534773016e-04  2.2462596586002336e-04  1.3459693568740733e-03  5.1281479113630577e-04  9.1000822724257488e-06  1.0674464927615092e-03  1.2780382286305422e-03  2.8299539522500276e-04  1.0256435444253309e-03  1.8329019882369735e-04  3.2033907642879325e-04  1.5798792804498688e-03  8.4342361883491185e-04  1.7842507802153073e-03  4.3366999715181188e-04  1.1484992043226756e-03  3.1091613705309603e-04  1.6882849066291055e-03  1.4543293096961503e-03  2.5163324464158626e-03  2.1358923589738237e-03  2.0549343778207235e-03  7.8323918712617233e-04  2.1903351260627061e-03  2.0140501760179791e-03  2.1637829590171170e-03  2.2802892593033410e-03  1.0221854637980728e-03  2.9386134098088331e-04  2.0370389821893430e-03  2.2823227596641999e-03  2.7943913369713213e-03  3.0117201499076387e-03  3.0481829621741385e-03  2.8619482463399879e-03  2.1850769799724255e-03  1.4349955643597364e-03  1.4220666195844170e-03  7.6037252767181178e-04  2.4035900746469025e-03  1.3776581155453599e-03  8.0233972650249836e-04  4.4017829354040379e-04  1.0342964206784957e-04  1.6607129587008706e-04  1.0373191486001971e-03  4.7814744076580829e-04  2.1525971264224747e-04  1.0549002852348275e-04  8.3191900713608445e-05  8.3526810742626801e-05  7.0812940193598268e-05  3.9005746605956573e-05  2.6501389915940863e-05  2.0972692369078545e-05  1.2408752833648820e-05  1.7069973032624531e-05  2.1010948332558478e-05  3.3224612788781875e-05  4.3263390467059607e-05  1.8885024771164355e-06  8.7551589074486187e-05  3.6619747694204859e-05  3.2671552694552456e-06  6.7175628924829523e-06  4.1411250346894229e-07  6.8908444411136421e-06  9.9549715239437096e-06  6.3181745931595526e-06  8.1978288781835457e-06  1.5719047426407473e-05  1.6417423209765103e-05  1.5521449876047770e-05  1.7555900445463838e-05  1.6386122440006513e-05  1.0030782773547447e-05  1.4318681846836668e-05  1.0438470031034902e-05  2.0781629892466134e-06  1.1863293288685808e-05  1.7882383118831891e-08  1.3797600639965467e-05  4.7251127048397224e-06  5.8988883065189196e-06  1.1424770908548656e-05  1.8444020863665154e-06  4.6749283529364960e-06  1.9371877077154883e-05  2.4352090736063979e-06  4.6645566355645361e-06  3.0169216981735156e-06  3.0796327802858419e-06  6.6464477734068723e-06  -8.3544965701870820e-22  -1.8753687597631135e-20  4.3693936644503329e-04  6.1686598419167821e-04  5.4350135365159299e-06  1.5434517510292764e-04  4.9260735971753771e-04  6.9833583905518375e-04  1.1761056662581712e-03  1.0656057094697979e-03  6.8282204941076468e-04  2.1693668627759295e-04  2.3064161210367485e-05  4.8562308358062698e-04  1.0307014480403635e-03  1.5138512573120233e-03  7.8743482527228513e-04  9.9576734260674814e-04  1.8143598147219047e-03  3.5241291981753857e-04  1.1890531047065473e-03  7.0575776239489353e-04  4.3157021806650435e-04  2.1801457955370738e-03  1.7174397235854612e-03  2.5641821082555043e-03  1.3580016435645755e-03  1.3866708225985199e-03  5.1713069950312857e-04  1.4980199266575252e-03  3.3579289217519552e-03  2.0446667712718134e-03  7.1145711454957423e-04  3.2785838873615651e-03  3.8393637600097952e-04  2.6986939187367454e-03  8.6467674105669126e-04  2.0675731167149078e-03  2.4640424253324078e-03  2.8546769280260267e-03  3.2429261673119353e-03  3.3408222107284831e-03  3.2547117506720280e-03  2.9928834077659456e-03  2.0847167197521597e-03  5.4904080912019553e-04  2.0393857922982920e-03  1.5445439884529065e-03  2.1086000317679194e-03  2.8911335344738659e-03  2.2948433372656390e-03  1.0458534206579729e-03  3.9013907252968827e-04  9.9397284895297354e-04  4.5393171799062011e-04  7.2833328505750902e-04  1.3155061515706941e-04  8.1010544253215871e-05  5.6773823672485062e-05  7.2711485904847990e-05  5.4463291478404079e-05  3.0896818582319418e-05  2.2443459839253018e-05  1.9826299370114466e-05  1.5473759495569493e-05  1.4166110995766992e-05  3.4495306519028144e-05  3.2711776624873310e-05  5.1399831169356669e-05  7.3433712178518564e-05  8.6049089293674711e-05  4.2971343424048963e-06  1.3430139772159266e-06  3.2075470518799892e-06  3.1318228283737622e-06  1.0122418655607598e-05  7.7527430509101771e-06  2.4405485599442510e-06  1.4178629153028541e-05  2.0611991669769880e-05  1.5980805376742445e-05  1.5864082504925742e-05  1.4638222922358332e-05  1.5979448320827077e-05  1.6428591970575358e-05  7.2670744625015292e-06  1.0726101680854089e-05  1.9158184529396348e-06  1.3815888465126120e-05  9.6149459489741077e-06  8.2392964210109315e-06  1.2029187797037098e-05  1.5178536792944443e-05  1.1919993193217834e-05  5.4102911638840736e-06  1.8444983869358148e-05  2.9101615607330435e-06  1.6641981527697859e-05  1.0251172027387985e-06  4.4425796651135997e-06  8.0102775803152121e-07  -1.3643851362334679e-22  -2.3342127125739916e-20  3.3783640190605655e-04  5.9085703008479281e-04  9.6166544411746438e-04  1.3543073746714242e-04  5.6551049931864727e-04  7.2611096156230826e-04  6.8876700048750377e-04  1.3327952842524537e-03  4.0656460068852013e-04  1.6883493314681307e-03  9.1718966133237580e-04  1.8657368707777967e-05  1.4175556354088772e-03  1.4891413540148810e-03  3.9144149681012990e-04  1.2730276077520058e-03  9.6622169439748056e-04  1.0354278456575733e-03  1.5549355508659944e-03  9.9123407460020570e-04  2.3500981129262535e-03  1.1300329584429361e-03  2.0857576320360768e-03  1.1927699079139970e-03  2.8140705687777850e-03  2.5485790709112895e-03  3.6547665117107647e-03  2.8444502810978400e-03  2.1910975801547644e-03  1.7066192278156860e-03  3.6354807378153916e-03  2.5271044850208916e-03  3.5482861700318496e-03  3.1470435667467619e-03  1.8582476423238874e-03  3.9369175623275295e-04  3.1109232330795438e-03  2.9277602071661950e-03  3.3926722754009180e-03  3.6202485870000002e-03  3.6429432787627130e-03  3.4067293375652330e-03  2.6094645135861165e-03  1.6807885020765645e-03  2.2958762125083730e-03  1.3895671080162565e-03  3.7234886523397448e-03  1.3341813559756451e-03  4.0173651416175209e-05  1.8822844453311485e-04  1.7455721477204614e-04  3.9173033431551198e-04  1.5821608617937332e-03  5.9328432457982170e-04  4.8794984235323832e-04  8.1173476867800852e-05  4.2988552012737687e-05  5.8635775997746330e-05  6.9709281321209715e-05  3.8503002690992747e-05  2.6398012083995599e-05  2.1773937182402070e-05  1.3246360446568927e-05  1.9335906290311393e-05  2.0089978661831249e-05  3.9432013614199630e-05  4.7202395912312706e-05  4.3762023771820157e-06  1.2212142847390910e-04  4.3043780304093551e-05  1.5167023987593511e-05  1.3771151844742190e-06  9.9010338597254137e-07  6.7591593187688777e-06  1.0673828008709824e-05  4.6127556559882781e-06  5.0403786676484713e-06  1.8018507934333414e-05  1.9765246736482856e-05  1.7421830088129829e-05  1.7674279347996104e-05  1.5436265754817677e-05  1.0788636216314363e-05  1.6610597245131106e-05  8.7129260623325840e-06  2.4438876163743182e-06  7.7860831497260178e-06  3.1682311312951812e-06  1.9396973102905796e-05  4.1607253217123933e-06  9.1175487589878009e-07  1.7939251095063994e-05  2.8662834027759958e-06  6.8914859033704077e-06  3.1223149193643716e-05  7.3154785504782932e-06  1.4367105065677819e-05  6.7130307324328898e-06  3.0900143859038050e-06  2.8211864419734900e-37  -1.2925393934986322e-20  4.2049438010206846e-04  6.5367600809973156e-04  5.6426632044794553e-04  6.0481500028742924e-04  2.4727655846732240e-04  6.0556107412337856e-04  1.0777355058628521e-03  1.5378629169987136e-03  1.3847078053880139e-03  6.0490913085049693e-04  5.4119754177201287e-04  4.2176874980316795e-04  4.5478827974284458e-04  1.5080332277010427e-03  1.8718101807629370e-03  5.6096622572388683e-04  8.9491181603455197e-04  1.5199041135990675e-03  1.8543292413388757e-04  1.6730701073284805e-03  2.0744864644283283e-04  1.0498257411887380e-04  1.8491824252681479e-03  1.5336312797863212e-03  2.4718890051745597e-03  9.3607129866096815e-04  8.1935276962140878e-04  1.4171609338777167e-03  2.5055272110391857e-03  4.5178776627094429e-03  2.1820698497183573e-03  1.8431483718880817e-03  4.5313776846777508e-03  9.6934675829386211e-04  4.1149604562918073e-03  1.2091442507230073e-03  2.5702457866220428e-03  3.4567643855825617e-03  3.4950139423880343e-03  3.8783744370335998e-03  3.9706362700421454e-03  3.8703784584237584e-03  3.5234689203693559e-03  2.3130186498962970e-03  6.9576268942822105e-04  3.1385703471153168e-03  1.7929577192516990e-03  3.4194516272459214e-03  3.7149017932534938e-03  2.5576275745388495e-03  1.1843210410596948e-03  3.8834314506884401e-04  9.8735234084971622e-04  8.5468757211740155e-04  1.0567188219826882e-03  2.1932545573677100e-04  2.7259481739683471e-05  1.4505411785005609e-05  6.2766709316055655e-05  6.1118564433130626e-05  3.2146459216880159e-05  2.4321202642159695e-05  2.1736847080211862e-05  1.3663650213151434e-05  1.5258048825104719e-05  3.6024683877758892e-05  3.7509409758139653e-05  5.8800994856809610e-05  8.6560857888854490e-05  1.1373158645523644e-04  6.8601208638205739e-06  1.6541769435443948e-05  3.0327299321524341e-06  1.0503886195076112e-06  9.1132728778813600e-06  7.1649225953228522e-06  2.2621219886308117e-06  1.2409881351721294e-05  2.0788511297783776e-05  1.6227630206824594e-05  1.8237879513138370e-05  1.6661159717519855e-05  1.5780846404916395e-05  1.4692717199467119e-05  9.4397925294792048e-06  8.5722166890027975e-06  1.3123059611658978e-06  1.3600586043457018e-05  5.4688978652665660e-06  1.1895048693402743e-05  1.4961709632474222e-05  1.6535751643220182e-05  1.8780608120069739e-05  7.2700368402238196e-06  1.3679530905788300e-05  6.4607165852256879e-06  1.2005097330050902e-05  4.5081890721457088e-06  6.3926224503018058e-06  -3.5486183160303747e-22  -2.0993172735554007e-20  2.3284319723688516e-04  5.3357627735912472e-04  8.7629926171772538e-04  9.1259045782941773e-04  6.6193813033790122e-05  7.1050613145408369e-04  4.7762324152487274e-04  4.0086316179767725e-04  1.7665966533500271e-03  6.4618397102175751e-04  1.6703216838856185e-03  9.1348792692097611e-04  1.8054382565121249e-04  1.5351429932532205e-03  1.8362867381687251e-03  6.8016740022910449e-04  1.1207711666435551e-03  1.2010754754229285e-03  1.3392960678419994e-03  1.3690997122369594e-03  5.5809696984891722e-04  2.1411243253039460e-03  9.5160119741553688e-04  2.3391741999583987e-03  1.4314721837177611e-03  3.2162820275777491e-03  2.7717064295308905e-03  3.8538412982218116e-03  2.7358110653500425e-03  1.7892896129542873e-03  2.7268784608490120e-03  4.4746794616226087e-03  2.5401984033115977e-03  5.0708996784002303e-03  3.5431895460221498e-03  3.1559848989973138e-03  4.7087125325126299e-04  3.9994909950313729e-03  3.8125746964410940e-03  4.1080353315615927e-03  4.3287662292261411e-03  4.3325398617447440e-03  4.0508995962422493e-03  3.0888980143847166e-03  1.7881809556536123e-03  2.8856346256699193e-03  2.2235724732481842e-03  4.5924077671075742e-03  8.8952147555712005e-04  8.2264667485002863e-04  8.6028132094619623e-04  6.2625021036440533e-04  3.5526899071889359e-04  1.8623442376538011e-03  4.4811676230712533e-04  8.6564872226076379e-04  7.7664908721046321e-05  1.4177309671120212e-05  1.6442721139844426e-05  6.3172442355690812e-05  4.3372138218793843e-05  2.8837790615601015e-05  2.4590776242274184e-05  1.6438909581074974e-05  1.9372384098621697e-05  1.8939389530028336e-05  4.4124754079436514e-05  5.0689745223559378e-05  1.1479723814686976e-05  1.5007788709925634e-04  5.8052973393165197e-05  3.2901136175189420e-05  9.0287713989072151e-06  1.8831318436140375e-06  4.8828813675023339e-06  8.6756086512157780e-06  1.6992134729172657e-06  4.4394490811548468e-06  1.8708037689975172e-05  1.9493104244800557e-05  1.5275172642011796e-05  1.7796611930708322e-05  1.6416017002782425e-05  1.2456906624292638e-05  1.4529826376639516e-05  9.6127682360187593e-06  1.5316263563664815e-06  6.0819952621068569e-06  8.9847809711041372e-06  1.5900050903870844e-05  4.5755650992850423e-06  7.8017343861687190e-06  2.0298273325455555e-05  5.0629505998472605e-06  7.0112462768139720e-06  3.1172557233479607e-05  6.3730462893316205e-06  1.4228530951431681e-05  3.8718003443154117e-06  -5.3732023612632219e-22  -1.5100163019527375e-20  3.7817937963666333e-04  6.4904009980542860e-04  7.1231503918897025e-04  6.9948480179240189e-04  9.8452139494109299e-04  1.2731073127266620e-04  5.1192322062488551e-04  1.0054516558701859e-03  1.5980447499886279e-03  1.7713233521487318e-03  7.6025258951958918e-04  5.6613582396962967e-04  6.5625701123062086e-04  4.2487713023793013e-04  1.8383887462016235e-03  2.1463466954311488e-0