<?xml version="1.0"?>
<VTKFile type="UnstructuredGrid"  version="0.1"  >
<UnstructuredGrid>
<Piece  NumberOfPoints="10201" NumberOfCells="20000">
<Points>
<DataArray  type="Float64"  NumberOfComponents="3"  format="ascii">0 0 0  0.01 0 0  0.02 0 0  0.03 0 0  0.04 0 0  0.05 0 0  0.06 0 0  0.07000000000000001 0 0  0.08 0 0  0.09 0 0  0.1 0 0  0.11 0 0  0.12 0 0  0.13 0 0  0.14 0 0  0.15 0 0  0.16 0 0  0.17 0 0  0.18 0 0  0.19 0 0  0.2 0 0  0.21 0 0  0.22 0 0  0.23 0 0  0.24 0 0  0.25 0 0  0.26 0 0  0.27 0 0  0.28 0 0  0.29 0 0  0.3 0 0  0.31 0 0  0.32 0 0  0.33 0 0  0.34 0 0  0.35 0 0  0.36 0 0  0.37 0 0  0.38 0 0  0.39 0 0  0.4 0 0  0.41 0 0  0.42 0 0  0.43 0 0  0.44 0 0  0.45 0 0  0.46 0 0  0.47 0 0  0.48 0 0  0.49 0 0  0.5 0 0  0.51 0 0  0.52 0 0  0.53 0 0  0.54 0 0  0.55 0 0  0.5600000000000001 0 0  0.57 0 0  0.58 0 0  0.59 0 0  0.6 0 0  0.61 0 0  0.62 0 0  0.63 0 0  0.64 0 0  0.65 0 0  0.66 0 0  0.67 0 0  0.68 0 0  0.6899999999999999 0 0  0.7 0 0  0.71 0 0  0.72 0 0  0.73 0 0  0.74 0 0  0.75 0 0  0.76 0 0  0.77 0 0  0.78 0 0  0.79 0 0  0.8 0 0  0.8100000000000001 0 0  0.82 0 0  0.83 0 0  0.84 0 0  0.85 0 0  0.86 0 0  0.87 0 0  0.88 0 0  0.89 0 0  0.9 0 0  0.91 0 0  0.92 0 0  0.93 0 0  0.9399999999999999 0 0  0.95 0 0  0.96 0 0  0.97 0 0  0.98 0 0  0.99 0 0  1 0 0  0 0.01 0  0.01 0.01 0  0.02 0.01 0  0.03 0.01 0  0.04 0.01 0  0.05 0.01 0  0.06 0.01 0  0.07000000000000001 0.01 0  0.08 0.01 0  0.09 0.01 0  0.1 0.01 0  0.11 0.01 0  0.12 0.01 0  0.13 0.01 0  0.14 0.01 0  0.15 0.01 0  0.16 0.01 0  0.17 0.01 0  0.18 0.01 0  0.19 0.01 0  0.2 0.01 0  0.21 0.01 0  0.22 0.01 0  0.23 0.01 0  0.24 0.01 0  0.25 0.01 0  0.26 0.01 0  0.27 0.01 0  0.28 0.01 0  0.29 0.01 0  0.3 0.01 0  0.31 0.01 0  0.32 0.01 0  0.33 0.01 0  0.34 0.01 0  0.35 0.01 0  0.36 0.01 0  0.37 0.01 0  0.38 0.01 0  0.39 0.01 0  0.4 0.01 0  0.41 0.01 0  0.42 0.01 0  0.43 0.01 0  0.44 0.01 0  0.45 0.01 0  0.46 0.01 0  0.47 0.01 0  0.48 0.01 0  0.49 0.01 0  0.5 0.01 0  0.51 0.01 0  0.52 0.01 0  0.53 0.01 0  0.54 0.01 0  0.55 0.01 0  0.5600000000000001 0.01 0  0.57 0.01 0  0.58 0.01 0  0.59 0.01 0  0.6 0.01 0  0.61 0.01 0  0.62 0.01 0  0.63 0.01 0  0.64 0.01 0  0.65 0.01 0  0.66 0.01 0  0.67 0.01 0  0.68 0.01 0  0.6899999999999999 0.01 0  0.7 0.01 0  0.71 0.01 0  0.72 0.01 0  0.73 0.01 0  0.74 0.01 0  0.75 0.01 0  0.76 0.01 0  0.77 0.01 0  0.78 0.01 0  0.79 0.01 0  0.8 0.01 0  0.8100000000000001 0.01 0  0.82 0.01 0  0.83 0.01 0  0.84 0.01 0  0.85 0.01 0  0.86 0.01 0  0.87 0.01 0  0.88 0.01 0  0.89 0.01 0  0.9 0.01 0  0.91 0.01 0  0.92 0.01 0  0.93 0.01 0  0.9399999999999999 0.01 0  0.95 0.01 0  0.96 0.01 0  0.97 0.01 0  0.98 0.01 0  0.99 0.01 0  1 0.01 0  0 0.02 0  0.01 0.02 0  0.02 0.02 0  0.03 0.02 0  0.04 0.02 0  0.05 0.02 0  0.06 0.02 0  0.07000000000000001 0.02 0  0.08 0.02 0  0.09 0.02 0  0.1 0.02 0  0.11 0.02 0  0.12 0.02 0  0.13 0.02 0  0.14 0.02 0  0.15 0.02 0  0.16 0.02 0  0.17 0.02 0  0.18 0.02 0  0.19 0.02 0  0.2 0.02 0  0.21 0.02 0  0.22 0.02 0  0.23 0.02 0  0.24 0.02 0  0.25 0.02 0  0.26 0.02 0  0.27 0.02 0  0.28 0.02 0  0.29 0.02 0  0.3 0.02 0  0.31 0.02 0  0.32 0.02 0  0.33 0.02 0  0.34 0.02 0  0.35 0.02 0  0.36 0.02 0  0.37 0.02 0  0.38 0.02 0  0.39 0.02 0  0.4 0.02 0  0.41 0.02 0  0.42 0.02 0  0.43 0.02 0  0.44 0.02 0  0.45 0.02 0  0.46 0.02 0  0.47 0.02 0  0.48 0.02 0  0.49 0.02 0  0.5 0.02 0  0.51 0.02 0  0.52 0.02 0  0.53 0.02 0  0.54 0.02 0  0.55 0.02 0  0.5600000000000001 0.02 0  0.57 0.02 0  0.58 0.02 0  0.59 0.02 0  0.6 0.02 0  0.61 0.02 0  0.62 0.02 0  0.63 0.02 0  0.64 0.02 0  0.65 0.02 0  0.66 0.02 0  0.67 0.02 0  0.68 0.02 0  0.6899999999999999 0.02 0  0.7 0.02 0  0.71 0.02 0  0.72 0.02 0  0.73 0.02 0  0.74 0.02 0  0.75 0.02 0  0.76 0.02 0  0.77 0.02 0  0.78 0.02 0  0.79 0.02 0  0.8 0.02 0  0.8100000000000001 0.02 0  0.82 0.02 0  0.83 0.02 0  0.84 0.02 0  0.85 0.02 0  0.86 0.02 0  0.87 0.02 0  0.88 0.02 0  0.89 0.02 0  0.9 0.02 0  0.91 0.02 0  0.92 0.02 0  0.93 0.02 0  0.9399999999999999 0.02 0  0.95 0.02 0  0.96 0.02 0  0.97 0.02 0  0.98 0.02 0  0.99 0.02 0  1 0.02 0  0 0.03 0  0.01 0.03 0  0.02 0.03 0  0.03 0.03 0  0.04 0.03 0  0.05 0.03 0  0.06 0.03 0  0.07000000000000001 0.03 0  0.08 0.03 0  0.09 0.03 0  0.1 0.03 0  0.11 0.03 0  0.12 0.03 0  0.13 0.03 0  0.14 0.03 0  0.15 0.03 0  0.16 0.03 0  0.17 0.03 0  0.18 0.03 0  0.19 0.03 0  0.2 0.03 0  0.21 0.03 0  0.22 0.03 0  0.23 0.03 0  0.24 0.03 0  0.25 0.03 0  0.26 0.03 0  0.27 0.03 0  0.28 0.03 0  0.29 0.03 0  0.3 0.03 0  0.31 0.03 0  0.32 0.03 0  0.33 0.03 0  0.34 0.03 0  0.35 0.03 0  0.36 0.03 0  0.37 0.03 0  0.38 0.03 0  0.39 0.03 0  0.4 0.03 0  0.41 0.03 0  0.42 0.03 0  0.43 0.03 0  0.44 0.03 0  0.45 0.03 0  0.46 0.03 0  0.47 0.03 0  0.48 0.03 0  0.49 0.03 0  0.5 0.03 0  0.51 0.03 0  0.52 0.03 0  0.53 0.03 0  0.54 0.03 0  0.55 0.03 0  0.5600000000000001 0.03 0  0.57 0.03 0  0.58 0.03 0  0.59 0.03 0  0.6 0.03 0  0.61 0.03 0  0.62 0.03 0  0.63 0.03 0  0.64 0.03 0  0.65 0.03 0  0.66 0.03 0  0.67 0.03 0  0.68 0.03 0  0.6899999999999999 0.03 0  0.7 0.03 0  0.71 0.03 0  0.72 0.03 0  0.73 0.03 0  0.74 0.03 0  0.75 0.03 0  0.76 0.03 0  0.77 0.03 0  0.78 0.03 0  0.79 0.03 0  0.8 0.03 0  0.8100000000000001 0.03 0  0.82 0.03 0  0.83 0.03 0  0.84 0.03 0  0.85 0.03 0  0.86 0.03 0  0.87 0.03 0  0.88 0.03 0  0.89 0.03 0  0.9 0.03 0  0.91 0.03 0  0.92 0.03 0  0.93 0.03 0  0.9399999999999999 0.03 0  0.95 0.03 0  0.96 0.03 0  0.97 0.03 0  0.98 0.03 0  0.99 0.03 0  1 0.03 0  0 0.04 0  0.01 0.04 0  0.02 0.04 0  0.03 0.04 0  0.04 0.04 0  0.05 0.04 0  0.06 0.04 0  0.07000000000000001 0.04 0  0.08 0.04 0  0.09 0.04 0  0.1 0.04 0  0.11 0.04 0  0.12 0.04 0  0.13 0.04 0  0.14 0.04 0  0.15 0.04 0  0.16 0.04 0  0.17 0.04 0  0.18 0.04 0  0.19 0.04 0  0.2 0.04 0  0.21 0.04 0  0.22 0.04 0  0.23 0.04 0  0.24 0.04 0  0.25 0.04 0  0.26 0.04 0  0.27 0.04 0  0.28 0.04 0  0.29 0.04 0  0.3 0.04 0  0.31 0.04 0  0.32 0.04 0  0.33 0.04 0  0.34 0.04 0  0.35 0.04 0  0.36 0.04 0  0.37 0.04 0  0.38 0.04 0  0.39 0.04 0  0.4 0.04 0  0.41 0.04 0  0.42 0.04 0  0.43 0.04 0  0.44 0.04 0  0.45 0.04 0  0.46 0.04 0  0.47 0.04 0  0.48 0.04 0  0.49 0.04 0  0.5 0.04 0  0.51 0.04 0  0.52 0.04 0  0.53 0.04 0  0.54 0.04 0  0.55 0.04 0  0.5600000000000001 0.04 0  0.57 0.04 0  0.58 0.04 0  0.59 0.04 0  0.6 0.04 0  0.61 0.04 0  0.62 0.04 0  0.63 0.04 0  0.64 0.04 0  0.65 0.04 0  0.66 0.04 0  0.67 0.04 0  0.68 0.04 0  0.6899999999999999 0.04 0  0.7 0.04 0  0.71 0.04 0  0.72 0.04 0  0.73 0.04 0  0.74 0.04 0  0.75 0.04 0  0.76 0.04 0  0.77 0.04 0  0.78 0.04 0  0.79 0.04 0  0.8 0.04 0  0.8100000000000001 0.04 0  0.82 0.04 0  0.83 0.04 0  0.84 0.04 0  0.85 0.04 0  0.86 0.04 0  0.87 0.04 0  0.88 0.04 0  0.89 0.04 0  0.9 0.04 0  0.91 0.04 0  0.92 0.04 0  0.93 0.04 0  0.9399999999999999 0.04 0  0.95 0.04 0  0.96 0.04 0  0.97 0.04 0  0.98 0.04 0  0.99 0.04 0  1 0.04 0  0 0.05 0  0.01 0.05 0  0.02 0.05 0  0.03 0.05 0  0.04 0.05 0  0.05 0.05 0  0.06 0.05 0  0.07000000000000001 0.05 0  0.08 0.05 0  0.09 0.05 0  0.1 0.05 0  0.11 0.05 0  0.12 0.05 0  0.13 0.05 0  0.14 0.05 0  0.15 0.05 0  0.16 0.05 0  0.17 0.05 0  0.18 0.05 0  0.19 0.05 0  0.2 0.05 0  0.21 0.05 0  0.22 0.05 0  0.23 0.05 0  0.24 0.05 0  0.25 0.05 0  0.26 0.05 0  0.27 0.05 0  0.28 0.05 0  0.29 0.05 0  0.3 0.05 0  0.31 0.05 0  0.32 0.05 0  0.33 0.05 0  0.34 0.05 0  0.35 0.05 0  0.36 0.05 0  0.37 0.05 0  0.38 0.05 0  0.39 0.05 0  0.4 0.05 0  0.41 0.05 0  0.42 0.05 0  0.43 0.05 0  0.44 0.05 0  0.45 0.05 0  0.46 0.05 0  0.47 0.05 0  0.48 0.05 0  0.49 0.05 0  0.5 0.05 0  0.51 0.05 0  0.52 0.05 0  0.53 0.05 0  0.54 0.05 0  0.55 0.05 0  0.5600000000000001 0.05 0  0.57 0.05 0  0.58 0.05 0  0.59 0.05 0  0.6 0.05 0  0.61 0.05 0  0.62 0.05 0  0.63 0.05 0  0.64 0.05 0  0.65 0.05 0  0.66 0.05 0  0.67 0.05 0  0.68 0.05 0  0.6899999999999999 0.05 0  0.7 0.05 0  0.71 0.05 0  0.72 0.05 0  0.73 0.05 0  0.74 0.05 0  0.75 0.05 0  0.76 0.05 0  0.77 0.05 0  0.78 0.05 0  0.79 0.05 0  0.8 0.05 0  0.8100000000000001 0.05 0  0.82 0.05 0  0.83 0.05 0  0.84 0.05 0  0.85 0.05 0  0.86 0.05 0  0.87 0.05 0  0.88 0.05 0  0.89 0.05 0  0.9 0.05 0  0.91 0.05 0  0.92 0.05 0  0.93 0.05 0  0.9399999999999999 0.05 0  0.95 0.05 0  0.96 0.05 0  0.97 0.05 0  0.98 0.05 0  0.99 0.05 0  1 0.05 0  0 0.06 0  0.01 0.06 0  0.02 0.06 0  0.03 0.06 0  0.04 0.06 0  0.05 0.06 0  0.06 0.06 0  0.07000000000000001 0.06 0  0.08 0.06 0  0.09 0.06 0  0.1 0.06 0  0.11 0.06 0  0.12 0.06 0  0.13 0.06 0  0.14 0.06 0  0.15 0.06 0  0.16 0.06 0  0.17 0.06 0  0.18 0.06 0  0.19 0.06 0  0.2 0.06 0  0.21 0.06 0  0.22 0.06 0  0.23 0.06 0  0.24 0.06 0  0.25 0.06 0  0.26 0.06 0  0.27 0.06 0  0.28 0.06 0  0.29 0.06 0  0.3 0.06 0  0.31 0.06 0  0.32 0.06 0  0.33 0.06 0  0.34 0.06 0  0.35 0.06 0  0.36 0.06 0  0.37 0.06 0  0.38 0.06 0  0.39 0.06 0  0.4 0.06 0  0.41 0.06 0  0.42 0.06 0  0.43 0.06 0  0.44 0.06 0  0.45 0.06 0  0.46 0.06 0  0.47 0.06 0  0.48 0.06 0  0.49 0.06 0  0.5 0.06 0  0.51 0.06 0  0.52 0.06 0  0.53 0.06 0  0.54 0.06 0  0.55 0.06 0  0.5600000000000001 0.06 0  0.57 0.06 0  0.58 0.06 0  0.59 0.06 0  0.6 0.06 0  0.61 0.06 0  0.62 0.06 0  0.63 0.06 0  0.64 0.06 0  0.65 0.06 0  0.66 0.06 0  0.67 0.06 0  0.68 0.06 0  0.6899999999999999 0.06 0  0.7 0.06 0  0.71 0.06 0  0.72 0.06 0  0.73 0.06 0  0.74 0.06 0  0.75 0.06 0  0.76 0.06 0  0.77 0.06 0  0.78 0.06 0  0.79 0.06 0  0.8 0.06 0  0.8100000000000001 0.06 0  0.82 0.06 0  0.83 0.06 0  0.84 0.06 0  0.85 0.06 0  0.86 0.06 0  0.87 0.06 0  0.88 0.06 0  0.89 0.06 0  0.9 0.06 0  0.91 0.06 0  0.92 0.06 0  0.93 0.06 0  0.9399999999999999 0.06 0  0.95 0.06 0  0.96 0.06 0  0.97 0.06 0  0.98 0.06 0  0.99 0.06 0  1 0.06 0  0 0.07000000000000001 0  0.01 0.07000000000000001 0  0.02 0.07000000000000001 0  0.03 0.07000000000000001 0  0.04 0.07000000000000001 0  0.05 0.07000000000000001 0  0.06 0.07000000000000001 0  0.07000000000000001 0.07000000000000001 0  0.08 0.07000000000000001 0  0.09 0.07000000000000001 0  0.1 0.07000000000000001 0  0.11 0.07000000000000001 0  0.12 0.07000000000000001 0  0.13 0.07000000000000001 0  0.14 0.07000000000000001 0  0.15 0.07000000000000001 0  0.16 0.07000000000000001 0  0.17 0.0700
[...]
<PointData  Scalars="u"> 
<DataArray  type="Float64"  Name="u"  format="ascii">0.0000000000000000e+00  0.0000000000000000e+00  0.0000000000000000e+00  0.0000000000000000e+00  0.0000000000000000e+00  0.0000000000000000e+00  0.0000000000000000e+00  0.0000000000000000e+00  0.0000000000000000e+00  0.0000000000000000e+00  0.0000000000000000e+00  0.0000000000000000e+00  0.0000000000000000e+00  0.0000000000000000e+00  0.0000000000000000e+00  0.0000000000000000e+00  0.0000000000000000e+00  0.0000000000000000e+00  0.0000000000000000e+00  0.0000000000000000e+00  0.0000000000000000e+00  0.0000000000000000e+00  0.0000000000000000e+00  0.0000000000000000e+00  0.0000000000000000e+00  0.0000000000000000e+00  0.0000000000000000e+00  0.0000000000000000e+00  0.0000000000000000e+00  0.0000000000000000e+00  0.0000000000000000e+00  0.0000000000000000e+00  0.0000000000000000e+00  0.0000000000000000e+00  0.0000000000000000e+00  0.0000000000000000e+00  0.0000000000000000e+00  0.0000000000000000e+00  0.0000000000000000e+00  0.0000000000000000e+00  0.0000000000000000e+00  0.0000000000000000e+00  0.0000000000000000e+00  0.0000000000000000e+00  0.0000000000000000e+00  0.0000000000000000e+00  0.0000000000000000e+00  0.0000000000000000e+00  0.0000000000000000e+00  0.0000000000000000e+00  0.0000000000000000e+00  0.0000000000000000e+00  0.0000000000000000e+00  0.0000000000000000e+00  0.0000000000000000e+00  0.0000000000000000e+00  0.0000000000000000e+00  0.0000000000000000e+00  0.0000000000000000e+00  0.0000000000000000e+00  0.0000000000000000e+00  0.0000000000000000e+00  0.0000000000000000e+00  0.0000000000000000e+00  0.0000000000000000e+00  0.0000000000000000e+00  0.0000000000000000e+00  0.0000000000000000e+00  0.0000000000000000e+00  0.0000000000000000e+00  0.0000000000000000e+00  0.0000000000000000e+00  0.0000000000000000e+00  0.0000000000000000e+00  0.0000000000000000e+00  0.0000000000000000e+00  0.0000000000000000e+00  0.0000000000000000e+00  0.0000000000000000e+00  0.0000000000000000e+00  0.0000000000000000e+00  0.0000000000000000e+00  0.0000000000000000e+00  0.0000000000000000e+00  0.0000000000000000e+00  0.0000000000000000e+00  0.0000000000000000e+00  0.0000000000000000e+00  0.0000000000000000e+00  0.0000000000000000e+00  0.0000000000000000e+00  0.0000000000000000e+00  0.0000000000000000e+00  0.0000000000000000e+00  0.0000000000000000e+00  0.0000000000000000e+00  0.0000000000000000e+00  0.0000000000000000e+00  0.0000000000000000e+00  0.0000000000000000e+00  0.0000000000000000e+00  0.0000000000000000e+00  -5.9385438340682788e-04  -4.1656885180335601e-04  -7.2486394731921896e-05  -4.5486339504854922e-04  1.7392745836601609e-04  1.5705137911225839e-04  -1.6415656370590814e-04  2.0005074961425566e-04  -1.7639092528268989e-04  -1.1330261411197456e-04  2.2793354649073853e-04  2.9094512958185146e-04  -2.4047616796187444e-04  1.1257522169146850e-04  3.2182783819442760e-05  -9.5550587081635630e-05  4.8787607846862595e-04  -3.6709884540398320e-04  3.5433549272661586e-04  -4.9117851542803465e-05  8.0679434651605633e-05  7.3695800148609457e-05  3.2654100575091826e-04  -2.9369955277246113e-04  6.7280757456612285e-04  -6.9769061632253830e-04  7.8152546463713013e-04  6.2581297250416151e-05  -4.7951797678600077e-04  7.9630421281410440e-04  5.1966829546036715e-04  -7.3167355001583720e-04  -9.1297555080182004e-06  2.8453228577897058e-04  6.2627093384881767e-04  3.9380551789405956e-04  2.3860695319710522e-04  1.5481731228946828e-04  1.0736554608518145e-04  7.3957487356032060e-05  -4.6393549729432637e-05  -2.7429540777939166e-04  -4.7618240226349309e-04  6.3395402693221107e-05  7.0087259110640293e-04  -7.8128849542747269e-04  5.6545948210600934e-04  -3.9904779011076759e-04  1.8072446071219734e-04  -9.4505093398478679e-05  3.2331591552699082e-04  -1.8367586405407371e-04  -1.1040513111864599e-04  2.6136913662932511e-05  7.5665022835251690e-05  3.0216824070481656e-05  1.8664418140628350e-05  1.6549899298908782e-05  1.5264296960945378e-05  1.4272009929905805e-05  1.3505574862731623e-05  1.1889350033243590e-05  1.2749734555760283e-05  9.0720003404897152e-06  9.9615661985722004e-06  9.6451785587876694e-06  7.5143100213763418e-06  -5.6799924620004394e-06  3.4460174936793023e-05  1.0272373972210749e-05  1.1350967859271831e-05  2.0188127642128875e-05  -7.5580436542030927e-06  1.3219240100781325e-05  1.2955978093012908e-06  1.1737568594242532e-05  7.8695490519379500e-06  1.1442827777444646e-05  3.0395678240094231e-06  8.1085033752632871e-06  -2.8058553459862028e-06  1.1972795569023372e-05  6.8236600081687842e-06  5.5241448040815300e-06  3.3472269347900950e-06  2.4119382814024872e-06  3.0225237485086082e-06  2.3337611303177049e-06  3.3318352788759289e-06  1.9457006275446046e-06  2.5385596279184962e-06  1.3697047069924515e-06  1.4831258260773613e-06  1.0675916467526982e-06  8.6437320688832997e-07  6.7241520802081892e-07  4.5461576729789829e-07  2.3457634491169438e-07  1.4079388339031176e-07  0.0000000000000000e+00  0.0000000000000000e+00  3.5572879256768713e-04  -4.0990009180448680e-04  -3.5636339777863398e-04  -2.0227009920652597e-04  -5.3382112067748219e-04  2.8935796944384775e-04  1.2129723936604473e-04  1.6533267719005151e-04  -5.5950962081031572e-04  1.2139704073957646e-04  2.1343605324362685e-04  1.0845722574040907e-04  3.8634031523392988e-04  1.4209020033958682e-04  -8.4718870199068229e-04  9.3865467199590903e-04  -3.0128242617213430e-04  2.0989036237767001e-04  5.0209866828339008e-04  -7.1285042763031853e-04  1.1700626551061676e-03  -1.1701875212969174e-03  1.3769850323620935e-03  -1.1057167345051857e-03  9.8780166195028100e-04  -1.6561561123990378e-04  -3.6675208861830196e-04  1.3807543301088679e-03  -1.2615795423091252e-03  -1.0860020779445223e-07  1.4321021728488617e-03  -2.5227727532405351e-04  -9.1543440347093517e-04  1.7937428873684909e-04  8.3100035971077910e-04  9.4614116180274487e-04  5.4897327077701617e-04  3.9152271170465771e-04  3.0845434207561967e-04  2.3018611637126303e-04  1.4794789779626019e-04  -9.0690970090426419e-06  -9.3558558868661677e-04  -7.3827606202066264e-04  1.1909472155502505e-03  4.9172832140420130e-04  -1.0586730711603723e-03  7.8610771142638772e-04  -1.4348681932676351e-04  -3.4925558339218951e-04  4.8489404114046840e-04  2.3672603386562852e-04  -4.6923440899963886e-04  -4.4943408021012383e-05  1.1037591339042915e-04  1.0776157252391950e-04  3.1371603121832304e-05  3.1838636279431286e-05  2.8885517572068647e-05  2.8253359964633898e-05  2.6996074192680886e-05  2.6625456226679661e-05  2.5115975056510070e-05  2.5805171085147962e-05  2.0755391261134630e-05  2.2648831312555609e-05  2.8053731901761206e-05  7.5003019726718639e-06  3.0501722760974044e-05  5.8238389266073280e-05  7.6748026217517247e-06  3.5039606142502945e-05  3.3268836179201205e-05  -6.6199679598874589e-06  2.2077088329222631e-05  1.3263128198383477e-05  2.3847181480961031e-05  2.0632265998642653e-05  9.6203753437109692e-06  1.4118438248829634e-05  4.0120172059372525e-06  5.9582098149382468e-06  2.2960071350999531e-05  1.3811917734934021e-05  6.2810143767695414e-06  1.6419211056036051e-06  4.6630804014667133e-06  6.1042162008637689e-06  5.5024104775860026e-06  4.4774909323474491e-06  4.1410379744202661e-06  3.0215583326694907e-06  2.7098900370725952e-06  2.0860344809822475e-06  1.8513058701051912e-06  1.4239410358181603e-06  1.0856231682431772e-06  6.5276705904608289e-07  2.1482889153961375e-07  0.0000000000000000e+00  0.0000000000000000e+00  1.4175105045318836e-04  2.0979100541347896e-04  -2.8314050766342863e-04  1.7193359882414577e-04  -8.6217814468037544e-04  3.9596019329613311e-04  4.2919678144654676e-04  -3.9246042664339473e-04  7.1031474294148099e-04  -9.3929230439990046e-04  -2.3184991639260864e-04  7.4980819984540588e-04  5.5081035316218937e-04  -5.6416649798765876e-04  5.7091818525975319e-04  -6.2342359647784488e-04  2.3692328301193528e-04  1.0062032089214264e-03  -1.0868602373535620e-03  1.3084691702843695e-03  -8.5513986215999833e-04  8.3545572439351699e-04  -6.2579380027450978e-04  1.4113098382930519e-03  -1.5803298039975390e-03  2.0756467500582495e-03  -1.9896236097052510e-03  1.6749509447115144e-03  5.4004519171205558e-04  -1.9641322196445642e-03  1.7072380589836728e-03  1.5816931036528323e-03  -2.1376517083131824e-03  -4.7096174933618077e-04  5.0249877689467108e-04  1.5743412549349752e-03  1.0906789229172572e-03  6.9285301254771591e-04  5.2740576849354646e-04  4.5583491539708768e-04  3.8280273088691968e-04  6.0700742988874511e-05  -4.8339431501866399e-04  -1.3589585983452585e-03  -1.8500665777600490e-04  2.2008150475390188e-03  -1.6445509771752553e-03  1.0178627652825925e-03  -7.6593855370465187e-04  6.3800915342157507e-04  -5.2066198363011839e-04  1.0015183613289629e-03  -3.5200303814119716e-04  -4.1649695031082301e-04  6.6169857348665812e-05  2.2245989903573566e-04  9.4047815794173984e-05  4.2533383931481226e-05  4.2443874678919476e-05  3.9633318434500602e-05  3.8603447148237372e-05  3.7894934944697440e-05  3.5130346509023512e-05  3.6571212317131127e-05  3.0287330357118854e-05  3.1188577575824062e-05  3.1191028797642527e-05  3.7937971772394514e-05  9.4023260945988055e-06  7.3490894413447442e-05  3.6186025960857157e-05  6.2718782915281735e-06  6.8382873467716515e-05  3.0167350734102627e-05  1.1399326158203183e-05  1.6087522248321415e-05  3.7850905803121052e-05  3.4179327762205281e-05  3.5170041339276095e-05  6.3396307784654030e-06  2.4266968897996672e-05  -5.6680082003305325e-06  2.7926331734313145e-05  3.0607407856334758e-05  1.6507976169249173e-05  7.5092049251333061e-06  -1.8743527270914863e-06  7.0216365219382165e-06  8.5147848258745502e-06  7.9552579149441261e-06  6.3803046818735714e-06  5.3694358804271879e-06  4.3198156622127484e-06  3.5564923598847569e-06  3.0774290063430305e-06  2.4105576676006083e-06  1.8861471545697609e-06  1.2430198072232226e-06  5.2005428994888590e-07  0.0000000000000000e+00  0.0000000000000000e+00  2.3755329578956064e-04  3.0313825478562521e-04  -2.0942837108184380e-04  -1.5546054668510485e-04  2.3416509931437800e-04  -9.6175230708724535e-04  9.1336004250479926e-04  5.2254708444808388e-04  8.3151709236065460e-06  -4.7083892970766622e-04  -2.9959361166056381e-05  3.2049366151447518e-05  4.3801866213642672e-04  9.3493728299527245e-04  -2.8627610536605976e-04  -1.0465110826396963e-03  1.2896110382468961e-03  -6.9098553746432009e-04  9.0679838155030448e-04  9.7243021759723882e-05  -5.7932188498204212e-04  1.4947496410158496e-03  -1.6788584141844767e-03  1.9451193749464618e-03  -1.2638061535789921e-03  8.9466580130188791e-04  4.7068795907406378e-04  -1.5112154155845425e-03  2.8578219260986769e-03  -1.8652979661578680e-03  -7.8669038499906653e-04  2.8807622539089614e-03  1.1325798662015468e-04  -2.4342436713798207e-03  3.4264639107865164e-05  1.2824378893850448e-03  1.9601724376909022e-03  1.1970138181879562e-03  8.5817149363264476e-04  6.9952852112138621e-04  5.7824216506270566e-04  4.4849725927600682e-04  2.5446677405204914e-05  -1.6183110465977134e-03  -1.5904937761666784e-03  1.8215833318684441e-03  1.6066604283253819e-03  -2.5085654332599812e-03  1.8985781726276792e-03  -7.5524470219429194e-04  -2.1379719831118502e-04  5.7201965174076682e-04  7.3782663783636111e-04  -8.7465817672126300e-04  -1.8170124553882770e-04  2.0979035445045448e-04  2.5646553571504550e-04  7.9988138875894014e-05  6.3957425101159986e-05  5.7481701099369316e-05  5.5480348539755655e-05  5.3278908859532779e-05  5.1950820213549182e-05  4.9462031606068743e-05  4.9769779993612543e-05  4.1525630646675079e-05  4.4201292773257575e-05  4.9901639802260863e-05  3.2731699099098865e-05  4.6317912727703961e-05  7.6474174355262636e-05  1.2881085141823605e-05  2.8235418723273648e-05  9.2037866446841358e-05  3.3202134151461937e-05  1.2939523946859168e-05  2.3855347689697577e-05  5.6055547456883908e-05  4.9442704344035928e-05  3.2639500404649802e-05  1.1115750829782657e-05  1.6217463299901106e-05  -6.7558111183512221e-07  4.8533295171979182e-05  3.3130463835615332e-05  1.5780239491197390e-05  8.1287394190419804e-06  -1.4106061516579367e-06  8.0008061662011892e-06  1.1782840532117886e-05  8.9575995032958415e-06  8.7095929198442012e-06  6.1858602255644852e-06  5.8401474520036092e-06  4.5211007996633003e-06  3.7467159715504423e-06  2.8008889300397682e-06  1.8916559387436920e-06  9.5670855647167728e-07  0.0000000000000000e+00  0.0000000000000000e+00  2.2797789686346606e-04  3.6948939981603908e-04  6.0422066934265285e-04  -4.6297081859061749e-04  2.0777546571360662e-04  -7.8208294603886327e-04  3.1554481218099473e-04  9.3289393260401557e-04  -1.3710244855923701e-04  1.0342099703217417e-03  -1.4728343894359621e-03  -8.9101411539017734e-05  1.0318012901549811e-03  6.7899838357511036e-04  -3.3139541643014043e-04  7.0382804580269203e-04  -1.3377679270169249e-03  9.1982485345446755e-04  8.6415491806888243e-04  -1.0861106563298617e-03  1.7551781424025787e-03  -1.4884572877092023e-03  1.6992740452373939e-03  -1.4614575405065054e-03  2.4783816386071689e-03  -2.5955409408016990e-03  3.0292996140395129e-03  -2.4938199582952838e-03  1.6624337078649494e-03  1.5371535215026387e-03  -3.2436736959433896e-03  1.9894450989595509e-03  2.9945330486678872e-03  -2.8113178631885144e-03  -1.4344363702355979e-03  6.3446699186981066e-04  2.3177098460262658e-03  2.0279903442153718e-03  1.3211998525266369e-03  1.0219492542874306e-03  8.9157897762564382e-04  7.4709807319612805e-04  2.5737780181930142e-04  -6.0696860888087036e-04  -2.2791094141953834e-03  -7.4311631460677752e-04  3.4646207952647029e-03  -1.5842734528096801e-03  4.3700074613053902e-04  -3.0215145534428860e-04  6.1492747615570441e-04  -8.4404263968113839e-04  1.4927123652195258e-03  -2.0874211188731104e-04  -8.2689868772951760e-04  4.0856688208839516e-05  3.5605879417754363e-04  2.0325831533968728e-04  8.3728881162228180e-05  8.1026676869432892e-05  7.4454509742381892e-05  7.1645487841994485e-05  6.9517555237700576e-05  6.5491934363539042e-05  6.6583097645396647e-05  5.7296003720175909e-05  5.6471060427445974e-05  5.5784308449308019e-05  5.9475084843847994e-05  3.5852834538014548e-05  8.3061485900224621e-05  5.0749253332772577e-05  1.1078732576706414e-05  6.8902483064919824e-05  9.6350420114145821e-05  4.8213705935533331e-05  1.5167512451701606e-05  5.8168306807756720e-05  7.5237711447785367e-05  5.7269211451852755e-05  2.6443991980256947e-05  1.9312425691781969e-05  7.1138771729254949e-06  2.0522510741231877e-05  6.4133689890743617e-05  2.4316197713813816e-05  8.2729635923772849e-06  8.8361789805325954e-06  2.5275612808536113e-06  8.9485805741556654e-06  1.1784737770114672e-05  1.0423839392425797e-05  8.3508618717570783e-06  7.3980046723601721e-06  5.8216745102514203e-06  4.9058347696007030e-06  3.5718988762617364e-06  2.4795842397736753e-06  1.2909855682012387e-06  0.0000000000000000e+00  0.0000000000000000e+00  1.7523629282175035e-04  3.9721422708579544e-04  2.5783795873296966e-04  3.3674585791622114e-04  -1.0985058723827244e-04  3.1479909105056378e-04  -1.2906453975892447e-03  1.2392603110460683e-03  8.9251306834084020e-04  -3.4849705644773751e-05  -8.1126652385601238e-05  -5.2124150409682329e-04  -1.3421410822153174e-05  9.7238263281131890e-04  1.2690778175344472e-03  -5.5062071550442777e-04  -8.2526826770787788e-04  9.1561762621349130e-04  -4.0422466789288315e-04  1.3056103054790774e-03  -3.3120641401434333e-04  -8.0524024584006114e-07  1.0855266473962758e-03  -1.3795018235922790e-03  1.7327739890807107e-03  -6.8440792638560651e-04  2.4571215140516936e-04  1.3705287722072346e-03  -2.4285740687594727e-03  3.8249267727970917e-03  -1.8092177801152616e-03  -1.9346056858399554e-03  3.9327807658893019e-03  8.6618572228088257e-04  -3.7103383660433077e-03  -3.8542711112098262e-04  1.6513400177853980e-03  2.9723706780026213e-03  2.0641714788696289e-03  1.4775446624913434e-03  1.2159648829649927e-03  1.0406293648947285e-03  8.2350685309107293e-04  8.1043386543710753e-05  -2.0653075190707002e-03  -2.5357638592674527e-03  2.0311959127386802e-03  2.8625788203782312e-03  -3.2956755757495011e-03  2.2660522608987607e-03  -1.0164147628705092e-03  1.0759219238246800e-04  3.5532623048232137e-04  1.2859533446264641e-03  -1.0313986637678903e-03  -4.5967627659484366e-04  2.6568245774266923e-04  4.0628377541832554e-04  1.4825493534694563e-04  9.8531378282071881e-05  9.4353226517310249e-05  9.1268432100279569e-05  8.8607947411560486e-05  8.6274992552816231e-05  8.2219538389566212e-05  8.0908542651642146e-05  6.9386777498891647e-05  7.1709707659632703e-05  7.4090750857275949e-05  5.1265560447681121e-05  7.2978191984538203e-05  8.0965531311822427e-05  4.0183088416502098e-05  3.4565763686955856e-05  9.4314290808171345e-05  9.8408661917510139e-05  4.2103438300675288e-05  3.8342126777360142e-05  9.0114475818741922e-05  9.4134223045084440e-05  4.4267047615803283e-05  2.3797301639096621e-05  1.4645049153953587e-05  1.4214531971208241e-05  4.4892702570788883e-05  7.2332635848370983e-05  1.4260156761270020e-05  -5.8420064795388411e-07  1.1394625605023718e-05  6.1413648031035012e-06  1.1071633081211433e-05  1.1742049203912489e-05  1.0838117720785426e-05  8.3611515763480376e-06  7.0838778989437287e-06  5.7144720448735890e-06  4.2482171827605933e-06  2.9377054366970349e-06  1.4499492060109304e-06  0.0000000000000000e+00  0.0000000000000000e+00  2.5246975211303427e-05  2.6386888921376886e-04  5.3483986402808287e-04  5.4205135442511620e-04  -3.6953281966371342e-04  3.3237232553030128e-04  -5.4273387842634533e-04  -1.8538427660030054e-05  1.3903939664587539e-03  1.8600933212752302e-04  9.8203150573206903e-04  -1.4566382056998889e-03  -1.9766652098332697e-04  1.0306656152916642e-03  1.0417951989813588e-03  8.1653719123548889e-05  4.1625741850774643e-04  -1.4124820030178564e-03  1.1251180648280019e-03  7.4255131291954351e-04  -5.7972965799492229e-04  1.4959645924954856e-03  -1.2351965848693713e-03  1.8573165303632749e-03  -1.5977989882836829e-03  2.7975422124602986e-03  -2.6610320502386056e-03  3.0654089783590166e-03  -2.1959049321452688e-03  1.1802569284964206e-03  2.5810852596813766e-03  -3.8616119231957087e-03  1.7609851562736221e-03  4.3897535864376794e-03  -2.9443029108779245e-03  -2.7118714801250077e-03  6.3463565389903706e-04  2.9000918796376527e-03  3.1697853343868100e-03  2.1618585035013617e-03  1.6569652747232932e-03  1.4406511396539887e-03  1.2152067177184402e-03  5.4496334704107283e-04  -7.2256372174307965e-04  -3.0491926624502896e-03  -1.4012540307168893e-03  4.2577877428726790e-03  -1.0295634492224299e-03  -3.8434663171053635e-04  4.1352601699984782e-04  1.5962648801846351e-04  -6.7017207975397048e-04  1.5967016266609188e-03  1.6037472970372932e-04  -1.1510204910967496e-03  -8.1970862448045492e-05  4.6526099562019100e-04  3.4806554207239207e-04  1.3369808350707730e-04  1.1762346621633702e-04  1.1052912768516772e-04  1.0775468845895724e-04  1.0594898847924767e-04  1.0026461612968524e-04  1.0148262923544329e-04  8.9595737146774379e-05  8.7838458006406965e-05  8.6091854327223602e-05  7.9175910932571385e-05  6.2101176102440959e-05  1.0361993942506302e-04  7.0333314070189322e-05  4.8007636114784182e-05  7.0789385561755133e-05  9.7973950091536646e-05  9.5569934829871464e-05  3.7960258983340540e-05  7.6737118406202548e-05  1.1960220413006424e-04  9.1555896831050626e-05  2.5239794181661698e-05  1.8503472136601891e-05  1.3196903434876399e-05  3.2590883109167090e-05  6.7124749331556158e-05  6.8357029621998007e-05  2.0977317092645063e-06  -7.2121580206443658e-06  1.2070644577929106e-05  1.0845980851136242e-05  1.0927806169393632e-05  1.2711010322199312e-05  9.4385699274589525e-06  8.7502341928470347e-06  6.5021370355444429e-06  5.1578254656564704e-06  3.3298030049887815e-06  1.6350357665500085e-06  0.0000000000000000e+00  0.0000000000000000e+00  2.3955232227820526e-04  3.7974851850467578e-04  4.3760585531739469e-04  3.3056065674663421e-04  6.4252322810250313e-04  -2.1809818904387578e-04  2.2203183127909328e-04  -1.1783310309349524e-03  1.2180321690181874e-03  1.3328480529984934e-03  1.8965709144603497e-04  -1.5403310296776136e-05  -8.8008504902247018e-04  8.394329330773728