<?xml version="1.0"?>
<VTKFile type="UnstructuredGrid"  version="0.1"  >
<UnstructuredGrid>
<Piece  NumberOfPoints="10201" NumberOfCells="20000">
<Points>
<DataArray  type="Float64"  NumberOfComponents="3"  format="ascii">0 0 0  0.01 0 0  0.02 0 0  0.03 0 0  0.04 0 0  0.05 0 0  0.06 0 0  0.07000000000000001 0 0  0.08 0 0  0.09 0 0  0.1 0 0  0.11 0 0  0.12 0 0  0.13 0 0  0.14 0 0  0.15 0 0  0.16 0 0  0.17 0 0  0.18 0 0  0.19 0 0  0.2 0 0  0.21 0 0  0.22 0 0  0.23 0 0  0.24 0 0  0.25 0 0  0.26 0 0  0.27 0 0  0.28 0 0  0.29 0 0  0.3 0 0  0.31 0 0  0.32 0 0  0.33 0 0  0.34 0 0  0.35 0 0  0.36 0 0  0.37 0 0  0.38 0 0  0.39 0 0  0.4 0 0  0.41 0 0  0.42 0 0  0.43 0 0  0.44 0 0  0.45 0 0  0.46 0 0  0.47 0 0  0.48 0 0  0.49 0 0  0.5 0 0  0.51 0 0  0.52 0 0  0.53 0 0  0.54 0 0  0.55 0 0  0.5600000000000001 0 0  0.57 0 0  0.58 0 0  0.59 0 0  0.6 0 0  0.61 0 0  0.62 0 0  0.63 0 0  0.64 0 0  0.65 0 0  0.66 0 0  0.67 0 0  0.68 0 0  0.6899999999999999 0 0  0.7 0 0  0.71 0 0  0.72 0 0  0.73 0 0  0.74 0 0  0.75 0 0  0.76 0 0  0.77 0 0  0.78 0 0  0.79 0 0  0.8 0 0  0.8100000000000001 0 0  0.82 0 0  0.83 0 0  0.84 0 0  0.85 0 0  0.86 0 0  0.87 0 0  0.88 0 0  0.89 0 0  0.9 0 0  0.91 0 0  0.92 0 0  0.93 0 0  0.9399999999999999 0 0  0.95 0 0  0.96 0 0  0.97 0 0  0.98 0 0  0.99 0 0  1 0 0  0 0.01 0  0.01 0.01 0  0.02 0.01 0  0.03 0.01 0  0.04 0.01 0  0.05 0.01 0  0.06 0.01 0  0.07000000000000001 0.01 0  0.08 0.01 0  0.09 0.01 0  0.1 0.01 0  0.11 0.01 0  0.12 0.01 0  0.13 0.01 0  0.14 0.01 0  0.15 0.01 0  0.16 0.01 0  0.17 0.01 0  0.18 0.01 0  0.19 0.01 0  0.2 0.01 0  0.21 0.01 0  0.22 0.01 0  0.23 0.01 0  0.24 0.01 0  0.25 0.01 0  0.26 0.01 0  0.27 0.01 0  0.28 0.01 0  0.29 0.01 0  0.3 0.01 0  0.31 0.01 0  0.32 0.01 0  0.33 0.01 0  0.34 0.01 0  0.35 0.01 0  0.36 0.01 0  0.37 0.01 0  0.38 0.01 0  0.39 0.01 0  0.4 0.01 0  0.41 0.01 0  0.42 0.01 0  0.43 0.01 0  0.44 0.01 0  0.45 0.01 0  0.46 0.01 0  0.47 0.01 0  0.48 0.01 0  0.49 0.01 0  0.5 0.01 0  0.51 0.01 0  0.52 0.01 0  0.53 0.01 0  0.54 0.01 0  0.55 0.01 0  0.5600000000000001 0.01 0  0.57 0.01 0  0.58 0.01 0  0.59 0.01 0  0.6 0.01 0  0.61 0.01 0  0.62 0.01 0  0.63 0.01 0  0.64 0.01 0  0.65 0.01 0  0.66 0.01 0  0.67 0.01 0  0.68 0.01 0  0.6899999999999999 0.01 0  0.7 0.01 0  0.71 0.01 0  0.72 0.01 0  0.73 0.01 0  0.74 0.01 0  0.75 0.01 0  0.76 0.01 0  0.77 0.01 0  0.78 0.01 0  0.79 0.01 0  0.8 0.01 0  0.8100000000000001 0.01 0  0.82 0.01 0  0.83 0.01 0  0.84 0.01 0  0.85 0.01 0  0.86 0.01 0  0.87 0.01 0  0.88 0.01 0  0.89 0.01 0  0.9 0.01 0  0.91 0.01 0  0.92 0.01 0  0.93 0.01 0  0.9399999999999999 0.01 0  0.95 0.01 0  0.96 0.01 0  0.97 0.01 0  0.98 0.01 0  0.99 0.01 0  1 0.01 0  0 0.02 0  0.01 0.02 0  0.02 0.02 0  0.03 0.02 0  0.04 0.02 0  0.05 0.02 0  0.06 0.02 0  0.07000000000000001 0.02 0  0.08 0.02 0  0.09 0.02 0  0.1 0.02 0  0.11 0.02 0  0.12 0.02 0  0.13 0.02 0  0.14 0.02 0  0.15 0.02 0  0.16 0.02 0  0.17 0.02 0  0.18 0.02 0  0.19 0.02 0  0.2 0.02 0  0.21 0.02 0  0.22 0.02 0  0.23 0.02 0  0.24 0.02 0  0.25 0.02 0  0.26 0.02 0  0.27 0.02 0  0.28 0.02 0  0.29 0.02 0  0.3 0.02 0  0.31 0.02 0  0.32 0.02 0  0.33 0.02 0  0.34 0.02 0  0.35 0.02 0  0.36 0.02 0  0.37 0.02 0  0.38 0.02 0  0.39 0.02 0  0.4 0.02 0  0.41 0.02 0  0.42 0.02 0  0.43 0.02 0  0.44 0.02 0  0.45 0.02 0  0.46 0.02 0  0.47 0.02 0  0.48 0.02 0  0.49 0.02 0  0.5 0.02 0  0.51 0.02 0  0.52 0.02 0  0.53 0.02 0  0.54 0.02 0  0.55 0.02 0  0.5600000000000001 0.02 0  0.57 0.02 0  0.58 0.02 0  0.59 0.02 0  0.6 0.02 0  0.61 0.02 0  0.62 0.02 0  0.63 0.02 0  0.64 0.02 0  0.65 0.02 0  0.66 0.02 0  0.67 0.02 0  0.68 0.02 0  0.6899999999999999 0.02 0  0.7 0.02 0  0.71 0.02 0  0.72 0.02 0  0.73 0.02 0  0.74 0.02 0  0.75 0.02 0  0.76 0.02 0  0.77 0.02 0  0.78 0.02 0  0.79 0.02 0  0.8 0.02 0  0.8100000000000001 0.02 0  0.82 0.02 0  0.83 0.02 0  0.84 0.02 0  0.85 0.02 0  0.86 0.02 0  0.87 0.02 0  0.88 0.02 0  0.89 0.02 0  0.9 0.02 0  0.91 0.02 0  0.92 0.02 0  0.93 0.02 0  0.9399999999999999 0.02 0  0.95 0.02 0  0.96 0.02 0  0.97 0.02 0  0.98 0.02 0  0.99 0.02 0  1 0.02 0  0 0.03 0  0.01 0.03 0  0.02 0.03 0  0.03 0.03 0  0.04 0.03 0  0.05 0.03 0  0.06 0.03 0  0.07000000000000001 0.03 0  0.08 0.03 0  0.09 0.03 0  0.1 0.03 0  0.11 0.03 0  0.12 0.03 0  0.13 0.03 0  0.14 0.03 0  0.15 0.03 0  0.16 0.03 0  0.17 0.03 0  0.18 0.03 0  0.19 0.03 0  0.2 0.03 0  0.21 0.03 0  0.22 0.03 0  0.23 0.03 0  0.24 0.03 0  0.25 0.03 0  0.26 0.03 0  0.27 0.03 0  0.28 0.03 0  0.29 0.03 0  0.3 0.03 0  0.31 0.03 0  0.32 0.03 0  0.33 0.03 0  0.34 0.03 0  0.35 0.03 0  0.36 0.03 0  0.37 0.03 0  0.38 0.03 0  0.39 0.03 0  0.4 0.03 0  0.41 0.03 0  0.42 0.03 0  0.43 0.03 0  0.44 0.03 0  0.45 0.03 0  0.46 0.03 0  0.47 0.03 0  0.48 0.03 0  0.49 0.03 0  0.5 0.03 0  0.51 0.03 0  0.52 0.03 0  0.53 0.03 0  0.54 0.03 0  0.55 0.03 0  0.5600000000000001 0.03 0  0.57 0.03 0  0.58 0.03 0  0.59 0.03 0  0.6 0.03 0  0.61 0.03 0  0.62 0.03 0  0.63 0.03 0  0.64 0.03 0  0.65 0.03 0  0.66 0.03 0  0.67 0.03 0  0.68 0.03 0  0.6899999999999999 0.03 0  0.7 0.03 0  0.71 0.03 0  0.72 0.03 0  0.73 0.03 0  0.74 0.03 0  0.75 0.03 0  0.76 0.03 0  0.77 0.03 0  0.78 0.03 0  0.79 0.03 0  0.8 0.03 0  0.8100000000000001 0.03 0  0.82 0.03 0  0.83 0.03 0  0.84 0.03 0  0.85 0.03 0  0.86 0.03 0  0.87 0.03 0  0.88 0.03 0  0.89 0.03 0  0.9 0.03 0  0.91 0.03 0  0.92 0.03 0  0.93 0.03 0  0.9399999999999999 0.03 0  0.95 0.03 0  0.96 0.03 0  0.97 0.03 0  0.98 0.03 0  0.99 0.03 0  1 0.03 0  0 0.04 0  0.01 0.04 0  0.02 0.04 0  0.03 0.04 0  0.04 0.04 0  0.05 0.04 0  0.06 0.04 0  0.07000000000000001 0.04 0  0.08 0.04 0  0.09 0.04 0  0.1 0.04 0  0.11 0.04 0  0.12 0.04 0  0.13 0.04 0  0.14 0.04 0  0.15 0.04 0  0.16 0.04 0  0.17 0.04 0  0.18 0.04 0  0.19 0.04 0  0.2 0.04 0  0.21 0.04 0  0.22 0.04 0  0.23 0.04 0  0.24 0.04 0  0.25 0.04 0  0.26 0.04 0  0.27 0.04 0  0.28 0.04 0  0.29 0.04 0  0.3 0.04 0  0.31 0.04 0  0.32 0.04 0  0.33 0.04 0  0.34 0.04 0  0.35 0.04 0  0.36 0.04 0  0.37 0.04 0  0.38 0.04 0  0.39 0.04 0  0.4 0.04 0  0.41 0.04 0  0.42 0.04 0  0.43 0.04 0  0.44 0.04 0  0.45 0.04 0  0.46 0.04 0  0.47 0.04 0  0.48 0.04 0  0.49 0.04 0  0.5 0.04 0  0.51 0.04 0  0.52 0.04 0  0.53 0.04 0  0.54 0.04 0  0.55 0.04 0  0.5600000000000001 0.04 0  0.57 0.04 0  0.58 0.04 0  0.59 0.04 0  0.6 0.04 0  0.61 0.04 0  0.62 0.04 0  0.63 0.04 0  0.64 0.04 0  0.65 0.04 0  0.66 0.04 0  0.67 0.04 0  0.68 0.04 0  0.6899999999999999 0.04 0  0.7 0.04 0  0.71 0.04 0  0.72 0.04 0  0.73 0.04 0  0.74 0.04 0  0.75 0.04 0  0.76 0.04 0  0.77 0.04 0  0.78 0.04 0  0.79 0.04 0  0.8 0.04 0  0.8100000000000001 0.04 0  0.82 0.04 0  0.83 0.04 0  0.84 0.04 0  0.85 0.04 0  0.86 0.04 0  0.87 0.04 0  0.88 0.04 0  0.89 0.04 0  0.9 0.04 0  0.91 0.04 0  0.92 0.04 0  0.93 0.04 0  0.9399999999999999 0.04 0  0.95 0.04 0  0.96 0.04 0  0.97 0.04 0  0.98 0.04 0  0.99 0.04 0  1 0.04 0  0 0.05 0  0.01 0.05 0  0.02 0.05 0  0.03 0.05 0  0.04 0.05 0  0.05 0.05 0  0.06 0.05 0  0.07000000000000001 0.05 0  0.08 0.05 0  0.09 0.05 0  0.1 0.05 0  0.11 0.05 0  0.12 0.05 0  0.13 0.05 0  0.14 0.05 0  0.15 0.05 0  0.16 0.05 0  0.17 0.05 0  0.18 0.05 0  0.19 0.05 0  0.2 0.05 0  0.21 0.05 0  0.22 0.05 0  0.23 0.05 0  0.24 0.05 0  0.25 0.05 0  0.26 0.05 0  0.27 0.05 0  0.28 0.05 0  0.29 0.05 0  0.3 0.05 0  0.31 0.05 0  0.32 0.05 0  0.33 0.05 0  0.34 0.05 0  0.35 0.05 0  0.36 0.05 0  0.37 0.05 0  0.38 0.05 0  0.39 0.05 0  0.4 0.05 0  0.41 0.05 0  0.42 0.05 0  0.43 0.05 0  0.44 0.05 0  0.45 0.05 0  0.46 0.05 0  0.47 0.05 0  0.48 0.05 0  0.49 0.05 0  0.5 0.05 0  0.51 0.05 0  0.52 0.05 0  0.53 0.05 0  0.54 0.05 0  0.55 0.05 0  0.5600000000000001 0.05 0  0.57 0.05 0  0.58 0.05 0  0.59 0.05 0  0.6 0.05 0  0.61 0.05 0  0.62 0.05 0  0.63 0.05 0  0.64 0.05 0  0.65 0.05 0  0.66 0.05 0  0.67 0.05 0  0.68 0.05 0  0.6899999999999999 0.05 0  0.7 0.05 0  0.71 0.05 0  0.72 0.05 0  0.73 0.05 0  0.74 0.05 0  0.75 0.05 0  0.76 0.05 0  0.77 0.05 0  0.78 0.05 0  0.79 0.05 0  0.8 0.05 0  0.8100000000000001 0.05 0  0.82 0.05 0  0.83 0.05 0  0.84 0.05 0  0.85 0.05 0  0.86 0.05 0  0.87 0.05 0  0.88 0.05 0  0.89 0.05 0  0.9 0.05 0  0.91 0.05 0  0.92 0.05 0  0.93 0.05 0  0.9399999999999999 0.05 0  0.95 0.05 0  0.96 0.05 0  0.97 0.05 0  0.98 0.05 0  0.99 0.05 0  1 0.05 0  0 0.06 0  0.01 0.06 0  0.02 0.06 0  0.03 0.06 0  0.04 0.06 0  0.05 0.06 0  0.06 0.06 0  0.07000000000000001 0.06 0  0.08 0.06 0  0.09 0.06 0  0.1 0.06 0  0.11 0.06 0  0.12 0.06 0  0.13 0.06 0  0.14 0.06 0  0.15 0.06 0  0.16 0.06 0  0.17 0.06 0  0.18 0.06 0  0.19 0.06 0  0.2 0.06 0  0.21 0.06 0  0.22 0.06 0  0.23 0.06 0  0.24 0.06 0  0.25 0.06 0  0.26 0.06 0  0.27 0.06 0  0.28 0.06 0  0.29 0.06 0  0.3 0.06 0  0.31 0.06 0  0.32 0.06 0  0.33 0.06 0  0.34 0.06 0  0.35 0.06 0  0.36 0.06 0  0.37 0.06 0  0.38 0.06 0  0.39 0.06 0  0.4 0.06 0  0.41 0.06 0  0.42 0.06 0  0.43 0.06 0  0.44 0.06 0  0.45 0.06 0  0.46 0.06 0  0.47 0.06 0  0.48 0.06 0  0.49 0.06 0  0.5 0.06 0  0.51 0.06 0  0.52 0.06 0  0.53 0.06 0  0.54 0.06 0  0.55 0.06 0  0.5600000000000001 0.06 0  0.57 0.06 0  0.58 0.06 0  0.59 0.06 0  0.6 0.06 0  0.61 0.06 0  0.62 0.06 0  0.63 0.06 0  0.64 0.06 0  0.65 0.06 0  0.66 0.06 0  0.67 0.06 0  0.68 0.06 0  0.6899999999999999 0.06 0  0.7 0.06 0  0.71 0.06 0  0.72 0.06 0  0.73 0.06 0  0.74 0.06 0  0.75 0.06 0  0.76 0.06 0  0.77 0.06 0  0.78 0.06 0  0.79 0.06 0  0.8 0.06 0  0.8100000000000001 0.06 0  0.82 0.06 0  0.83 0.06 0  0.84 0.06 0  0.85 0.06 0  0.86 0.06 0  0.87 0.06 0  0.88 0.06 0  0.89 0.06 0  0.9 0.06 0  0.91 0.06 0  0.92 0.06 0  0.93 0.06 0  0.9399999999999999 0.06 0  0.95 0.06 0  0.96 0.06 0  0.97 0.06 0  0.98 0.06 0  0.99 0.06 0  1 0.06 0  0 0.07000000000000001 0  0.01 0.07000000000000001 0  0.02 0.07000000000000001 0  0.03 0.07000000000000001 0  0.04 0.07000000000000001 0  0.05 0.07000000000000001 0  0.06 0.07000000000000001 0  0.07000000000000001 0.07000000000000001 0  0.08 0.07000000000000001 0  0.09 0.07000000000000001 0  0.1 0.07000000000000001 0  0.11 0.07000000000000001 0  0.12 0.07000000000000001 0  0.13 0.07000000000000001 0  0.14 0.07000000000000001 0  0.15 0.07000000000000001 0  0.16 0.07000000000000001 0  0.17 0.0700
[...]
<PointData  Scalars="u"> 
<DataArray  type="Float64"  Name="u"  format="ascii">0.0000000000000000e+00  0.0000000000000000e+00  0.0000000000000000e+00  0.0000000000000000e+00  0.0000000000000000e+00  0.0000000000000000e+00  0.0000000000000000e+00  0.0000000000000000e+00  0.0000000000000000e+00  0.0000000000000000e+00  0.0000000000000000e+00  0.0000000000000000e+00  0.0000000000000000e+00  0.0000000000000000e+00  0.0000000000000000e+00  0.0000000000000000e+00  0.0000000000000000e+00  0.0000000000000000e+00  0.0000000000000000e+00  0.0000000000000000e+00  0.0000000000000000e+00  0.0000000000000000e+00  0.0000000000000000e+00  0.0000000000000000e+00  0.0000000000000000e+00  0.0000000000000000e+00  0.0000000000000000e+00  0.0000000000000000e+00  0.0000000000000000e+00  0.0000000000000000e+00  0.0000000000000000e+00  0.0000000000000000e+00  0.0000000000000000e+00  0.0000000000000000e+00  0.0000000000000000e+00  0.0000000000000000e+00  0.0000000000000000e+00  0.0000000000000000e+00  0.0000000000000000e+00  0.0000000000000000e+00  0.0000000000000000e+00  0.0000000000000000e+00  0.0000000000000000e+00  0.0000000000000000e+00  0.0000000000000000e+00  0.0000000000000000e+00  0.0000000000000000e+00  0.0000000000000000e+00  0.0000000000000000e+00  0.0000000000000000e+00  0.0000000000000000e+00  0.0000000000000000e+00  0.0000000000000000e+00  0.0000000000000000e+00  0.0000000000000000e+00  0.0000000000000000e+00  0.0000000000000000e+00  0.0000000000000000e+00  0.0000000000000000e+00  0.0000000000000000e+00  0.0000000000000000e+00  0.0000000000000000e+00  0.0000000000000000e+00  0.0000000000000000e+00  0.0000000000000000e+00  0.0000000000000000e+00  0.0000000000000000e+00  0.0000000000000000e+00  0.0000000000000000e+00  0.0000000000000000e+00  0.0000000000000000e+00  0.0000000000000000e+00  0.0000000000000000e+00  0.0000000000000000e+00  0.0000000000000000e+00  0.0000000000000000e+00  0.0000000000000000e+00  0.0000000000000000e+00  0.0000000000000000e+00  0.0000000000000000e+00  0.0000000000000000e+00  0.0000000000000000e+00  0.0000000000000000e+00  0.0000000000000000e+00  0.0000000000000000e+00  0.0000000000000000e+00  0.0000000000000000e+00  0.0000000000000000e+00  0.0000000000000000e+00  0.0000000000000000e+00  0.0000000000000000e+00  0.0000000000000000e+00  0.0000000000000000e+00  0.0000000000000000e+00  0.0000000000000000e+00  0.0000000000000000e+00  0.0000000000000000e+00  0.0000000000000000e+00  0.0000000000000000e+00  0.0000000000000000e+00  0.0000000000000000e+00  0.0000000000000000e+00  4.8351923806887841e-07  9.7991516196010314e-07  1.4894941808645722e-06  2.0124419703854004e-06  2.5489144793241684e-06  3.0990392540169396e-06  3.6629113107549658e-06  4.2405885122044529e-06  4.8320865579651603e-06  5.4373735835824972e-06  6.0563643666466536e-06  6.6889141446899889e-06  7.3348120574571061e-06  7.9937742355811792e-06  8.6654365688836872e-06  9.3493472005130230e-06  1.0044958808079348e-05  1.0751620749729402e-05  1.1468571171893896e-05  1.2194929195829073e-05  1.2929687322098527e-05  1.3671704215152185e-05  1.4419698053810138e-05  1.5172240656888329e-05  1.5927752615600973e-05  1.6684499684490465e-05  1.7440590699289306e-05  1.8193977301649784e-05  1.8942455755594305e-05  1.9683671136939420e-05  2.0415124163204109e-05  2.1134180905921531e-05  2.1838085588487805e-05  2.2523976619548674e-05  2.3188905944208356e-05  2.3829861713037004e-05  2.4443794173352125e-05  2.5027644580422765e-05  2.5578376811487748e-05  2.6093011246892129e-05  2.6568660365413116e-05  2.7002565391008781e-05  2.7392133231970600e-05  2.7734972877481557e-05  2.8028930366679889e-05  2.8272121426807729e-05  2.8462960893532870e-05  2.8600188080025262e-05  2.8682887351628405e-05  2.8710503287441017e-05  2.8682849964116689e-05  2.8600114073816400e-05  2.8462851779182983e-05  2.8271979403927877e-05  2.8028758248463241e-05  2.7734773996390565e-05  2.7391911331387032e-05  2.7002324508141079e-05  2.6568404710903662e-05  2.6092745086345490e-05  2.5578104353642330e-05  2.5027369875934130e-05  2.4443521027261560e-05  2.3829593612987533e-05  2.3188646005521258e-05  2.2523727547308438e-05  2.1837849656021221e-05  2.1133959948382309e-05  2.0414919584474332e-05  1.9683483927791642e-05  1.8942286520840354e-05  1.8193826294058021e-05  1.7440457858083138e-05  1.6684384676465318e-05  1.5927654877141202e-05  1.5172159435420698e-05  1.4419632447527988e-05  1.3671653210136594e-05  1.2929649826192494e-05  1.2194904068904917e-05  1.1468557252290289e-05  1.0751616876855853e-05  1.0044963841283215e-05  9.3493600344136319e-06  8.6654561454357908e-06  7.9937995531994542e-06  7.3348421775113483e-06  6.6889481957415257e-06  6.0564015467352818e-06  5.4374131608953495e-06  4.8321278701795180e-06  4.2406309647617280e-06  3.6629543742612485e-06  3.0990824606486036e-06  2.5489574159198929e-06  2.0124842499250338e-06  1.4895352535979713e-06  9.7995289638707220e-07  4.8354185650949647e-07  0.0000000000000000e+00  0.0000000000000000e+00  9.7986554934820360e-07  1.9871500044945437e-06  3.0223446892779560e-06  4.0859410208993053e-06  5.1783635608927721e-06  6.2999766028505272e-06  7.4510818113994369e-06  8.6319088880999011e-06  9.8426049005338984e-06  1.1083222675076559e-05  1.2353708244554445e-05  1.3653887344119838e-05  1.4983450964453218e-05  1.6341939991023297e-05  1.7728728981915970e-05  1.9143009165055091e-05  2.0583770768668704e-05  2.2049784836996687e-05  2.3539584726326826e-05  2.5051447524620299e-05  2.6583375690592066e-05  2.8133079264682352e-05  2.9697959063642499e-05  3.1275091330977362e-05  3.2861214375274716e-05  3.4452717784702059e-05  3.6045634855831369e-05  3.7635638914393330e-05  3.9218044230643836e-05  4.0787812238080953e-05  4.2339563746458101e-05  4.3867597793917197e-05  4.5365917704204373e-05  4.6828264799940370e-05  4.8248160069766560e-05  4.9618953895247172e-05  5.0933883714752432e-05  5.2186139240396216e-05  5.3368934557822719e-05  5.4475586137576988e-05  5.5499595483769735e-05  5.6434734856433790e-05  5.7275134244968518e-05  5.8015367559296340e-05  5.8650535859188323e-05  5.9176345375622847e-05  5.9589178101861074e-05  5.9886152852557897e-05  6.0065174907045541e-05  6.0124972662044083e-05  6.0065120107212697e-05  5.9886044386327346e-05  5.9589018194692797e-05  5.9176137264533003e-05  5.8650283677731929e-05  5.8015076194311812e-05  5.7274809172698431e-05  5.6434381966358156e-05  5.5499220898653107e-05  5.4475196037763330e-05  5.3368535016966508e-05  5.2185736078495806e-05  5.0933482372912943e-05  4.9618559334959234e-05  4.8247776697970683e-05  4.6827896419715656e-05  4.5365567489717453e-05  4.3867268287337061e-05  4.2339256873864135e-05  4.0787529341015398e-05  3.9217786109816816e-05  3.7635405882117536e-05  3.6045426793980743e-05  3.4452534205350374e-05  3.2861054481575246e-05  3.1274954076304647e-05  2.9697843207433883e-05  2.8132983423910297e-05  2.6583298386079790e-05  2.5051387221846894e-05  2.3539539870573860e-05  2.2049753882936324e-05  2.0583752204650881e-05  1.9143001532476683e-05  1.7728730890118570e-05  1.6341950128219623e-05  1.4983468105195025e-05  1.3653910353799359e-05  1.2353736081427903e-05  1.1083254390246560e-05  9.8426396362968501e-06  8.6319458750136973e-06  7.4511203643321583e-06  6.3000161159642860e-06  5.1784034991612356e-06  4.0859808969805928e-06  3.0223842937901256e-06  1.9871947271483564e-06  9.7993596296442530e-07  0.0000000000000000e+00  0.0000000000000000e+00  1.4894511687322913e-06  3.0223601637787042e-06  4.5995968554048691e-06  6.2220860814605851e-06  7.8906203060787030e-06  9.6059315147835220e-06  1.1368660607014311e-05  1.3179345184261121e-05  1.5038403193266894e-05  1.6946114370747316e-05  1.8902599969639467e-05  2.0907800760221550e-05  2.2961453288774249e-05  2.5063064405478252e-05  2.7211884110328869e-05  2.9406876810990488e-05  3.1646691140624856e-05  3.3929628547342104e-05  3.6253610940501700e-05  3.8616147762871862e-05  4.1014302951214764e-05  4.3444662350588587e-05  4.5903302257833817e-05  4.8385759885318187e-05  5.0887006653367116e-05  5.3401425335067201e-05  5.5922792184218273e-05  5.8444265269799939e-05  6.0958380310391477e-05  6.3457055340539808e-05  6.5931605538950474e-05  6.8372769495253380e-05  7.0770748079367537e-05  7.3115256896075370e-05  7.5395593052100584e-05  7.7600716630241615e-05  7.9719346856365461e-05  8.1740072466734138e-05  8.3651475247290553e-05  8.5442265141480114e-05  8.7101424733831322e-05  8.8618360342165379e-05  8.9983056426627933e-05  9.1186229583682229e-05  9.2219478073997361e-05  9.3075422665291979e-05  9.3747834580253385e-05  9.4231746539979045e-05  9.4523543288661484e-05  9.4621028564836817e-05  9.4523466225100453e-05  9.4231594091694716e-05  9.3747610040080878e-05  9.3075130814248986e-05  9.2219125002004887e-05  9.1185822467186359e-05  8.9982603275570985e-05  8.8617869729879569e-05  8.7100905523440576e-05  8.5441726221590876e-05  8.3650925288012850e-05  8.1739519704999899e-05  7.9718798916790645e-05  7.7600180385316075e-05  7.5395074522816390e-05  7.3114761192023738e-05  7.0770279375393264e-05  6.8372331040453461e-05  6.5931199692921246e-05  6.3456683631314003e-05  6.0958043508447890e-05  5.8443963472881510e-05  5.5922524908044010e-05  5.3401191605840561e-05  5.0886805098571680e-05  4.8385588820127752e-05  4.5903159765133920e-05  4.3444546353262958e-05  4.1014211275973405e-05  3.8616078195259374e-05  3.6253561271251562e-05  3.3929596610386521e-05  3.1646674843384341e-05  2.9406874157635363e-05  2.7211893218813879e-05  2.5063083519144881e-05  2.2961480783348635e-05  2.0907835146940778e-05  1.8902639895239897e-05  1.6946158614939834e-05  1.5038450664272350e-05  1.3179394912900855e-05  1.1368711739776913e-05  9.6059833066657571e-06  7.8906721457780774e-06  6.2221380972143821e-06  4.5996534910898653e-06  3.0224153312198236e-06  1.4895445784293252e-06  0.0000000000000000e+00  0.0000000000000000e+00  2.0124075846900989e-06  4.0859400126915270e-06  6.2221154581256727e-06  8.4222519600018805e-06  1.0687746503181781e-05  1.3019828068145049e-05  1.5419631142660174e-05  1.7888162948286939e-05  2.0426279387459562e-05  2.3034659189730369e-05  2.5713775056775002e-05  2.8463862014051057e-05  3.1284882940518551e-05  3.4176491239240698e-05  3.7137990658777254e-05  4.0168292337807017e-05  4.3265869222254341e-05  4.6428708096903598e-05  4.9654259583281793e-05  5.2939386583172940e-05  5.6280311793119226e-05  5.9672565078777242e-05  6.3110931677885974e-05  6.6589402393752158e-05  7.0101127143301081e-05  7.3638373428540032e-05  7.7192491499305653e-05  8.0753888157943232e-05  8.4312011309756288e-05  8.7855347472340429e-05  9.1371434504751084e-05  9.4846891786050597e-05  9.8267469945256008e-05  1.0161812200235352e-04  1.0488309741104697e-04  1.0804605998789147e-04  1.1109023006800446e-04  1.1399855045053708e-04  1.1675387480569175e-04  1.1933917623722423e-04  1.2173777267071225e-04  1.2393356472108045e-04  1.2591128074187767e-04  1.2765672294047517e-04  1.2915700782305812e-04  1.3040079387201248e-04  1.3137848930541357e-04  1.3208243305557878e-04  1.3250704274126698e-04  1.3264892438113335e-04  1.3250693986346335e-04  1.3208222968469553e-04  1.3137819011302724e-04  1.3040040562707186e-04  1.2915653912272135e-04  1.2765618387779423e-04  1.2591068253005506e-04  1.2393291929547261e-04  1.2173709228959498e-04  1.1933847310073337e-04  1.1675316070939631e-04  1.1399783648638501e-04  1.1108952638122300e-04  1.0804537559415189e-04  1.0488244007451641e-04  1.0161749817167359e-04  9.8266884742016626e-05  9.4846349038514230e-05  9.1370936818404902e-05  8.7854896328591240e-05  8.4311607184205651e-05  8.0753530650508931e-05  7.7192179469125720e-05  7.3638105128056341e-05  7.0100900346891100e-05  6.6589214517463833e-05  6.3110779888012294e-05  5.9672446387847802e-05  5.6280223142723405e-05  5.2939324913658792e-05  4.9654221890850647e-05  4.6428691478970833e-05  4.3265870912152020e-05  4.0168309730057647e-05  3.7138021326183084e-05  3.4176532943035026e-05  3.1284933634749949e-05  2.8463919845296491e-05  2.5713838360155602e-05  2.3034726482104302e-05  2.0426349358541442e-05  1.7888234450409447e-05  1.5419703182445505e-05  1.3019899852717392e-05  1.0687817905203046e-05  8.4223236656526359e-06  6.2221774699788599e-06  4.0860507260617190e-06  2.0125271056276143e-06  0.0000000000000000e+00  0.0000000000000000e+00  2.5488878873089138e-06  5.1783788806659956e-06  7.8906451134631940e-06  1.0687776325107561e-05  1.3571761500461993e-05  1.6544557405341023e-05  1.9607971051462591e-05  2.2763667319916995e-05  2.6013138814324635e-05  2.9357670031973369e-05  3.2798299121311115e-05  3.6335775554627704e-05  3.9970513539340736e-05  4.3702541066933603e-05  4.7531444524369160e-05  5.1456308866902361e-05  5.5475653450572461e-05  5.9587363746249589e-05  6.3788619307448768e-05  6.8075818543388087e-05  7.2444501058521252e-05  7.6889268560676859e-05  8.1403705611075746e-05  8.5980301788162955e-05  9.0610377158404051e-05  9.5284013282595663e-05  9.9989992324812417e-05  1.0471574715713709e-04  1.0944732564736632e-04  1.1416937255583853e-04  1.1886513262315628e-04  1.2351647847512782e-04  1.2810396686548952e-04  1.3260692650655793e-04  1.3700358024800263e-04  1.4127120366500941e-04  1.4538632116894035e-04  1.4932493958039159e-04  1.5306281771301579e-04  1.5657576895690713e-04  1.5983999217810817e-04  1.6283242455328946e-04  1.6553110833604690e-04  1.6791556211580974e-04  1.6996714600001569e-04  1.7166940943534069e-04  1.7300841017707852e-04  1.7397299328225093e-04  1.7455501996438156e-04  1.7474953769042921e-04  1.7455488495414447e-04  1.7397272661677174e-04  1.7300801841935713e-04  1.7166890207245421e-04  1.6996653504129349e-04  1.6791486159935037e-04  1.6553033377477816e-04  1.6283159235330863e-04  1.5983911906183157e-04  1.5657487142020507e-04  1.5306191154042237e-04  1.4932403943617004e-04  1.4538544027506420e-04  1.4127035357070102e-04  1.3700277068943835e-04  1.3260616535013643e-04  1.2810326012522398e-04  1.2351583039137961e-04  1.1886454578998022e-04  1.1416884808224025e-04  1.0944686334188665e-04  1.0471534572209119e-04  9.9989649552638274e-05  9.5283726245632075e-05  9.0610142386611495e-05  8.5980115430743319e-05  8.1403563579599323e-05  7.6889166652560704e-05  7.2444435060756978e-05  6.8075784317311403e-05  6.3788612855768311e-05  5.9587381264057960e-05  5.5475691362166857e-05  5.1456363850372185e-05  4.7531513525852046e-05  4.3702621306358151e-05  3.9970602509299836e-05  3.6335871013908274e-05  3.2798399084358578e-05  2.9357772755442040e-05  2.6013242781874990e-05  2.2763771230676577e-05  1.9608073855785429e-05  1.6544658437702456e-05  1.3571859298029856e-05  1.0687868189847804e-05  7.8907615555861344e-06  5.1785224774037812e-06  2.5490430810880622e-06  0.0000000000000000e+00  0.0000000000000000e+00  3.0990217783451180e-06  6.3000059822007084e-06  9.6059627368364835e-06  1.3019878702773074e-05  1.6544585215511917e-05  2.0182926719498504e-05  2.3937595883673809e-05  2.7811143989294875e-05  3.1805934243552465e-05  3.5924103568363226e-05  4.0167513661740330e-05  4.4537696915132670e-05  4.9035796465275772e-05  5.3662499943751764e-05  5.8417966696752093e-05  6.3301748329559814e-05  6.8312702545417098e-05  7.3448900401273809e-05  7.8707527295335966e-05  8.4084778237659608e-05  8.9575748238971848e-05  9.5174318987610178e-05  1.0087304337079634e-04  1.0666302983319977e-04  1.1253382904815816e-04  1.1847332589606952e-04  1.2446764028605967e-04  1.3050104090041157e-04  1.3655587646118112e-04  1.4261252957380741e-04  1.4864939856355401e-04  1.5464291292457727e-04  1.6056758800766306e-04  1.6639612431080197e-04  1.7209955619346205e-04  1.7764745388823571e-04  1.8300818140917216e-04  1.8814921124299253e-04  1.9303749464207208e-04  1.9763988394279442e-04  2.0192360070904616e-04  2.0585674075859024e-04  2.0940880446457366e-04  2.1255123828577230e-04  2.1525797150044005e-04  2.1750593077250770e-04  2.1927551464523144e-04  2.2055101046083579e-04  2.2132093759500234e-04  2.2157830325596518e-04  2.2132076033003060e-04  2.2055066067113699e-04  2.1927500158881266e-04  2.1750526779643417e-04  2.1525717543657204e-04  2.1255032871358043e-04  2.0940780288983049e-04  2.0585566975953138e-04  2.0192248310110824e-04  1.9763874200552455e-04  1.9303634944240345e-04  1.8814808208080742e-04  1.8300708539680498e-04  1.7764640567009531e-04  1.7209856779759944e-04  1.6639520512077026e-04  1.6056674483752923e-04  1.5464215017711995e-04  1.4864871844620195e-04  1.4261193235974221e-04  1.3655536076889009e-04  1.3050060398113567e-04  1.2446727830480017e-04  1.1847303419647799e-04  1.1253360239361925e-04  1.0666286262111309e-04  1.0087292981713365e-04  9.5174253281703750e-05  8.9575724669542115e-05  8.4084791291997153e-05  7.8707571734239071e-05  7.3448971312612053e-05  6.8312795379364455e-05  6.3301858918420148e-05  5.8418091262210051e-05  5.3662635094078458e-05  4.9035939184782530e-05  4.4537844547840987e-05  4.0167663890978687e-05  3.5924254394095067e-05  3.1806083963142130e-05  2.7811291198476636e-05  2.3937739380531594e-05  2.0183064818491662e-05  1.6544719929814361e-05  1.3020011397454268e-05  9.6061334931008618e-06  6.3001946499919745e-06  3.0992201676232963e-06  0.0000000000000000e+00  0.0000000000000000e+00  3.6629036416288949e-06  7.4511259327143344e-06  1.1368713950081240e-05  1.5419681231330917e-05  1.9608035870524093e-05  2.3937625142428320e-05  2.8412328788095330e-05  3.3035825541015402e-05  3.7811629869326904e-05  4.2743024354383751e-05  4.7833003510599391e-05  5.3084207848110449e-05  5.8498849463201401e-05  6.4078629024850767e-05  6.9824643575738560e-05  7.5737284738355192e-05  8.1816127057377861e-05  8.8059806384227152e-05  9.4465888440213350e-05  1.0103072798862710e-04  1.0774931941081124e-04  1.1461513992374608e-04  1.2161998720190370e-04  1.2875381377672901e-04  1.3600456127983059e-04  1.4335799836466672e-04  1.5079756696876665e-04  1.5830424244014330e-04  1.6585641391383512e-04  1.7342979213706166e-04  1.8099735263560666e-04  1.8852932263894117e-04  1.9599322045132499e-04  2.0335395576707424e-04  2.1057399899670608e-04  2.1761362643593220e-04  2.2443124650503425e-04  2.3098380987475762e-04  2.3722730336556955e-04  2.4311732387038922e-04  2.4860972457878652e-04  2.5366132147532761e-04  2.5823064372290416e-04  2.6227870758099733e-04  2.6576979004968318e-04  2.6867217601611229e-04  2.7095885149167975e-04  2.7260811583434659e-04  2.7360408781710021e-04  2.7393708391595738e-04  2.7360385220631905e-04  2.7260765140186844e-04  2.7095817147310646e-04  2.6867129943607023e-04  2.6576874079849985e-04  2.6227751329859292e-04  2.5822933456089430e-04  2.5365992882990854e-04  2.4860827986999685e-04  2.4311585743122784e-04  2.3722584349797652e-04  2.3098238209178886e-04  2.2442987299481766e-04  2.1761232573296326e-04  2.1057278584431910e-04  2.0335284116372476e-04  1.9599221183032463e-04  1.8852842416051398e-04  1.8099656554476225e-04  1.7342911518133822e-04  1.6585584375722770e-04  1.5830377408811332e-04  1.5079719416748332e-04  1.4335771396468134e-04  1.3600435756048684e-04  1.2875368272565195e-04  1.2161992074851780e-04  1.1461513012872411e-04  1.0774935861440116e-04  1.0103080892176971e-04  9.4466004303201377e-05  8.8059950897531605e-05  8.1816294489364986e-05  7.5737469914248813e-05  6.9824841871799149e-05  6.4078836351262773e-05  5.8499062238727325e-05  5.3084422969045980e-05  4.7833218316608919e-05  4.2743236595397483e-05  3.7811837668528293e-05  3.3036027258310626e-05  2.8412523106541761e-05  2.3937813567215236e-05  1.9608209221415626e-05  1.5419888061624000e-05  1.1368934470617516e-05  7.4513698197697033e-06  3.6631542149126247e-06  0.0000000000000000e+00  0.0000000000000000e+00  4.2405914839098280e-06  8.6319695898479319e-06  1.3179417886749910e-05  1.7888235448038157e-05  2.2763741457157416e-05  2.7811213229285098e-05  3.3035858531302099e-05  3.8442845698549685e-05  4.4037153170702689e-05  4.9823555569541835e-05  5.5806549818769093e-05  6.1990276236186982e-05  6.8378429793951827e-05  7.4974159329302130e-05  8.1779954256481197e-05  8.8797517994607098e-05  9.6027627436273572e-05  1.0346997797791977e-04  1.1112301389083434e-04  1.1898374415489268e-04  1.2704754432089292e-04  1