<?xml version="1.0"?>
<VTKFile type="UnstructuredGrid"  version="0.1"  >
<UnstructuredGrid>
<Piece  NumberOfPoints="10201" NumberOfCells="20000">
<Points>
<DataArray  type="Float64"  NumberOfComponents="3"  format="ascii">0 0 0  0.01 0 0  0.02 0 0  0.03 0 0  0.04 0 0  0.05 0 0  0.06 0 0  0.07000000000000001 0 0  0.08 0 0  0.09 0 0  0.1 0 0  0.11 0 0  0.12 0 0  0.13 0 0  0.14 0 0  0.15 0 0  0.16 0 0  0.17 0 0  0.18 0 0  0.19 0 0  0.2 0 0  0.21 0 0  0.22 0 0  0.23 0 0  0.24 0 0  0.25 0 0  0.26 0 0  0.27 0 0  0.28 0 0  0.29 0 0  0.3 0 0  0.31 0 0  0.32 0 0  0.33 0 0  0.34 0 0  0.35 0 0  0.36 0 0  0.37 0 0  0.38 0 0  0.39 0 0  0.4 0 0  0.41 0 0  0.42 0 0  0.43 0 0  0.44 0 0  0.45 0 0  0.46 0 0  0.47 0 0  0.48 0 0  0.49 0 0  0.5 0 0  0.51 0 0  0.52 0 0  0.53 0 0  0.54 0 0  0.55 0 0  0.5600000000000001 0 0  0.57 0 0  0.58 0 0  0.59 0 0  0.6 0 0  0.61 0 0  0.62 0 0  0.63 0 0  0.64 0 0  0.65 0 0  0.66 0 0  0.67 0 0  0.68 0 0  0.6899999999999999 0 0  0.7 0 0  0.71 0 0  0.72 0 0  0.73 0 0  0.74 0 0  0.75 0 0  0.76 0 0  0.77 0 0  0.78 0 0  0.79 0 0  0.8 0 0  0.8100000000000001 0 0  0.82 0 0  0.83 0 0  0.84 0 0  0.85 0 0  0.86 0 0  0.87 0 0  0.88 0 0  0.89 0 0  0.9 0 0  0.91 0 0  0.92 0 0  0.93 0 0  0.9399999999999999 0 0  0.95 0 0  0.96 0 0  0.97 0 0  0.98 0 0  0.99 0 0  1 0 0  0 0.01 0  0.01 0.01 0  0.02 0.01 0  0.03 0.01 0  0.04 0.01 0  0.05 0.01 0  0.06 0.01 0  0.07000000000000001 0.01 0  0.08 0.01 0  0.09 0.01 0  0.1 0.01 0  0.11 0.01 0  0.12 0.01 0  0.13 0.01 0  0.14 0.01 0  0.15 0.01 0  0.16 0.01 0  0.17 0.01 0  0.18 0.01 0  0.19 0.01 0  0.2 0.01 0  0.21 0.01 0  0.22 0.01 0  0.23 0.01 0  0.24 0.01 0  0.25 0.01 0  0.26 0.01 0  0.27 0.01 0  0.28 0.01 0  0.29 0.01 0  0.3 0.01 0  0.31 0.01 0  0.32 0.01 0  0.33 0.01 0  0.34 0.01 0  0.35 0.01 0  0.36 0.01 0  0.37 0.01 0  0.38 0.01 0  0.39 0.01 0  0.4 0.01 0  0.41 0.01 0  0.42 0.01 0  0.43 0.01 0  0.44 0.01 0  0.45 0.01 0  0.46 0.01 0  0.47 0.01 0  0.48 0.01 0  0.49 0.01 0  0.5 0.01 0  0.51 0.01 0  0.52 0.01 0  0.53 0.01 0  0.54 0.01 0  0.55 0.01 0  0.5600000000000001 0.01 0  0.57 0.01 0  0.58 0.01 0  0.59 0.01 0  0.6 0.01 0  0.61 0.01 0  0.62 0.01 0  0.63 0.01 0  0.64 0.01 0  0.65 0.01 0  0.66 0.01 0  0.67 0.01 0  0.68 0.01 0  0.6899999999999999 0.01 0  0.7 0.01 0  0.71 0.01 0  0.72 0.01 0  0.73 0.01 0  0.74 0.01 0  0.75 0.01 0  0.76 0.01 0  0.77 0.01 0  0.78 0.01 0  0.79 0.01 0  0.8 0.01 0  0.8100000000000001 0.01 0  0.82 0.01 0  0.83 0.01 0  0.84 0.01 0  0.85 0.01 0  0.86 0.01 0  0.87 0.01 0  0.88 0.01 0  0.89 0.01 0  0.9 0.01 0  0.91 0.01 0  0.92 0.01 0  0.93 0.01 0  0.9399999999999999 0.01 0  0.95 0.01 0  0.96 0.01 0  0.97 0.01 0  0.98 0.01 0  0.99 0.01 0  1 0.01 0  0 0.02 0  0.01 0.02 0  0.02 0.02 0  0.03 0.02 0  0.04 0.02 0  0.05 0.02 0  0.06 0.02 0  0.07000000000000001 0.02 0  0.08 0.02 0  0.09 0.02 0  0.1 0.02 0  0.11 0.02 0  0.12 0.02 0  0.13 0.02 0  0.14 0.02 0  0.15 0.02 0  0.16 0.02 0  0.17 0.02 0  0.18 0.02 0  0.19 0.02 0  0.2 0.02 0  0.21 0.02 0  0.22 0.02 0  0.23 0.02 0  0.24 0.02 0  0.25 0.02 0  0.26 0.02 0  0.27 0.02 0  0.28 0.02 0  0.29 0.02 0  0.3 0.02 0  0.31 0.02 0  0.32 0.02 0  0.33 0.02 0  0.34 0.02 0  0.35 0.02 0  0.36 0.02 0  0.37 0.02 0  0.38 0.02 0  0.39 0.02 0  0.4 0.02 0  0.41 0.02 0  0.42 0.02 0  0.43 0.02 0  0.44 0.02 0  0.45 0.02 0  0.46 0.02 0  0.47 0.02 0  0.48 0.02 0  0.49 0.02 0  0.5 0.02 0  0.51 0.02 0  0.52 0.02 0  0.53 0.02 0  0.54 0.02 0  0.55 0.02 0  0.5600000000000001 0.02 0  0.57 0.02 0  0.58 0.02 0  0.59 0.02 0  0.6 0.02 0  0.61 0.02 0  0.62 0.02 0  0.63 0.02 0  0.64 0.02 0  0.65 0.02 0  0.66 0.02 0  0.67 0.02 0  0.68 0.02 0  0.6899999999999999 0.02 0  0.7 0.02 0  0.71 0.02 0  0.72 0.02 0  0.73 0.02 0  0.74 0.02 0  0.75 0.02 0  0.76 0.02 0  0.77 0.02 0  0.78 0.02 0  0.79 0.02 0  0.8 0.02 0  0.8100000000000001 0.02 0  0.82 0.02 0  0.83 0.02 0  0.84 0.02 0  0.85 0.02 0  0.86 0.02 0  0.87 0.02 0  0.88 0.02 0  0.89 0.02 0  0.9 0.02 0  0.91 0.02 0  0.92 0.02 0  0.93 0.02 0  0.9399999999999999 0.02 0  0.95 0.02 0  0.96 0.02 0  0.97 0.02 0  0.98 0.02 0  0.99 0.02 0  1 0.02 0  0 0.03 0  0.01 0.03 0  0.02 0.03 0  0.03 0.03 0  0.04 0.03 0  0.05 0.03 0  0.06 0.03 0  0.07000000000000001 0.03 0  0.08 0.03 0  0.09 0.03 0  0.1 0.03 0  0.11 0.03 0  0.12 0.03 0  0.13 0.03 0  0.14 0.03 0  0.15 0.03 0  0.16 0.03 0  0.17 0.03 0  0.18 0.03 0  0.19 0.03 0  0.2 0.03 0  0.21 0.03 0  0.22 0.03 0  0.23 0.03 0  0.24 0.03 0  0.25 0.03 0  0.26 0.03 0  0.27 0.03 0  0.28 0.03 0  0.29 0.03 0  0.3 0.03 0  0.31 0.03 0  0.32 0.03 0  0.33 0.03 0  0.34 0.03 0  0.35 0.03 0  0.36 0.03 0  0.37 0.03 0  0.38 0.03 0  0.39 0.03 0  0.4 0.03 0  0.41 0.03 0  0.42 0.03 0  0.43 0.03 0  0.44 0.03 0  0.45 0.03 0  0.46 0.03 0  0.47 0.03 0  0.48 0.03 0  0.49 0.03 0  0.5 0.03 0  0.51 0.03 0  0.52 0.03 0  0.53 0.03 0  0.54 0.03 0  0.55 0.03 0  0.5600000000000001 0.03 0  0.57 0.03 0  0.58 0.03 0  0.59 0.03 0  0.6 0.03 0  0.61 0.03 0  0.62 0.03 0  0.63 0.03 0  0.64 0.03 0  0.65 0.03 0  0.66 0.03 0  0.67 0.03 0  0.68 0.03 0  0.6899999999999999 0.03 0  0.7 0.03 0  0.71 0.03 0  0.72 0.03 0  0.73 0.03 0  0.74 0.03 0  0.75 0.03 0  0.76 0.03 0  0.77 0.03 0  0.78 0.03 0  0.79 0.03 0  0.8 0.03 0  0.8100000000000001 0.03 0  0.82 0.03 0  0.83 0.03 0  0.84 0.03 0  0.85 0.03 0  0.86 0.03 0  0.87 0.03 0  0.88 0.03 0  0.89 0.03 0  0.9 0.03 0  0.91 0.03 0  0.92 0.03 0  0.93 0.03 0  0.9399999999999999 0.03 0  0.95 0.03 0  0.96 0.03 0  0.97 0.03 0  0.98 0.03 0  0.99 0.03 0  1 0.03 0  0 0.04 0  0.01 0.04 0  0.02 0.04 0  0.03 0.04 0  0.04 0.04 0  0.05 0.04 0  0.06 0.04 0  0.07000000000000001 0.04 0  0.08 0.04 0  0.09 0.04 0  0.1 0.04 0  0.11 0.04 0  0.12 0.04 0  0.13 0.04 0  0.14 0.04 0  0.15 0.04 0  0.16 0.04 0  0.17 0.04 0  0.18 0.04 0  0.19 0.04 0  0.2 0.04 0  0.21 0.04 0  0.22 0.04 0  0.23 0.04 0  0.24 0.04 0  0.25 0.04 0  0.26 0.04 0  0.27 0.04 0  0.28 0.04 0  0.29 0.04 0  0.3 0.04 0  0.31 0.04 0  0.32 0.04 0  0.33 0.04 0  0.34 0.04 0  0.35 0.04 0  0.36 0.04 0  0.37 0.04 0  0.38 0.04 0  0.39 0.04 0  0.4 0.04 0  0.41 0.04 0  0.42 0.04 0  0.43 0.04 0  0.44 0.04 0  0.45 0.04 0  0.46 0.04 0  0.47 0.04 0  0.48 0.04 0  0.49 0.04 0  0.5 0.04 0  0.51 0.04 0  0.52 0.04 0  0.53 0.04 0  0.54 0.04 0  0.55 0.04 0  0.5600000000000001 0.04 0  0.57 0.04 0  0.58 0.04 0  0.59 0.04 0  0.6 0.04 0  0.61 0.04 0  0.62 0.04 0  0.63 0.04 0  0.64 0.04 0  0.65 0.04 0  0.66 0.04 0  0.67 0.04 0  0.68 0.04 0  0.6899999999999999 0.04 0  0.7 0.04 0  0.71 0.04 0  0.72 0.04 0  0.73 0.04 0  0.74 0.04 0  0.75 0.04 0  0.76 0.04 0  0.77 0.04 0  0.78 0.04 0  0.79 0.04 0  0.8 0.04 0  0.8100000000000001 0.04 0  0.82 0.04 0  0.83 0.04 0  0.84 0.04 0  0.85 0.04 0  0.86 0.04 0  0.87 0.04 0  0.88 0.04 0  0.89 0.04 0  0.9 0.04 0  0.91 0.04 0  0.92 0.04 0  0.93 0.04 0  0.9399999999999999 0.04 0  0.95 0.04 0  0.96 0.04 0  0.97 0.04 0  0.98 0.04 0  0.99 0.04 0  1 0.04 0  0 0.05 0  0.01 0.05 0  0.02 0.05 0  0.03 0.05 0  0.04 0.05 0  0.05 0.05 0  0.06 0.05 0  0.07000000000000001 0.05 0  0.08 0.05 0  0.09 0.05 0  0.1 0.05 0  0.11 0.05 0  0.12 0.05 0  0.13 0.05 0  0.14 0.05 0  0.15 0.05 0  0.16 0.05 0  0.17 0.05 0  0.18 0.05 0  0.19 0.05 0  0.2 0.05 0  0.21 0.05 0  0.22 0.05 0  0.23 0.05 0  0.24 0.05 0  0.25 0.05 0  0.26 0.05 0  0.27 0.05 0  0.28 0.05 0  0.29 0.05 0  0.3 0.05 0  0.31 0.05 0  0.32 0.05 0  0.33 0.05 0  0.34 0.05 0  0.35 0.05 0  0.36 0.05 0  0.37 0.05 0  0.38 0.05 0  0.39 0.05 0  0.4 0.05 0  0.41 0.05 0  0.42 0.05 0  0.43 0.05 0  0.44 0.05 0  0.45 0.05 0  0.46 0.05 0  0.47 0.05 0  0.48 0.05 0  0.49 0.05 0  0.5 0.05 0  0.51 0.05 0  0.52 0.05 0  0.53 0.05 0  0.54 0.05 0  0.55 0.05 0  0.5600000000000001 0.05 0  0.57 0.05 0  0.58 0.05 0  0.59 0.05 0  0.6 0.05 0  0.61 0.05 0  0.62 0.05 0  0.63 0.05 0  0.64 0.05 0  0.65 0.05 0  0.66 0.05 0  0.67 0.05 0  0.68 0.05 0  0.6899999999999999 0.05 0  0.7 0.05 0  0.71 0.05 0  0.72 0.05 0  0.73 0.05 0  0.74 0.05 0  0.75 0.05 0  0.76 0.05 0  0.77 0.05 0  0.78 0.05 0  0.79 0.05 0  0.8 0.05 0  0.8100000000000001 0.05 0  0.82 0.05 0  0.83 0.05 0  0.84 0.05 0  0.85 0.05 0  0.86 0.05 0  0.87 0.05 0  0.88 0.05 0  0.89 0.05 0  0.9 0.05 0  0.91 0.05 0  0.92 0.05 0  0.93 0.05 0  0.9399999999999999 0.05 0  0.95 0.05 0  0.96 0.05 0  0.97 0.05 0  0.98 0.05 0  0.99 0.05 0  1 0.05 0  0 0.06 0  0.01 0.06 0  0.02 0.06 0  0.03 0.06 0  0.04 0.06 0  0.05 0.06 0  0.06 0.06 0  0.07000000000000001 0.06 0  0.08 0.06 0  0.09 0.06 0  0.1 0.06 0  0.11 0.06 0  0.12 0.06 0  0.13 0.06 0  0.14 0.06 0  0.15 0.06 0  0.16 0.06 0  0.17 0.06 0  0.18 0.06 0  0.19 0.06 0  0.2 0.06 0  0.21 0.06 0  0.22 0.06 0  0.23 0.06 0  0.24 0.06 0  0.25 0.06 0  0.26 0.06 0  0.27 0.06 0  0.28 0.06 0  0.29 0.06 0  0.3 0.06 0  0.31 0.06 0  0.32 0.06 0  0.33 0.06 0  0.34 0.06 0  0.35 0.06 0  0.36 0.06 0  0.37 0.06 0  0.38 0.06 0  0.39 0.06 0  0.4 0.06 0  0.41 0.06 0  0.42 0.06 0  0.43 0.06 0  0.44 0.06 0  0.45 0.06 0  0.46 0.06 0  0.47 0.06 0  0.48 0.06 0  0.49 0.06 0  0.5 0.06 0  0.51 0.06 0  0.52 0.06 0  0.53 0.06 0  0.54 0.06 0  0.55 0.06 0  0.5600000000000001 0.06 0  0.57 0.06 0  0.58 0.06 0  0.59 0.06 0  0.6 0.06 0  0.61 0.06 0  0.62 0.06 0  0.63 0.06 0  0.64 0.06 0  0.65 0.06 0  0.66 0.06 0  0.67 0.06 0  0.68 0.06 0  0.6899999999999999 0.06 0  0.7 0.06 0  0.71 0.06 0  0.72 0.06 0  0.73 0.06 0  0.74 0.06 0  0.75 0.06 0  0.76 0.06 0  0.77 0.06 0  0.78 0.06 0  0.79 0.06 0  0.8 0.06 0  0.8100000000000001 0.06 0  0.82 0.06 0  0.83 0.06 0  0.84 0.06 0  0.85 0.06 0  0.86 0.06 0  0.87 0.06 0  0.88 0.06 0  0.89 0.06 0  0.9 0.06 0  0.91 0.06 0  0.92 0.06 0  0.93 0.06 0  0.9399999999999999 0.06 0  0.95 0.06 0  0.96 0.06 0  0.97 0.06 0  0.98 0.06 0  0.99 0.06 0  1 0.06 0  0 0.07000000000000001 0  0.01 0.07000000000000001 0  0.02 0.07000000000000001 0  0.03 0.07000000000000001 0  0.04 0.07000000000000001 0  0.05 0.07000000000000001 0  0.06 0.07000000000000001 0  0.07000000000000001 0.07000000000000001 0  0.08 0.07000000000000001 0  0.09 0.07000000000000001 0  0.1 0.07000000000000001 0  0.11 0.07000000000000001 0  0.12 0.07000000000000001 0  0.13 0.07000000000000001 0  0.14 0.07000000000000001 0  0.15 0.07000000000000001 0  0.16 0.07000000000000001 0  0.17 0.0700
[...]
<PointData  Scalars="Indicator Function"> 
<DataArray  type="Float64"  Name="Indicator Function"  format="ascii">-2.4074124304840448e-35  -5.9247527968839563e-20  2.8693884603258915e-20  1.2368121127526948e-19  3.3260273271832831e-19  -3.2211363727804548e-20  -2.7560599177254181e-20  6.5633437415259997e-19  8.5560384913049196e-19  3.7615819226313200e-37  4.4214822687555969e-18  1.8544465681699301e-18  -3.4788680166409445e-20  -3.4186891850126926e-20  8.2476916219519486e-18  -8.9559408921753892e-21  -7.2628588946777387e-22  2.0268246268516811e-18  -3.4972590152722712e-20  -1.5046327690525280e-35  6.3596804442826977e-18  6.0185310762101120e-36  -3.6992930541919907e-20  1.0968546406319115e-17  -4.8794510654816449e-20  -2.4617657894315211e-20  -1.8494080280723139e-20  -4.3440332458535336e-20  4.1204618531952224e-17  -1.6834556974372187e-20  -7.6007794184297471e-20  -2.7583295817800004e-20  -4.5559337563440295e-20  -2.3080458474116460e-20  9.9457678653631696e-18  -8.2662133985506686e-20  -1.1414192735651135e-19  -1.3166711548391356e-19  -1.3754836211969878e-19  -1.3470932525703098e-19  9.1148260269915259e-18  -7.0997549020562650e-20  -2.4024579903730582e-20  -3.0668154208816951e-20  -2.4729510430905409e-20  -2.1110783022178382e-20  2.2527731318654646e-17  -1.4997223492279644e-20  -9.7361978927299314e-21  -5.9743949145092589e-21  -2.3112244767055151e-20  -1.1556122383527581e-20  -8.5684432045775630e-21  -1.1493081347320239e-20  -8.9779774638313399e-21  -2.2099218256333273e-21  3.2823615823725775e-19  -9.4039548065783001e-38  -9.4039548065783001e-38  4.7019774032891500e-38  -9.4039548065783001e-38  -1.4989854523548420e-22  -1.8449338333284584e-23  0.0000000000000000e+00  -8.0742961321322837e-23  -1.4849816305226869e-22  9.4039548065783001e-38  -8.8122165047823033e-23  -1.7335159811231859e-20  -4.8224300406105637e-25  -3.6628443054076854e-24  -1.4061632294801906e-23  -9.4457081510060220e-23  -1.4132743187435636e-22  -5.8774717541114375e-38  -3.3811059260756918e-24  -4.7564657175164210e-23  -1.2278026293706447e-22  -4.9498967174741183e-23  -5.5593793517513186e-22  -7.1828400013192487e-22  4.6952505422162200e-20  -1.2091741668515293e-22  -3.5076908098140203e-22  -5.2217735484718516e-22  -4.0125433034068629e-22  -1.0817538740187315e-22  -4.7717932521269223e-23  -7.9702102102562166e-23  -1.7007517292812635e-22  -2.8915784990992505e-22  -2.6946355715223616e-22  -1.9693250947927879e-22  -5.8970520144255962e-21  -8.5132950210318685e-23  -2.7293851761634442e-23  -1.7722037986169708e-23  -4.4377035469068947e-24  -1.4125419252524200e-23  -1.2803197207649362e-24  -5.8774717541114375e-39  -3.0706847769039420e-20  4.9129896569305215e-04  2.2095660913200131e-04  1.3328818384327626e-04  3.4237932414460967e-04  2.5369941004898774e-04  4.5341863770205037e-04  2.6977829788813373e-04  6.7251532994023198e-04  8.2800778540617588e-05  6.0686065053812351e-06  4.1921651303783507e-04  7.0349930076558139e-04  2.7494749775382107e-04  4.7838254471183560e-04  2.0698270615395124e-04  5.7844535182037383e-05  7.3123235463563255e-04  1.3139541568497792e-04  6.3001017591993234e-04  1.5251414699378238e-04  3.1834966845172393e-04  1.8273686192296697e-04  5.7503696185425327e-04  2.3442589988734402e-04  8.8694459935657812e-04  6.6631946448659834e-04  8.4318380816190313e-04  3.6095955621148664e-04  6.0652883613383931e-04  7.5088345625813591e-04  9.9379296613355387e-04  6.2370422629318839e-04  5.0887194954923117e-04  1.6134460195966425e-04  6.8483497592606592e-04  1.1466911352960782e-03  1.4828525983924996e-03  1.6304775897249544e-03  1.6626122146883122e-03  1.5954013607794269e-03  1.2675541764119948e-03  6.4520105304689997e-04  4.3278835640869485e-04  3.3607417326352821e-04  7.6059611641749077e-04  6.1132884978102871e-04  5.4033192105138123e-04  3.5078349761363136e-04  1.1312754304876194e-04  1.0762513084299228e-04  4.1635318768242109e-04  5.7696266841326953e-05  1.2550721707245958e-04  1.4428733895629101e-04  8.9589194364460614e-05  6.4530347303512359e-05  3.6480848781919135e-05  1.7563020368250050e-05  7.3938732034578992e-06  5.0966866423103007e-06  5.4163807038126666e-06  6.6470746594409905e-07  7.2676225022988372e-07  2.3521344799290305e-06  5.3502101742992007e-06  2.7057310949075510e-06  9.9125397984993154e-08  1.9046360797887643e-06  1.2207595799169208e-06  8.6873176535671236e-09  6.1640278169015291e-08  3.4031750167296929e-06  2.7539140319066490e-06  2.5459286781063222e-06  1.2181717911019790e-07  1.1119983075852394e-07  8.5684868932030086e-07  1.7833882409871092e-06  3.4117392889114126e-06  8.3090178663276796e-06  8.7849452881974352e-06  4.3565090618068627e-06  1.6583548499305338e-06  5.4897165846384656e-06  6.6618526705251420e-06  3.8974290751498789e-06  2.5379207087075732e-07  7.3271381705133594e-07  1.0694285207933099e-06  2.5290876812996753e-06  3.9444608997725311e-06  2.8819934524366904e-06  2.7257106259772265e-06  1.3551871441637403e-06  8.5602531929469831e-07  1.1965798958001327e-06  1.5988512032184464e-07  4.1666510437932757e-07  4.6128379338816262e-08  -6.8707229359411442e-24  -1.4007854264586735e-20  5.5316539268147370e-04  1.4326541994401988e-04  1.0125487099052140e-04  9.6834123279614254e-06  3.7897601320753825e-04  5.0724812985487205e-04  6.1919993644572106e-04  7.3998809750115810e-04  3.9712863023650865e-06  3.1745155700668736e-04  4.2348485345584529e-04  5.4951008681086960e-04  9.7950835448530746e-04  7.8805028397599993e-04  5.3720217435575485e-04  1.1799530117491636e-03  2.1251051586083540e-05  5.2946634044682246e-04  8.7170753572099458e-04  4.1140062228169777e-04  1.5035182275283717e-03  9.7929873546791051e-04  1.6290296207544974e-03  9.0819830323718507e-04  1.1404679890999470e-03  3.6916203113841681e-05  3.5818030042161141e-04  1.6510566844653719e-03  1.1290758256967039e-03  1.4173666830655539e-04  1.6308270450148558e-03  1.7744223974661832e-04  1.1546066012532482e-03  5.8288993329342741e-04  7.1507346113598453e-04  1.4415555138924385e-03  1.9125699743426734e-03  2.2431789179688400e-03  2.3587424617199774e-03  2.2988523220563747e-03  2.0848948510812327e-03  1.5249749966078743e-03  3.0848844110900186e-04  1.0242728145173675e-03  8.9439035445848178e-04  7.7000691431405128e-04  1.1240197450083673e-03  9.1348066106077431e-04  2.2698070789543256e-04  3.9269224436976150e-04  5.3674310790498747e-04  3.4343417846733926e-04  3.5364095533804452e-04  1.7092290746220174e-04  1.4049679613761635e-04  7.5332756721359066e-05  7.4660926662694041e-05  3.4795654934048605e-05  1.7247293449689742e-05  1.1977659489496280e-05  2.8075193400505870e-06  3.7843706492995446e-06  5.9039956614680712e-06  1.1835598425828730e-05  6.1207235471265218e-06  4.4811621165324889e-07  6.2559349747230296e-06  5.3479676378510111e-06  2.5197541561158628e-06  3.3371531408917568e-07  1.8433919379487187e-06  1.3206855343550759e-06  4.6672828269295131e-06  8.0856808507643957e-07  2.2539231550058754e-06  6.6772859364358309e-06  2.6500036228291193e-06  4.3522584282279080e-06  2.1569413745404854e-06  1.0084604421341794e-05  1.0033671383144839e-05  1.0271528457133088e-05  6.9389662723057950e-07  8.0783081757920003e-06  7.0580514534526749e-06  4.7228106973241985e-06  2.3917816486773858e-06  1.7740557844135876e-06  3.6542646181565661e-06  5.9602359389304624e-07  4.9108422181625771e-06  5.9531186011204530e-06  2.8915695823669571e-06  2.0359371443144202e-06  1.7577402573654800e-06  1.3516932669339290e-06  1.8699368354060780e-06  1.1830696108780390e-06  2.7662587047649527e-09  -2.2007434997928959e-22  -2.2217795076237109e-20  2.5234306898501283e-04  4.4875493848689951e-04  5.5502402179405811e-05  4.6817917946726130e-04  6.7953479970229503e-04  5.8653923136073251e-04  8.0500087120009963e-04  1.9119671669891373e-04  1.3242531812900922e-03  4.8241841864156106e-04  3.3149206271634373e-06  1.0278108561515467e-03  1.1319674798129754e-03  1.4013471045953881e-04  1.0805040547958997e-03  2.9301155408110882e-04  4.3446405080433119e-04  1.3821299393618170e-03  7.6022292651435391e-04  1.6967131326923060e-03  5.1705313569012207e-04  1.1375368406519181e-03  3.9870332242469679e-04  1.6844208698107842e-03  1.4309629440269096e-03  2.3308176423445215e-03  1.9344952729981083e-03  1.8055707089064551e-03  8.2503113307491474e-04  2.0305524998099215e-03  1.7143192881492000e-03  2.0011623159023172e-03  2.0308222703776433e-03  9.6535125550442169e-04  3.0949326570262556e-05  1.6777837777069487e-03  2.0260570419618693e-03  2.4384602104773586e-03  2.6610045391209725e-03  2.7179511447434088e-03  2.5727311370080286e-03  1.9259318539803195e-03  9.4422161054218178e-04  1.1974598505468718e-03  6.3420629656594856e-04  2.1763053876895392e-03  1.4300545952651727e-03  9.3577068161393093e-04  6.7299439798758885e-04  4.6761886915689662e-04  4.5037173912668697e-04  1.0464826243368971e-03  2.9777360781809006e-04  3.5958090476177030e-04  1.5938986613509555e-04  5.3227731593055888e-05  7.2957087718409562e-05  6.4204138403644567e-05  3.0924714890548158e-05  1.4030767477882602e-05  1.2665372370716191e-05  5.3841208571803159e-06  3.2605622804677821e-07  2.1471248381523794e-06  6.0479614645578689e-06  2.7528424809026844e-06  5.3638228133047225e-06  6.5372639914239209e-06  1.5146541113864331e-06  5.7891207159782615e-07  5.4840712374551850e-07  9.5564831684033439e-08  6.1780437823398277e-06  2.3861613359292084e-06  3.1195566163996949e-06  1.2187333652783834e-06  4.9374245692210578e-06  1.6874238527068408e-06  5.3344754422198304e-06  8.6567739321484109e-06  1.3743250578394950e-05  1.0448309881337977e-05  5.1197997472218893e-06  6.9559744247132639e-06  1.0130958394654875e-05  6.3862446061589078e-06  2.9315837070397240e-06  6.9842229961961588e-07  3.0356854424812658e-06  2.6875389062699333e-06  2.1534535350548563e-06  7.0325431155758941e-06  5.2660491979044928e-06  2.3810858646308446e-06  2.0923868440413312e-06  1.1287100489093175e-06  1.1584531152133643e-06  1.9815657659689053e-06  6.9996478769560900e-07  -9.7139627965815497e-23  -1.8840114389682567e-20  4.0024021450534258e-04  5.4109660668275961e-04  5.5459851786008350e-05  1.4398198408658693e-04  4.8808065206355897e-04  7.2441468537169694e-04  1.1189206276696455e-03  1.0040036226331135e-03  6.2636377767736544e-04  1.4483364571208046e-04  2.2960240658624232e-04  3.2291235679567277e-04  8.7018425460269925e-04  1.5109318500341716e-03  5.0104085783591191e-04  7.3398843465278586e-04  1.6308538498418159e-03  4.1456816731277998e-04  1.2193453009342317e-03  5.3156500077624063e-04  2.9527656463426466e-04  1.9120803549596164e-03  1.5122726225342928e-03  2.2714618012710497e-03  1.1212317044221500e-03  1.1313480586009424e-03  6.2125918011004502e-04  1.4672947857774826e-03  3.0992296088984202e-03  1.7597268503622861e-03  8.3339420944961141e-04  3.0018331342147428e-03  4.7250453366710687e-04  2.5637382360792545e-03  6.9666316173019069e-04  1.2219919536230897e-03  2.2568578587737523e-03  2.5113135106033225e-03  2.8388329629302229e-03  2.9575004681812300e-03  2.8839953425091247e-03  2.6254554343291747e-03  1.7756290512239280e-03  7.1527556677209283e-04  1.7848226919361635e-03  1.4729730502627658e-03  1.8040963029570417e-03  2.5871035404552759e-03  2.0219738639697519e-03  8.7247888325573363e-04  3.0740662530943827e-04  6.7568963034913784e-04  7.0820765151783987e-04  7.7123280842393040e-04  2.4863990909189962e-04  9.5248294201735775e-05  3.8171071079298159e-06  7.6815884108631237e-05  4.4537236276178965e-05  2.3505331140205300e-05  1.5628109050370706e-05  6.3031540639762944e-06  8.1748802628271260e-06  1.5113199171109131e-07  8.4019206749578767e-06  3.5744518437038130e-06  4.3617236235581353e-06  4.7300735787972971e-07  2.0414790455650256e-06  7.8758256085991456e-07  2.4388375398690073e-06  5.8386924721578076e-06  4.5191717645948784e-06  6.3095884707759156e-06  7.2149563281108712e-07  1.7248604836066017e-06  6.7194397828220506e-06  2.5132285384156775e-06  1.3880119816519618e-07  1.4346685453349636e-06  1.5681045960723337e-05  1.4005566382835377e-05  8.6121406386216929e-06  1.2039115003991876e-06  1.2108159611270139e-05  9.9408299294350558e-06  3.1523239507404450e-06  4.4973491431503540e-07  1.8613230866599439e-06  4.2341869767832482e-06  1.5107319064469707e-06  4.3626257915476631e-06  6.8933022860495537e-06  4.5342451896956843e-06  1.0975045370483856e-06  2.0874248264147084e-06  1.9106455284008536e-06  1.2750464110583633e-06  1.4321679696757963e-06  2.8431562204133425e-22  -1.9349481872895803e-20  3.3939332857996750e-04  5.6400540722303689e-04  8.8850806109947356e-04  1.2535719621707171e-04  4.9787995157441920e-04  6.0435936932702139e-04  5.7176906556062515e-04  1.2417087476454202e-03  3.9335499720583869e-04  1.6531256775517129e-03  9.2113326018314280e-04  1.3137746056269498e-04  1.3163895598292670e-03  1.2527860303240496e-03  3.0237836794793732e-04  1.2874441510747296e-03  9.8252659528479894e-04  1.1193702327101929e-03  1.2606921560038616e-03  8.2015986393613389e-04  2.1759494561099145e-03  1.1514437590604690e-03  2.0061957986595540e-03  1.2156580090745734e-03  2.7297205190780264e-03  2.4409433359100477e-03  3.3196312047340045e-03  2.5111933498994953e-03  1.8546848298878597e-03  1.7238735815769378e-03  3.3175816781477545e-03  2.0730609190118677e-03  3.2829426214895834e-03  2.7319141573484249e-03  1.7640838075057683e-03  6.5834466252469759e-05  2.4173502590842592e-03  2.6694954971434683e-03  2.9490859335624489e-03  3.1602395227547588e-03  3.2143564025350906e-03  3.0291498190556636e-03  2.2563501783921481e-03  1.0600624303871494e-03  1.9643950035080648e-03  1.1444029649400271e-03  3.3664321846440435e-03  1.4606464290976169e-03  3.1895390848984067e-04  1.8378158387011623e-04  3.4443218745667706e-04  7.6031596514625438e-04  1.5065181006606663e-03  2.8028214537739076e-04  7.0483150425883938e-04  1.6046226244013383e-04  1.1000236313409745e-05  2.6631041623869624e-05  6.9820799836704768e-05  3.2432411310258500e-05  1.7127764866626602e-05  1.2416440066950826e-05  5.6644468031823340e-06  4.0215003085638989e-06  5.6719486584453707e-06  1.5285308391945442e-06  2.5569557281429683e-06  5.6597699653372434e-06  3.0915006520496444e-06  9.6297259326233747e-07  3.7600800831017482e-06  4.3463553519896698e-06  4.2320975280625797e-06  1.7979727089442847e-06  7.4319645328741721e-07  4.4317723260070189e-07  3.5028208667717193e-06  5.3180345462177454e-06  3.1571968639518742e-06  8.2873087447166731e-07  5.7713290276171089e-06  1.8526757900569755e-05  1.4012891691416105e-05  3.4860877755208192e-06  1.0191057004068522e-05  1.2043424951471823e-05  6.3098187358258224e-06  1.2151472512836785e-06  3.1648215818018399e-06  3.7585506797443071e-06  2.0540590844226747e-06  3.1910370869763817e-06  6.6637192174426916e-06  5.3006138593398102e-06  2.6658120046818711e-06  1.2725695632253056e-06  1.7009555449172416e-06  8.1672598916802105e-07  1.2165210498351482e-06  -6.7530483973407437e-23  -9.2010616598440756e-21  3.4856927741034287e-04  6.0515740345594925e-04  4.9271415801390426e-04  6.0813249180630125e-04  2.2031988742951677e-04  5.7198081526518960e-04  1.0531668470913529e-03  1.4424096521551955e-03  1.2964154206454193e-03  5.5700105643960104e-04  5.0780587444797167e-04  1.7343702373603777e-04  2.8809656932781254e-04  1.3364081000461657e-03  1.8170621063266000e-03  2.4701868159744667e-04  5.4038920745399838e-04  1.3124512950586701e-03  1.9053881143931908e-04  1.6133111682873765e-03  8.2593948893397844e-05  2.3895508628113868e-04  1.5449056005804988e-03  1.2827741861613277e-03  2.1231143538805253e-03  6.4623922358994653e-04  5.4334964439025854e-04  1.4650989175336480e-03  2.3870552749093287e-03  4.0956170565948236e-03  1.8085400119555873e-03  1.9068569552172321e-03  4.0653730327884340e-03  1.0610931884180730e-03  3.8038148245413974e-03  9.9515931863257976e-04  1.5427196803158721e-03  3.0998017071118423e-03  3.1045964417593091e-03  3.3512798525191707e-03  3.4610771008465324e-03  3.3855970477777828e-03  3.0706305887982679e-03  1.9343054893726215e-03  9.3046906673629635e-04  2.6639764852316858e-03  1.7172453176313288e-03  2.9439145138045911e-03  3.3963135461432042e-03  2.3317508487834078e-03  1.1242961598453983e-03  1.0188474777905722e-04  4.9899118871528294e-04  1.1466645987664992e-03  9.9955345685093862e-04  4.3568142729740047e-04  5.0446097094001219e-05  6.9218354569888804e-05  6.2767720474928243e-05  5.5814816413380122e-05  2.6787877013485769e-05  1.7746614932920704e-05  7.8748612120255466e-06  4.2859764052569025e-06  4.4610306052066368e-07  2.9413658671756093e-06  2.2574060289019893e-06  1.7398477368591489e-06  5.1669337456007068e-06  3.9196476107506817e-07  3.3936609925654637e-06  4.5332606547845178e-06  1.3875450235279690e-06  2.2811237334582940e-06  7.6642745269911710e-07  3.9677897068858593e-06  1.6849803100377280e-06  6.5502236840924032e-06  7.2574341734148458e-06  4.3211886722610426e-06  5.1909525695174839e-06  1.3335087823917584e-05  1.8043371531809451e-05  1.0476190652960336e-05  4.5612454940822483e-06  1.6654831761569474e-05  1.1155982309078913e-05  2.2726221964727737e-06  2.3067984139575294e-06  3.6825834377677562e-06  3.7562408570051055e-06  4.4651443608224255e-07  5.8424626191661104e-06  5.7881872984978531e-06  4.2193581168074188e-06  1.8930509237050400e-06  8.7282570326993923e-07  2.3748802885119437e-06  1.0840873552116876e-06  -6.0178937123050115e-23  -1.9544603527127105e-20  1.6575159145074708e-04  4.6736922199319518e-04  7.8458331323144040e-04  8.2185088362007744e-04  6.2447718595628145e-05  6.2885477452201042e-04  3.6377086849869545e-04  2.7695554461607967e-04  1.6424038787154422e-03  6.2474508698383507e-04  1.5980806444495332e-03  8.9716972853057025e-04  3.6300300340398800e-05  1.3436194650628551e-03  1.5506064826807829e-03  6.2369218127835736e-04  1.0712923650390189e-03  1.0925422585156401e-03  1.3568286781112725e-03  1.0969144785939475e-03  3.8472594780741907e-04  1.9335119899736414e-03  9.4463637930809123e-04  2.1957164031624699e-03  1.3944379888565575e-03  3.0606577373239819e-03  2.5766451572676687e-03  3.4235723215954653e-03  2.3279871633895286e-03  1.4296502580625793e-03  2.6728186031647169e-03  4.0129272457375721e-03  1.9729170645434650e-03  4.6297409674617490e-03  3.0003244419034118e-03  2.9446242929208797e-03  1.1481933293151387e-04  2.9764120824299933e-03  3.5110160303731697e-03  3.5698671031442969e-03  3.7217890627940149e-03  3.7645679603104990e-03  3.5459042248987154e-03  2.6262758420070378e-03  1.0762144283158019e-03  2.5525130786680540e-03  1.7564004723531182e-03  4.1463715274962431e-03  1.0723896413561912e-03  4.8584703665311899e-04  4.7713144262836912e-04  1.4615522743023984e-04  6.4984182313568739e-04  1.6249563327812230e-03  4.7444611297065283e-05  1.0481783003411069e-03  2.1764577178537146e-04  7.5494386723328957e-05  4.3947962458430456e-05  6.9802460291531351e-05  4.1143135277107403e-05  2.3585711228586315e-05  1.3762508563508966e-05  1.0400362903246469e-05  1.0237556964842098e-06  6.0033695276646008e-06  9.4580224874127853e-06  1.3695084378530737e-05  5.9600426002435572e-08  3.7904265956122038e-06  7.9245056824504887e-06  4.3105109418342151e-06  4.8305465204876842e-06  1.9090824466236091e-06  4.7825107968926797e-06  3.0563771188590645e-07  4.0385443484933271e-06  5.6476816023662580e-06  3.9047414774732327e-06  8.0545219673089607e-06  6.1926501456202974e-07  1.1809069992890769e-05  1.8888201361978933e-05  1.6035413575380731e-05  4.3522384802806223e-06  1.3827853264584788e-05  1.7390968211561331e-05  5.6136396784757344e-06  1.7048823717674206e-06  4.3439015060591866e-06  5.2740103626086626e-06  8.9035692648221195e-07  2.1626789655480620e-06  7.8717050940543046e-06  4.8535653074437479e-06  2.4007950264635489e-06  2.1902415586715273e-06  1.4257028660504836e-06  1.0885264776592388e-06  -1.5106339480142596e-22  -9.7538718734956701e-21  3.5208427664749578e-04  5.7211008418677032e-04  6.4930227821869563e-04  5.8367786812190618e-04  9.2695386276658636e-04  1.0093085895280545e-04  4.6410210097421714e-04  9.5534547490646791e-04  1.4595085956733229e-03  1.6551606173726260e-03  7.1469703852318001e-04  5.3952839193605127e-04  4.5925621517387715e-04  3.6115463969024536e-04  1.6011594751573599e-03  2.0061917721840017