<?xml version="1.0"?>
<VTKFile type="UnstructuredGrid"  version="0.1"  >
<UnstructuredGrid>
<Piece  NumberOfPoints="10201" NumberOfCells="20000">
<Points>
<DataArray  type="Float64"  NumberOfComponents="3"  format="ascii">0 0 0  0.01 0 0  0.02 0 0  0.03 0 0  0.04 0 0  0.05 0 0  0.06 0 0  0.07000000000000001 0 0  0.08 0 0  0.09 0 0  0.1 0 0  0.11 0 0  0.12 0 0  0.13 0 0  0.14 0 0  0.15 0 0  0.16 0 0  0.17 0 0  0.18 0 0  0.19 0 0  0.2 0 0  0.21 0 0  0.22 0 0  0.23 0 0  0.24 0 0  0.25 0 0  0.26 0 0  0.27 0 0  0.28 0 0  0.29 0 0  0.3 0 0  0.31 0 0  0.32 0 0  0.33 0 0  0.34 0 0  0.35 0 0  0.36 0 0  0.37 0 0  0.38 0 0  0.39 0 0  0.4 0 0  0.41 0 0  0.42 0 0  0.43 0 0  0.44 0 0  0.45 0 0  0.46 0 0  0.47 0 0  0.48 0 0  0.49 0 0  0.5 0 0  0.51 0 0  0.52 0 0  0.53 0 0  0.54 0 0  0.55 0 0  0.5600000000000001 0 0  0.57 0 0  0.58 0 0  0.59 0 0  0.6 0 0  0.61 0 0  0.62 0 0  0.63 0 0  0.64 0 0  0.65 0 0  0.66 0 0  0.67 0 0  0.68 0 0  0.6899999999999999 0 0  0.7 0 0  0.71 0 0  0.72 0 0  0.73 0 0  0.74 0 0  0.75 0 0  0.76 0 0  0.77 0 0  0.78 0 0  0.79 0 0  0.8 0 0  0.8100000000000001 0 0  0.82 0 0  0.83 0 0  0.84 0 0  0.85 0 0  0.86 0 0  0.87 0 0  0.88 0 0  0.89 0 0  0.9 0 0  0.91 0 0  0.92 0 0  0.93 0 0  0.9399999999999999 0 0  0.95 0 0  0.96 0 0  0.97 0 0  0.98 0 0  0.99 0 0  1 0 0  0 0.01 0  0.01 0.01 0  0.02 0.01 0  0.03 0.01 0  0.04 0.01 0  0.05 0.01 0  0.06 0.01 0  0.07000000000000001 0.01 0  0.08 0.01 0  0.09 0.01 0  0.1 0.01 0  0.11 0.01 0  0.12 0.01 0  0.13 0.01 0  0.14 0.01 0  0.15 0.01 0  0.16 0.01 0  0.17 0.01 0  0.18 0.01 0  0.19 0.01 0  0.2 0.01 0  0.21 0.01 0  0.22 0.01 0  0.23 0.01 0  0.24 0.01 0  0.25 0.01 0  0.26 0.01 0  0.27 0.01 0  0.28 0.01 0  0.29 0.01 0  0.3 0.01 0  0.31 0.01 0  0.32 0.01 0  0.33 0.01 0  0.34 0.01 0  0.35 0.01 0  0.36 0.01 0  0.37 0.01 0  0.38 0.01 0  0.39 0.01 0  0.4 0.01 0  0.41 0.01 0  0.42 0.01 0  0.43 0.01 0  0.44 0.01 0  0.45 0.01 0  0.46 0.01 0  0.47 0.01 0  0.48 0.01 0  0.49 0.01 0  0.5 0.01 0  0.51 0.01 0  0.52 0.01 0  0.53 0.01 0  0.54 0.01 0  0.55 0.01 0  0.5600000000000001 0.01 0  0.57 0.01 0  0.58 0.01 0  0.59 0.01 0  0.6 0.01 0  0.61 0.01 0  0.62 0.01 0  0.63 0.01 0  0.64 0.01 0  0.65 0.01 0  0.66 0.01 0  0.67 0.01 0  0.68 0.01 0  0.6899999999999999 0.01 0  0.7 0.01 0  0.71 0.01 0  0.72 0.01 0  0.73 0.01 0  0.74 0.01 0  0.75 0.01 0  0.76 0.01 0  0.77 0.01 0  0.78 0.01 0  0.79 0.01 0  0.8 0.01 0  0.8100000000000001 0.01 0  0.82 0.01 0  0.83 0.01 0  0.84 0.01 0  0.85 0.01 0  0.86 0.01 0  0.87 0.01 0  0.88 0.01 0  0.89 0.01 0  0.9 0.01 0  0.91 0.01 0  0.92 0.01 0  0.93 0.01 0  0.9399999999999999 0.01 0  0.95 0.01 0  0.96 0.01 0  0.97 0.01 0  0.98 0.01 0  0.99 0.01 0  1 0.01 0  0 0.02 0  0.01 0.02 0  0.02 0.02 0  0.03 0.02 0  0.04 0.02 0  0.05 0.02 0  0.06 0.02 0  0.07000000000000001 0.02 0  0.08 0.02 0  0.09 0.02 0  0.1 0.02 0  0.11 0.02 0  0.12 0.02 0  0.13 0.02 0  0.14 0.02 0  0.15 0.02 0  0.16 0.02 0  0.17 0.02 0  0.18 0.02 0  0.19 0.02 0  0.2 0.02 0  0.21 0.02 0  0.22 0.02 0  0.23 0.02 0  0.24 0.02 0  0.25 0.02 0  0.26 0.02 0  0.27 0.02 0  0.28 0.02 0  0.29 0.02 0  0.3 0.02 0  0.31 0.02 0  0.32 0.02 0  0.33 0.02 0  0.34 0.02 0  0.35 0.02 0  0.36 0.02 0  0.37 0.02 0  0.38 0.02 0  0.39 0.02 0  0.4 0.02 0  0.41 0.02 0  0.42 0.02 0  0.43 0.02 0  0.44 0.02 0  0.45 0.02 0  0.46 0.02 0  0.47 0.02 0  0.48 0.02 0  0.49 0.02 0  0.5 0.02 0  0.51 0.02 0  0.52 0.02 0  0.53 0.02 0  0.54 0.02 0  0.55 0.02 0  0.5600000000000001 0.02 0  0.57 0.02 0  0.58 0.02 0  0.59 0.02 0  0.6 0.02 0  0.61 0.02 0  0.62 0.02 0  0.63 0.02 0  0.64 0.02 0  0.65 0.02 0  0.66 0.02 0  0.67 0.02 0  0.68 0.02 0  0.6899999999999999 0.02 0  0.7 0.02 0  0.71 0.02 0  0.72 0.02 0  0.73 0.02 0  0.74 0.02 0  0.75 0.02 0  0.76 0.02 0  0.77 0.02 0  0.78 0.02 0  0.79 0.02 0  0.8 0.02 0  0.8100000000000001 0.02 0  0.82 0.02 0  0.83 0.02 0  0.84 0.02 0  0.85 0.02 0  0.86 0.02 0  0.87 0.02 0  0.88 0.02 0  0.89 0.02 0  0.9 0.02 0  0.91 0.02 0  0.92 0.02 0  0.93 0.02 0  0.9399999999999999 0.02 0  0.95 0.02 0  0.96 0.02 0  0.97 0.02 0  0.98 0.02 0  0.99 0.02 0  1 0.02 0  0 0.03 0  0.01 0.03 0  0.02 0.03 0  0.03 0.03 0  0.04 0.03 0  0.05 0.03 0  0.06 0.03 0  0.07000000000000001 0.03 0  0.08 0.03 0  0.09 0.03 0  0.1 0.03 0  0.11 0.03 0  0.12 0.03 0  0.13 0.03 0  0.14 0.03 0  0.15 0.03 0  0.16 0.03 0  0.17 0.03 0  0.18 0.03 0  0.19 0.03 0  0.2 0.03 0  0.21 0.03 0  0.22 0.03 0  0.23 0.03 0  0.24 0.03 0  0.25 0.03 0  0.26 0.03 0  0.27 0.03 0  0.28 0.03 0  0.29 0.03 0  0.3 0.03 0  0.31 0.03 0  0.32 0.03 0  0.33 0.03 0  0.34 0.03 0  0.35 0.03 0  0.36 0.03 0  0.37 0.03 0  0.38 0.03 0  0.39 0.03 0  0.4 0.03 0  0.41 0.03 0  0.42 0.03 0  0.43 0.03 0  0.44 0.03 0  0.45 0.03 0  0.46 0.03 0  0.47 0.03 0  0.48 0.03 0  0.49 0.03 0  0.5 0.03 0  0.51 0.03 0  0.52 0.03 0  0.53 0.03 0  0.54 0.03 0  0.55 0.03 0  0.5600000000000001 0.03 0  0.57 0.03 0  0.58 0.03 0  0.59 0.03 0  0.6 0.03 0  0.61 0.03 0  0.62 0.03 0  0.63 0.03 0  0.64 0.03 0  0.65 0.03 0  0.66 0.03 0  0.67 0.03 0  0.68 0.03 0  0.6899999999999999 0.03 0  0.7 0.03 0  0.71 0.03 0  0.72 0.03 0  0.73 0.03 0  0.74 0.03 0  0.75 0.03 0  0.76 0.03 0  0.77 0.03 0  0.78 0.03 0  0.79 0.03 0  0.8 0.03 0  0.8100000000000001 0.03 0  0.82 0.03 0  0.83 0.03 0  0.84 0.03 0  0.85 0.03 0  0.86 0.03 0  0.87 0.03 0  0.88 0.03 0  0.89 0.03 0  0.9 0.03 0  0.91 0.03 0  0.92 0.03 0  0.93 0.03 0  0.9399999999999999 0.03 0  0.95 0.03 0  0.96 0.03 0  0.97 0.03 0  0.98 0.03 0  0.99 0.03 0  1 0.03 0  0 0.04 0  0.01 0.04 0  0.02 0.04 0  0.03 0.04 0  0.04 0.04 0  0.05 0.04 0  0.06 0.04 0  0.07000000000000001 0.04 0  0.08 0.04 0  0.09 0.04 0  0.1 0.04 0  0.11 0.04 0  0.12 0.04 0  0.13 0.04 0  0.14 0.04 0  0.15 0.04 0  0.16 0.04 0  0.17 0.04 0  0.18 0.04 0  0.19 0.04 0  0.2 0.04 0  0.21 0.04 0  0.22 0.04 0  0.23 0.04 0  0.24 0.04 0  0.25 0.04 0  0.26 0.04 0  0.27 0.04 0  0.28 0.04 0  0.29 0.04 0  0.3 0.04 0  0.31 0.04 0  0.32 0.04 0  0.33 0.04 0  0.34 0.04 0  0.35 0.04 0  0.36 0.04 0  0.37 0.04 0  0.38 0.04 0  0.39 0.04 0  0.4 0.04 0  0.41 0.04 0  0.42 0.04 0  0.43 0.04 0  0.44 0.04 0  0.45 0.04 0  0.46 0.04 0  0.47 0.04 0  0.48 0.04 0  0.49 0.04 0  0.5 0.04 0  0.51 0.04 0  0.52 0.04 0  0.53 0.04 0  0.54 0.04 0  0.55 0.04 0  0.5600000000000001 0.04 0  0.57 0.04 0  0.58 0.04 0  0.59 0.04 0  0.6 0.04 0  0.61 0.04 0  0.62 0.04 0  0.63 0.04 0  0.64 0.04 0  0.65 0.04 0  0.66 0.04 0  0.67 0.04 0  0.68 0.04 0  0.6899999999999999 0.04 0  0.7 0.04 0  0.71 0.04 0  0.72 0.04 0  0.73 0.04 0  0.74 0.04 0  0.75 0.04 0  0.76 0.04 0  0.77 0.04 0  0.78 0.04 0  0.79 0.04 0  0.8 0.04 0  0.8100000000000001 0.04 0  0.82 0.04 0  0.83 0.04 0  0.84 0.04 0  0.85 0.04 0  0.86 0.04 0  0.87 0.04 0  0.88 0.04 0  0.89 0.04 0  0.9 0.04 0  0.91 0.04 0  0.92 0.04 0  0.93 0.04 0  0.9399999999999999 0.04 0  0.95 0.04 0  0.96 0.04 0  0.97 0.04 0  0.98 0.04 0  0.99 0.04 0  1 0.04 0  0 0.05 0  0.01 0.05 0  0.02 0.05 0  0.03 0.05 0  0.04 0.05 0  0.05 0.05 0  0.06 0.05 0  0.07000000000000001 0.05 0  0.08 0.05 0  0.09 0.05 0  0.1 0.05 0  0.11 0.05 0  0.12 0.05 0  0.13 0.05 0  0.14 0.05 0  0.15 0.05 0  0.16 0.05 0  0.17 0.05 0  0.18 0.05 0  0.19 0.05 0  0.2 0.05 0  0.21 0.05 0  0.22 0.05 0  0.23 0.05 0  0.24 0.05 0  0.25 0.05 0  0.26 0.05 0  0.27 0.05 0  0.28 0.05 0  0.29 0.05 0  0.3 0.05 0  0.31 0.05 0  0.32 0.05 0  0.33 0.05 0  0.34 0.05 0  0.35 0.05 0  0.36 0.05 0  0.37 0.05 0  0.38 0.05 0  0.39 0.05 0  0.4 0.05 0  0.41 0.05 0  0.42 0.05 0  0.43 0.05 0  0.44 0.05 0  0.45 0.05 0  0.46 0.05 0  0.47 0.05 0  0.48 0.05 0  0.49 0.05 0  0.5 0.05 0  0.51 0.05 0  0.52 0.05 0  0.53 0.05 0  0.54 0.05 0  0.55 0.05 0  0.5600000000000001 0.05 0  0.57 0.05 0  0.58 0.05 0  0.59 0.05 0  0.6 0.05 0  0.61 0.05 0  0.62 0.05 0  0.63 0.05 0  0.64 0.05 0  0.65 0.05 0  0.66 0.05 0  0.67 0.05 0  0.68 0.05 0  0.6899999999999999 0.05 0  0.7 0.05 0  0.71 0.05 0  0.72 0.05 0  0.73 0.05 0  0.74 0.05 0  0.75 0.05 0  0.76 0.05 0  0.77 0.05 0  0.78 0.05 0  0.79 0.05 0  0.8 0.05 0  0.8100000000000001 0.05 0  0.82 0.05 0  0.83 0.05 0  0.84 0.05 0  0.85 0.05 0  0.86 0.05 0  0.87 0.05 0  0.88 0.05 0  0.89 0.05 0  0.9 0.05 0  0.91 0.05 0  0.92 0.05 0  0.93 0.05 0  0.9399999999999999 0.05 0  0.95 0.05 0  0.96 0.05 0  0.97 0.05 0  0.98 0.05 0  0.99 0.05 0  1 0.05 0  0 0.06 0  0.01 0.06 0  0.02 0.06 0  0.03 0.06 0  0.04 0.06 0  0.05 0.06 0  0.06 0.06 0  0.07000000000000001 0.06 0  0.08 0.06 0  0.09 0.06 0  0.1 0.06 0  0.11 0.06 0  0.12 0.06 0  0.13 0.06 0  0.14 0.06 0  0.15 0.06 0  0.16 0.06 0  0.17 0.06 0  0.18 0.06 0  0.19 0.06 0  0.2 0.06 0  0.21 0.06 0  0.22 0.06 0  0.23 0.06 0  0.24 0.06 0  0.25 0.06 0  0.26 0.06 0  0.27 0.06 0  0.28 0.06 0  0.29 0.06 0  0.3 0.06 0  0.31 0.06 0  0.32 0.06 0  0.33 0.06 0  0.34 0.06 0  0.35 0.06 0  0.36 0.06 0  0.37 0.06 0  0.38 0.06 0  0.39 0.06 0  0.4 0.06 0  0.41 0.06 0  0.42 0.06 0  0.43 0.06 0  0.44 0.06 0  0.45 0.06 0  0.46 0.06 0  0.47 0.06 0  0.48 0.06 0  0.49 0.06 0  0.5 0.06 0  0.51 0.06 0  0.52 0.06 0  0.53 0.06 0  0.54 0.06 0  0.55 0.06 0  0.5600000000000001 0.06 0  0.57 0.06 0  0.58 0.06 0  0.59 0.06 0  0.6 0.06 0  0.61 0.06 0  0.62 0.06 0  0.63 0.06 0  0.64 0.06 0  0.65 0.06 0  0.66 0.06 0  0.67 0.06 0  0.68 0.06 0  0.6899999999999999 0.06 0  0.7 0.06 0  0.71 0.06 0  0.72 0.06 0  0.73 0.06 0  0.74 0.06 0  0.75 0.06 0  0.76 0.06 0  0.77 0.06 0  0.78 0.06 0  0.79 0.06 0  0.8 0.06 0  0.8100000000000001 0.06 0  0.82 0.06 0  0.83 0.06 0  0.84 0.06 0  0.85 0.06 0  0.86 0.06 0  0.87 0.06 0  0.88 0.06 0  0.89 0.06 0  0.9 0.06 0  0.91 0.06 0  0.92 0.06 0  0.93 0.06 0  0.9399999999999999 0.06 0  0.95 0.06 0  0.96 0.06 0  0.97 0.06 0  0.98 0.06 0  0.99 0.06 0  1 0.06 0  0 0.07000000000000001 0  0.01 0.07000000000000001 0  0.02 0.07000000000000001 0  0.03 0.07000000000000001 0  0.04 0.07000000000000001 0  0.05 0.07000000000000001 0  0.06 0.07000000000000001 0  0.07000000000000001 0.07000000000000001 0  0.08 0.07000000000000001 0  0.09 0.07000000000000001 0  0.1 0.07000000000000001 0  0.11 0.07000000000000001 0  0.12 0.07000000000000001 0  0.13 0.07000000000000001 0  0.14 0.07000000000000001 0  0.15 0.07000000000000001 0  0.16 0.07000000000000001 0  0.17 0.0700
[...]
<PointData  Scalars="Indicator Function"> 
<DataArray  type="Float64"  Name="Indicator Function"  format="ascii">-1.2037062152420224e-35  -6.5437244609088442e-20  2.5130650456464003e-20  3.0966618573327418e-19  3.4258615867764209e-19  -3.4930450110322053e-20  -3.0530684357463336e-20  6.5205248025004935e-19  9.1393335576798625e-19  -6.0185310762101120e-36  4.8931905994321225e-18  2.6926942671812858e-18  -4.0453988211746526e-20  -3.5933719422751066e-20  7.8348717710789143e-18  -9.0255830060343926e-21  -4.8755816479952535e-21  2.1395341876305544e-18  -3.5542893973963702e-20  -4.2129717533470784e-35  5.7504067804479995e-18  6.0185310762101120e-36  -3.8432210299315596e-20  1.2705192532269556e-17  -5.2022881793172819e-20  -2.6011440896586418e-20  -1.9537815097822949e-20  -4.5530867668116794e-20  4.1386475751634454e-17  -1.7451947559566536e-20  -8.2764971704091583e-20  -2.9694981714955218e-20  -4.8811977336948532e-20  -1.6426191782272721e-20  2.1364628766400294e-17  -9.4604173287446034e-20  -1.2669834697869972e-19  -1.4415184816812103e-19  -1.4942506093251157e-19  -1.4560571586295250e-19  8.8887566337303620e-18  -8.3670539389356801e-20  -2.5285107409408140e-20  -3.3552360396538819e-20  -2.0819059570540587e-20  -2.2460624440007606e-20  2.8388197017898833e-17  -1.4773354429467832e-20  -8.3471837279313855e-21  -1.8019792999347489e-21  -2.2967081824163260e-20  -1.1483540912081638e-20  -8.3846417737553335e-21  -9.8694757376177921e-21  -8.9767543224343850e-21  -4.9277406717356356e-21  2.8957299025304427e-19  -5.4220340604485186e-22  -6.2230483113099744e-23  -2.7827799027237465e-22  -4.9330353092675975e-22  -4.0582058995768356e-22  -1.2115743654899401e-21  -1.7972750011485323e-21  -6.6694624744582084e-22  -2.1323335189008787e-21  -2.4775457700254334e-21  -1.7085720522502791e-21  6.2716720170272835e-19  4.7019774032891500e-38  -1.5025383904877724e-22  -3.7868908570205557e-22  -4.1856588520306259e-22  -3.6923777869277077e-22  -3.5119939887293622e-22  -3.5367045706624003e-22  -4.4311726740504173e-22  -5.5139110978710399e-22  -2.8985307730306265e-22  -6.2282442774122318e-22  -5.1943031485899859e-22  4.2827090833851042e-19  -4.8861043280094279e-22  -8.5447629428959829e-23  -4.2723814714479879e-23  -7.7526626054010733e-23  -1.0331712327903541e-22  -1.8055381302751455e-22  -2.7988755859285858e-22  -9.3138955409877624e-23  -1.4625302277081249e-22  -2.6983080262531675e-23  -4.2172614920953192e-22  1.4610716274748150e-19  -2.4542272170581123e-22  -2.7816461185461156e-23  -3.3564993983863854e-23  -4.2003898123059796e-23  -1.1519601860230824e-23  -5.7598009301154200e-24  2.3509887016445750e-38  -3.5128657401011900e-20  5.5485078189971030e-04  2.3202651799716903e-04  1.5213910199430536e-04  3.5265620492866612e-04  2.7834156906750274e-04  4.9008026386916897e-04  3.0495178284796872e-04  6.9848506781228974e-04  6.2193951150684397e-05  2.4142510293355179e-05  4.3554814518257680e-04  7.4739873621712039e-04  3.5505489683572829e-04  4.6979689319148483e-04  2.6219424718148404e-04  3.1493325460369760e-05  7.7439510993613906e-04  1.3398063105425208e-04  6.4028385622724780e-04  2.0264486114439649e-04  3.1824156645826867e-04  2.3732486547277206e-04  5.7367071919570709e-04  2.1826950348527365e-04  9.3716092423388987e-04  7.0392397435351201e-04  9.2264491949932718e-04  3.5888873490627854e-04  6.2877267620922597e-04  8.4217342842707625e-04  1.0698744686899679e-03  6.7132222009976786e-04  5.4365730173370976e-04  2.4079313892177490e-05  8.2943059115353837e-04  1.2895219826833740e-03  1.6376335216252323e-03  1.7779920779662567e-03  1.8028065559587624e-03  1.7215961128342475e-03  1.3732378041778706e-03  8.2065553797424718e-04  4.5549600122813376e-04  3.7667759050294441e-04  8.0922927886825202e-04  6.0432033133028655e-04  5.3226618802850877e-04  3.0073898821363879e-04  1.6863176465784515e-05  3.2461573214861942e-05  4.1373816458035729e-04  1.0110088822886895e-04  1.0049383415724397e-04  1.2754575193848848e-04  9.7937953716803686e-05  7.2362027692740282e-05  4.4528989304988887e-05  2.3862018748595497e-05  1.4652789881651287e-05  9.3338096581813798e-06  8.3954591838566741e-06  1.0261338367480418e-05  1.6695114260068345e-05  2.4029270971785185e-05  2.0609140961485117e-07  3.8309660059799036e-05  2.5476666796820038e-05  1.8040564432990421e-05  1.3752475558117660e-05  2.2712761045041772e-06  2.7067325342042412e-06  5.4684898339260807e-06  4.8059677415590189e-06  4.2486126193479777e-06  7.6324165647718151e-06  2.5549522722359755e-06  8.8957566501314245e-06  5.4851008612247084e-06  7.5324598012840437e-06  7.4535775421284375e-06  8.3794511628128048e-06  1.1002120706139532e-05  3.3009626992968805e-06  1.5392876482238209e-06  3.0536412347766597e-07  1.3037704724356521e-06  1.2093105953839950e-06  3.3726429986338509e-06  3.3556845190208169e-06  5.2693204708195184e-06  9.7216792172516585e-07  2.5390403445984393e-06  6.3276227414304583e-06  2.4551472483958044e-06  3.1935690878922734e-06  5.3829954355406248e-08  5.7773820041598579e-07  4.6780585953248845e-07  2.0751869858076804e-07  5.7598009301154024e-24  -1.3009473092049084e-20  6.3282163352489183e-04  1.6163200943720328e-04  9.6452524512757775e-05  1.0735868227040780e-05  3.4327654699699712e-04  5.3500837186179582e-04  6.5203085670777184e-04  7.7479683647862943e-04  5.6705529565744378e-05  2.0907740548916596e-04  4.7543939067219547e-04  6.4685478392954583e-04  9.9699354702261042e-04  9.2078215954615524e-04  6.1875988505499769e-04  1.2363623582174797e-03  5.4691790926071756e-05  5.0236468683217278e-04  9.7519882462784098e-04  4.6679612779805958e-04  1.6161903198983001e-03  1.0530412623043419e-03  1.7460979974767224e-03  9.9986915282535547e-04  1.2631504592230038e-03  2.2750123552759702e-05  3.3326205761082412e-04  1.7358020951169831e-03  1.2486275178749072e-03  5.8969735000470138e-05  1.7306462643859799e-03  1.3142592530632609e-04  1.1813798631635515e-03  6.6450173379615856e-04  1.0940549874630496e-03  1.5982717718188047e-03  2.1297011289391154e-03  2.4624813571817797e-03  2.5612465940826660e-03  2.4917972126576064e-03  2.2863609032830472e-03  1.7121444154127026e-03  2.6353739147611194e-04  1.0824981800939030e-03  9.3567850304924517e-04  8.8161913291321607e-04  1.2612444537812054e-03  1.0649921111310146e-03  3.4678253196466894e-04  3.7635616686463577e-04  6.5021481910605683e-04  2.3799385177475827e-04  3.0521657298376685e-04  1.2959924612648507e-04  1.3708895554135624e-04  9.5344766455656105e-05  8.1466888987834216e-05  4.5878721856581213e-05  2.6504726674496048e-05  1.6590164278990407e-05  1.3074253765745514e-05  1.0566948653368878e-05  1.9696563393249343e-05  2.7223157365304879e-05  2.4588872310731998e-05  4.1532859061359275e-05  4.9931838833064838e-05  1.5351707850605160e-05  2.4215703070949700e-05  9.8106639594124146e-06  2.9050416609345417e-06  4.0534486178124500e-06  7.3268993158872385e-06  1.0352179241120620e-05  6.1808096974687185e-06  8.8026116096140822e-06  8.3957728033348498e-06  7.4276892638863105e-06  1.1500942864132439e-05  1.2199901379261319e-05  8.8250965857906682e-06  1.7641569168709294e-05  7.4678822090415642e-06  1.7957510125377708e-06  2.4824823022216187e-07  5.6411375489399841e-06  1.7971638754354089e-06  4.4810703233025070e-06  2.1772682475429430e-06  5.8646642248784521e-07  8.5852728308318521e-06  4.0583448550163371e-06  8.2374280631471482e-06  6.3980730188429578e-06  2.7092935668013158e-06  1.2713960644638159e-06  1.1447774893341475e-06  9.9907264769638822e-07  4.8049338769627669e-07  2.0230945066594067e-23  -2.3900929395852176e-20  2.3435783267855578e-04  4.5442387149683306e-04  7.5109703901624639e-05  5.2032718262388336e-04  7.3573618584674941e-04  6.5167722739283419e-04  8.6163992203402322e-04  2.2088712802052445e-04  1.3393724912609463e-03  5.0094483833154017e-04  1.0233064747593242e-06  1.0573835813163389e-03  1.2424567103887826e-03  2.4387158743142389e-04  1.0415018216912786e-03  2.1679282453580210e-04  3.5529599393713100e-04  1.5277746954724246e-03  8.2369648856137512e-04  1.7600297352498367e-03  4.5457557375284691e-04  1.1449032515472382e-03  3.3330788937881650e-04  1.6885549764501513e-03  1.4501156221709537e-03  2.4720747884799834e-03  2.0860612698800460e-03  1.9922738463684876e-03  7.9407951927751188e-04  2.1497295951285827e-03  1.9410985854728679e-03  2.1205340635690414e-03  2.2183142754059618e-03  1.0032070091683541e-03  2.0094107192278416e-04  1.9550230862890824e-03  2.2128159187341308e-03  2.7031699926484175e-03  2.9209402296030453e-03  2.9620707649816473e-03  2.7871163745810173e-03  2.1119929754809378e-03  1.2945167668907691e-03  1.3587008773797728e-03  7.3616991759672956e-04  2.3449829559324623e-03  1.3918333962703072e-03  8.3682279611550032e-04  4.9926181313296545e-04  1.9311346146266313e-04  2.1897563327807963e-04  1.0449895510638439e-03  4.4113924852459734e-04  2.4935884052185593e-04  1.2284239313181412e-04  8.4472430829859188e-05  8.4149437063232404e-05  6.7824706707858323e-05  3.8308927317826863e-05  2.6713644236611035e-05  1.6672951500362593e-05  1.5775631659826116e-05  1.6514973724918264e-05  2.6437220262514365e-05  3.6777125898828306e-05  1.2060794972520008e-05  7.4734267271038478e-05  2.1996808226814540e-05  1.0788354723805563e-05  2.4219485039224235e-05  4.6570479161837759e-06  6.0978562618432409e-06  8.5673456577415172e-06  7.4670699035511286e-06  9.4279409963975372e-06  1.2610537167091184e-05  4.2105209682640265e-06  1.7640818493009830e-05  4.3813492727039427e-06  1.7685284106761806e-05  1.2079882753270191e-05  1.2088371540944314e-05  2.1931221398402555e-05  5.3473753692852084e-07  4.9402394348491542e-06  5.0847736666431606e-06  8.0619280559292685e-06  2.9386475804327330e-06  8.6857884870008540e-06  1.7570623342937576e-06  1.1809767367303872e-05  1.2692443894785707e-06  2.1044770488517506e-06  1.2646138872923298e-05  1.5411204037334096e-06  4.2422479810364285e-06  1.4621873846074699e-06  1.2161277526940456e-06  9.3987555572023195e-07  -1.3043393528037041e-22  -1.8794219230932032e-20  4.3056086688387433e-04  6.0078464087991894e-04  9.7366298347966248e-06  1.5342646287419196e-04  4.8293266341283876e-04  6.9616046030710670e-04  1.1589930240179704e-03  1.0520714310588144e-03  6.7140033208589898e-04  1.9876213357941341e-04  3.9757467280946927e-05  4.4145147694964697e-04  9.9074580863303284e-04  1.5128004253226056e-03  7.1569370900908342e-04  9.3224948469458580e-04  1.7710469196830264e-03  3.7492332872962521e-04  1.2016550152142464e-03  6.5705923806045924e-04  3.9820881054189515e-04  2.1131662600190520e-03  1.6660270932951965e-03  2.4897436534908877e-03  1.2975010672848927e-03  1.3204671593073484e-03  5.4732844520753287e-04  1.4908220415493208e-03  3.2914232001376160e-03  1.9729685096531173e-03  7.3906449570048716e-04  3.2063827796250314e-03  4.1047101421138384e-04  2.6659644764579068e-03  8.3102925075753643e-04  1.8670404418550765e-03  2.4039038329081402e-03  2.7628199645395083e-03  3.1385611579194737e-03  3.2404282386029395e-03  3.1566963516367337e-03  2.8975730438911655e-03  1.9991936030387121e-03  6.1434948541051531e-04  1.9668730224951391e-03  1.5178354325055042e-03  2.0305639895094253e-03  2.8180480307575225e-03  2.2354548270193050e-03  9.9379284648807328e-04  3.7712929128877151e-04  9.3882851957717984e-04  5.1794239517076630e-04  7.4764032888754387e-04  1.5712022005201864e-04  9.4252809381781139e-05  4.7649039506265579e-05  7.7185974862185850e-05  4.8849860952497526e-05  2.9912555442371748e-05  2.2003412299154015e-05  1.7197649955886083e-05  1.3462887657065594e-05  2.6366044781777388e-05  3.3173140185371987e-05  3.4749465687163062e-05  7.0299976671381491e-05  6.7282723511112293e-05  5.4922707048163563e-06  1.7987330167918300e-05  1.3586747987774827e-05  1.6204834568145402e-06  5.3457776390390961e-06  9.9138549602803571e-06  1.1407478762622611e-05  8.5948205209223428e-06  1.2341310955553808e-05  8.4801402591641041e-06  1.5699022225021279e-05  8.8978094770544017e-06  2.1540535534666130e-05  9.5522294005953800e-06  2.1263770320510754e-05  1.3481419870075733e-05  7.6607418746642427e-06  3.0124651272034713e-07  1.1661117858000900e-05  6.8389235633041254e-06  3.5283672570263784e-06  4.3889388407829633e-06  1.9719298255837508e-06  1.7711483810179592e-05  9.0368797269561191e-06  1.1801632815128591e-05  1.0163105436168774e-05  8.6204696799882705e-07  1.9351309101787193e-06  1.7240855978323919e-06  7.9542074114735070e-07  1.9869624474439318e-22  -2.2572034544635094e-20  3.3856655490057915e-04  5.8550986256345079e-04  9.4836752102965018e-04  1.2736793659880039e-04  5.4366234215499009e-04  7.0238492403336265e-04  6.7049544468635459e-04  1.3069379119407176e-03  4.0954799513472816e-04  1.6781706100336777e-03  9.1350558113644192e-04  3.8180308081100755e-05  1.3925066482435532e-03  1.4324707442042051e-03  3.6492274079140793e-04  1.2807761395864912e-03  9.7805560233346178e-04  1.0664120757987085e-03  1.4735396154275647e-03  9.4687606829369365e-04  2.3028556777508541e-03  1.1352456496537937e-03  2.0652626143336950e-03  1.1985948395181281e-03  2.7940864825670396e-03  2.5239755303148341e-03  3.5718629205676064e-03  2.7604377955179824e-03  2.1055305365298483e-03  1.7109252801680251e-03  3.5550814439296928e-03  2.4158420484442396e-03  3.4763202583176596e-03  3.0408188943516178e-03  1.8287923209177497e-03  2.9211632406860450e-04  2.9561754878965609e-03  2.8498836333541010e-03  3.2761565210391972e-03  3.5003199192967251e-03  3.5302037165548519e-03  3.3080161369113100e-03  2.5104296970208466e-03  1.5026631874363661e-03  2.2099715524665818e-03  1.3332131966093661e-03  3.6299507457475664e-03  1.3693354089563011e-03  1.0845729480613790e-04  9.7297355861231040e-05  3.9504095621162924e-05  4.6830421609407591e-04  1.5755813405012517e-03  5.2565942071747219e-04  5.4183773657949020e-04  1.0278148685920221e-04  4.1349672263008309e-05  5.2093638535746045e-05  6.7539209796645298e-05  3.7509975145704544e-05  2.7038702032456044e-05  1.6218689378263048e-05  1.6589194349334650e-05  1.4513687902194286e-05  3.0119411113673971e-05  4.3789031130999854e-05  1.1237495314460951e-05  1.0557700543909580e-04  2.1249263335710787e-05  5.3293727610518714e-06  2.3809396651741073e-05  5.9259236083323736e-06  6.0301154556377471e-06  8.2544337729071107e-06  9.1396540770183163e-06  9.3961985212632315e-06  1.3272729437476922e-05  5.7650991687393238e-06  1.7181420552359478e-05  8.5403559943168240e-06  1.7969028931233386e-05  1.7189766550028399e-05  1.1749806475491312e-05  2.6889121632735062e-05  1.1616529895203936e-07  1.0300130149998442e-05  8.9857884277002913e-06  1.4617222733408917e-05  5.3162649354037109e-06  9.9819060604278233e-06  1.5162864378620533e-07  1.4735680616252724e-05  5.4881867572211810e-06  1.9182139859081861e-06  1.7878223133895432e-05  3.2249095561601436e-06  3.8337250706042614e-06  1.2175501906176204e-06  1.0223532689594838e-06  -5.6752006924980691e-23  -1.1981916648093422e-20  4.0662162545685056e-04  6.4529886548284987e-04  5.4858700675777783e-04  6.0898969513284613e-04  2.4570336361893358e-04  5.8745599786583463e-04  1.0641676557522307e-03  1.5145308907397249e-03  1.3646430631710522e-03  5.9823311412867297e-04  5.3156207163824847e-04  3.5699528399111348e-04  4.0536938121192231e-04  1.4662578327966013e-03  1.8597915930272805e-03  4.8062217955592291e-04  8.0668297017404632e-04  1.4681081798820308e-03  1.8894122689976496e-04  1.6612007404725403e-03  1.7134210351764088e-04  1.3798882770343066e-04  1.7734280397474667e-03  1.4705519135596833e-03  2.3831688318569719e-03  8.6114510261466656e-04  7.4696378659271708e-04  1.4343426285782727e-03  2.4769236080001058e-03  4.4091059082650820e-03  2.0875873482063610e-03  1.8555399847085122e-03  4.4116477756729775e-03  9.9563106268178952e-04  4.0372835106706490e-03  1.1618598348199498e-03  2.3160475462993329e-03  3.3664663678799590e-03  3.3862173767898172e-03  3.7408444854011638e-03  3.8363552835061049e-03  3.7418288725676531e-03  3.4060010835527681e-03  2.2051054035404812e-03  7.8050437906280546e-04  3.0064757518062776e-03  1.7636181260686878e-03  3.2965899567595483e-03  3.6394307392718494e-03  2.5090775551810432e-03  1.1649763953378708e-03  3.1978239459774267e-04  8.9635374721317882e-04  9.2857887892595231e-04  1.0543280930878408e-03  2.6622547545674156e-04  4.0893096166329352e-05  1.3547244085984391e-06  6.3584617489448984e-05  5.3862544502189187e-05  3.2304709742221294e-05  2.5130752899401456e-05  1.6521553800745764e-05  1.3018241041185412e-05  2.5703118223605213e-05  3.3442182940378886e-05  4.2832145730937781e-05  8.8824806543577451e-05  8.7274134867812764e-05  1.9156250378615137e-05  8.8538615676761873e-06  1.7226690799380722e-05  9.1807687029114471e-07  5.3807983863285845e-06  8.7388412408776665e-06  1.1707324879433983e-05  9.1518801493974349e-06  1.0968499873808178e-05  8.2336034743468413e-06  1.5854783074794215e-05  6.2080080302131484e-06  2.6174037614066674e-05  8.7737169913063776e-06  2.0442650518096111e-05  1.8967791254836507e-05  1.3053917034205296e-05  2.9063660510082040e-06  1.6984800822576721e-05  1.3383156224815879e-05  3.0131772964380482e-06  7.9989964598471227e-06  6.9393106119763836e-06  2.1372205141946658e-05  6.9889308783694814e-06  1.1602382372883265e-05  1.5181340881911085e-05  1.7132380631529207e-06  3.1236805127198597e-06  1.0216300807837985e-06  -5.6711861916791377e-23  -2.0579983777551146e-20  2.1584702140615164e-04  5.1904740723082655e-04  8.5747598083347066e-04  8.9563783623661849e-04  5.9829773792201937e-05  6.8586029982085569e-04  4.5672347561463386e-04  3.8522781439094328e-04  1.7327158448578019e-03  6.4745120212433100e-04  1.6526625580850613e-03  9.0610901301865657e-04  1.3155835960890344e-04  1.4846055787411713e-03  1.7684098915483676e-03  6.6232267973936464e-04  1.1131379767624695e-03  1.1812507287765020e-03  1.3522499105256768e-03  1.2935479394428637e-03  5.1222532741937064e-04  2.0843103030545821e-03  9.4963929020725130e-04  2.3036864852552194e-03  1.4219603006263620e-03  3.1787145849559656e-03  2.7246947231149145e-03  3.7461325961908229e-03  2.6305166921817857e-03  1.6961949263608535e-03  2.7126809737933765e-03  4.3575694085336916e-03  2.3999596619078347e-03  4.9532779454662937e-03  3.4032956068694273e-03  3.0971792690043559e-03  3.5939263447479919e-04  3.7611753839165564e-03  3.7198867471339085e-03  3.9633039316179178e-03  4.1695799119844138e-03  4.1819096755261300e-03  3.9179935542202182e-03  2.9601461185828717e-03  1.5799805779875592e-03  2.8040555526589869e-03  2.1049138576156143e-03  4.4745755136985105e-03  9.4144492177798288e-04  7.3975176238516550e-04  7.7177421440416459e-04  5.0285627689451902e-04  4.1664620508897733e-04  1.8257441012438139e-03  3.6223246424431333e-04  9.1548107318711002e-04  1.1018008644440810e-04  1.8687590805688357e-05  2.4020575394522106e-07  5.9694283422044021e-05  4.0575790370172783e-05  3.0354509803396341e-05  1.9856643693545437e-05  1.8501019445644803e-05  1.3582872431207780e-05  3.3497014674126878e-05  4.6008095051057537e-05  6.9628608209017644e-06  1.3642066097765358e-04  2.8755089304610187e-05  2.1576442950377151e-05  1.7777950019447725e-05  9.0879213146255710e-06  2.9344149067467179e-06  7.6847804957091205e-06  8.1514991626948702e-06  8.2054447184250954e-06  1.4338753421721369e-05  6.1910817102663824e-06  1.5618498427542791e-05  1.0760864839074980e-05  1.0444064527923663e-05  2.5334751815788181e-05  7.3582195215325348e-06  2.6281664178826105e-05  4.2593892769196185e-06  1.9159853409975386e-05  8.5499225433629513e-06  2.0228390393698380e-05  1.0449531471801643e-05  9.5793654272054387e-06  3.0400297756248069e-06  1.9830188362905323e-05  1.1392170321774243e-05  3.4116288263317860e-06  2.1109154836651090e-05  7.4873334052970488e-06  4.4186562735232875e-06  1.2379823897762970e-06  1.2853476700757200e-22  -1.3785458505365932e-20  3.7073602908748192e-04  6.3133618296732665e-04  6.9785574032789463e-04  6.7280584827707733e-04  9.7680354655319403e-04  1.2575750339860315e-04  4.8831089025978304e-04  9.8942729353614371e-04  1.5702042041454750e-03  1.7448972916543101e-03  7.5561943927397572e-04  5.5835602138177068e-04  6.0449038888818821e-04  4.0057574843834653e-04  1.7800026076789134e-03  2.1153406048660538e-0