<?xml version="1.0"?>
<VTKFile type="UnstructuredGrid"  version="0.1"  >
<UnstructuredGrid>
<Piece  NumberOfPoints="10201" NumberOfCells="20000">
<Points>
<DataArray  type="Float64"  NumberOfComponents="3"  format="ascii">0 0 0  0.01 0 0  0.02 0 0  0.03 0 0  0.04 0 0  0.05 0 0  0.06 0 0  0.07000000000000001 0 0  0.08 0 0  0.09 0 0  0.1 0 0  0.11 0 0  0.12 0 0  0.13 0 0  0.14 0 0  0.15 0 0  0.16 0 0  0.17 0 0  0.18 0 0  0.19 0 0  0.2 0 0  0.21 0 0  0.22 0 0  0.23 0 0  0.24 0 0  0.25 0 0  0.26 0 0  0.27 0 0  0.28 0 0  0.29 0 0  0.3 0 0  0.31 0 0  0.32 0 0  0.33 0 0  0.34 0 0  0.35 0 0  0.36 0 0  0.37 0 0  0.38 0 0  0.39 0 0  0.4 0 0  0.41 0 0  0.42 0 0  0.43 0 0  0.44 0 0  0.45 0 0  0.46 0 0  0.47 0 0  0.48 0 0  0.49 0 0  0.5 0 0  0.51 0 0  0.52 0 0  0.53 0 0  0.54 0 0  0.55 0 0  0.5600000000000001 0 0  0.57 0 0  0.58 0 0  0.59 0 0  0.6 0 0  0.61 0 0  0.62 0 0  0.63 0 0  0.64 0 0  0.65 0 0  0.66 0 0  0.67 0 0  0.68 0 0  0.6899999999999999 0 0  0.7 0 0  0.71 0 0  0.72 0 0  0.73 0 0  0.74 0 0  0.75 0 0  0.76 0 0  0.77 0 0  0.78 0 0  0.79 0 0  0.8 0 0  0.8100000000000001 0 0  0.82 0 0  0.83 0 0  0.84 0 0  0.85 0 0  0.86 0 0  0.87 0 0  0.88 0 0  0.89 0 0  0.9 0 0  0.91 0 0  0.92 0 0  0.93 0 0  0.9399999999999999 0 0  0.95 0 0  0.96 0 0  0.97 0 0  0.98 0 0  0.99 0 0  1 0 0  0 0.01 0  0.01 0.01 0  0.02 0.01 0  0.03 0.01 0  0.04 0.01 0  0.05 0.01 0  0.06 0.01 0  0.07000000000000001 0.01 0  0.08 0.01 0  0.09 0.01 0  0.1 0.01 0  0.11 0.01 0  0.12 0.01 0  0.13 0.01 0  0.14 0.01 0  0.15 0.01 0  0.16 0.01 0  0.17 0.01 0  0.18 0.01 0  0.19 0.01 0  0.2 0.01 0  0.21 0.01 0  0.22 0.01 0  0.23 0.01 0  0.24 0.01 0  0.25 0.01 0  0.26 0.01 0  0.27 0.01 0  0.28 0.01 0  0.29 0.01 0  0.3 0.01 0  0.31 0.01 0  0.32 0.01 0  0.33 0.01 0  0.34 0.01 0  0.35 0.01 0  0.36 0.01 0  0.37 0.01 0  0.38 0.01 0  0.39 0.01 0  0.4 0.01 0  0.41 0.01 0  0.42 0.01 0  0.43 0.01 0  0.44 0.01 0  0.45 0.01 0  0.46 0.01 0  0.47 0.01 0  0.48 0.01 0  0.49 0.01 0  0.5 0.01 0  0.51 0.01 0  0.52 0.01 0  0.53 0.01 0  0.54 0.01 0  0.55 0.01 0  0.5600000000000001 0.01 0  0.57 0.01 0  0.58 0.01 0  0.59 0.01 0  0.6 0.01 0  0.61 0.01 0  0.62 0.01 0  0.63 0.01 0  0.64 0.01 0  0.65 0.01 0  0.66 0.01 0  0.67 0.01 0  0.68 0.01 0  0.6899999999999999 0.01 0  0.7 0.01 0  0.71 0.01 0  0.72 0.01 0  0.73 0.01 0  0.74 0.01 0  0.75 0.01 0  0.76 0.01 0  0.77 0.01 0  0.78 0.01 0  0.79 0.01 0  0.8 0.01 0  0.8100000000000001 0.01 0  0.82 0.01 0  0.83 0.01 0  0.84 0.01 0  0.85 0.01 0  0.86 0.01 0  0.87 0.01 0  0.88 0.01 0  0.89 0.01 0  0.9 0.01 0  0.91 0.01 0  0.92 0.01 0  0.93 0.01 0  0.9399999999999999 0.01 0  0.95 0.01 0  0.96 0.01 0  0.97 0.01 0  0.98 0.01 0  0.99 0.01 0  1 0.01 0  0 0.02 0  0.01 0.02 0  0.02 0.02 0  0.03 0.02 0  0.04 0.02 0  0.05 0.02 0  0.06 0.02 0  0.07000000000000001 0.02 0  0.08 0.02 0  0.09 0.02 0  0.1 0.02 0  0.11 0.02 0  0.12 0.02 0  0.13 0.02 0  0.14 0.02 0  0.15 0.02 0  0.16 0.02 0  0.17 0.02 0  0.18 0.02 0  0.19 0.02 0  0.2 0.02 0  0.21 0.02 0  0.22 0.02 0  0.23 0.02 0  0.24 0.02 0  0.25 0.02 0  0.26 0.02 0  0.27 0.02 0  0.28 0.02 0  0.29 0.02 0  0.3 0.02 0  0.31 0.02 0  0.32 0.02 0  0.33 0.02 0  0.34 0.02 0  0.35 0.02 0  0.36 0.02 0  0.37 0.02 0  0.38 0.02 0  0.39 0.02 0  0.4 0.02 0  0.41 0.02 0  0.42 0.02 0  0.43 0.02 0  0.44 0.02 0  0.45 0.02 0  0.46 0.02 0  0.47 0.02 0  0.48 0.02 0  0.49 0.02 0  0.5 0.02 0  0.51 0.02 0  0.52 0.02 0  0.53 0.02 0  0.54 0.02 0  0.55 0.02 0  0.5600000000000001 0.02 0  0.57 0.02 0  0.58 0.02 0  0.59 0.02 0  0.6 0.02 0  0.61 0.02 0  0.62 0.02 0  0.63 0.02 0  0.64 0.02 0  0.65 0.02 0  0.66 0.02 0  0.67 0.02 0  0.68 0.02 0  0.6899999999999999 0.02 0  0.7 0.02 0  0.71 0.02 0  0.72 0.02 0  0.73 0.02 0  0.74 0.02 0  0.75 0.02 0  0.76 0.02 0  0.77 0.02 0  0.78 0.02 0  0.79 0.02 0  0.8 0.02 0  0.8100000000000001 0.02 0  0.82 0.02 0  0.83 0.02 0  0.84 0.02 0  0.85 0.02 0  0.86 0.02 0  0.87 0.02 0  0.88 0.02 0  0.89 0.02 0  0.9 0.02 0  0.91 0.02 0  0.92 0.02 0  0.93 0.02 0  0.9399999999999999 0.02 0  0.95 0.02 0  0.96 0.02 0  0.97 0.02 0  0.98 0.02 0  0.99 0.02 0  1 0.02 0  0 0.03 0  0.01 0.03 0  0.02 0.03 0  0.03 0.03 0  0.04 0.03 0  0.05 0.03 0  0.06 0.03 0  0.07000000000000001 0.03 0  0.08 0.03 0  0.09 0.03 0  0.1 0.03 0  0.11 0.03 0  0.12 0.03 0  0.13 0.03 0  0.14 0.03 0  0.15 0.03 0  0.16 0.03 0  0.17 0.03 0  0.18 0.03 0  0.19 0.03 0  0.2 0.03 0  0.21 0.03 0  0.22 0.03 0  0.23 0.03 0  0.24 0.03 0  0.25 0.03 0  0.26 0.03 0  0.27 0.03 0  0.28 0.03 0  0.29 0.03 0  0.3 0.03 0  0.31 0.03 0  0.32 0.03 0  0.33 0.03 0  0.34 0.03 0  0.35 0.03 0  0.36 0.03 0  0.37 0.03 0  0.38 0.03 0  0.39 0.03 0  0.4 0.03 0  0.41 0.03 0  0.42 0.03 0  0.43 0.03 0  0.44 0.03 0  0.45 0.03 0  0.46 0.03 0  0.47 0.03 0  0.48 0.03 0  0.49 0.03 0  0.5 0.03 0  0.51 0.03 0  0.52 0.03 0  0.53 0.03 0  0.54 0.03 0  0.55 0.03 0  0.5600000000000001 0.03 0  0.57 0.03 0  0.58 0.03 0  0.59 0.03 0  0.6 0.03 0  0.61 0.03 0  0.62 0.03 0  0.63 0.03 0  0.64 0.03 0  0.65 0.03 0  0.66 0.03 0  0.67 0.03 0  0.68 0.03 0  0.6899999999999999 0.03 0  0.7 0.03 0  0.71 0.03 0  0.72 0.03 0  0.73 0.03 0  0.74 0.03 0  0.75 0.03 0  0.76 0.03 0  0.77 0.03 0  0.78 0.03 0  0.79 0.03 0  0.8 0.03 0  0.8100000000000001 0.03 0  0.82 0.03 0  0.83 0.03 0  0.84 0.03 0  0.85 0.03 0  0.86 0.03 0  0.87 0.03 0  0.88 0.03 0  0.89 0.03 0  0.9 0.03 0  0.91 0.03 0  0.92 0.03 0  0.93 0.03 0  0.9399999999999999 0.03 0  0.95 0.03 0  0.96 0.03 0  0.97 0.03 0  0.98 0.03 0  0.99 0.03 0  1 0.03 0  0 0.04 0  0.01 0.04 0  0.02 0.04 0  0.03 0.04 0  0.04 0.04 0  0.05 0.04 0  0.06 0.04 0  0.07000000000000001 0.04 0  0.08 0.04 0  0.09 0.04 0  0.1 0.04 0  0.11 0.04 0  0.12 0.04 0  0.13 0.04 0  0.14 0.04 0  0.15 0.04 0  0.16 0.04 0  0.17 0.04 0  0.18 0.04 0  0.19 0.04 0  0.2 0.04 0  0.21 0.04 0  0.22 0.04 0  0.23 0.04 0  0.24 0.04 0  0.25 0.04 0  0.26 0.04 0  0.27 0.04 0  0.28 0.04 0  0.29 0.04 0  0.3 0.04 0  0.31 0.04 0  0.32 0.04 0  0.33 0.04 0  0.34 0.04 0  0.35 0.04 0  0.36 0.04 0  0.37 0.04 0  0.38 0.04 0  0.39 0.04 0  0.4 0.04 0  0.41 0.04 0  0.42 0.04 0  0.43 0.04 0  0.44 0.04 0  0.45 0.04 0  0.46 0.04 0  0.47 0.04 0  0.48 0.04 0  0.49 0.04 0  0.5 0.04 0  0.51 0.04 0  0.52 0.04 0  0.53 0.04 0  0.54 0.04 0  0.55 0.04 0  0.5600000000000001 0.04 0  0.57 0.04 0  0.58 0.04 0  0.59 0.04 0  0.6 0.04 0  0.61 0.04 0  0.62 0.04 0  0.63 0.04 0  0.64 0.04 0  0.65 0.04 0  0.66 0.04 0  0.67 0.04 0  0.68 0.04 0  0.6899999999999999 0.04 0  0.7 0.04 0  0.71 0.04 0  0.72 0.04 0  0.73 0.04 0  0.74 0.04 0  0.75 0.04 0  0.76 0.04 0  0.77 0.04 0  0.78 0.04 0  0.79 0.04 0  0.8 0.04 0  0.8100000000000001 0.04 0  0.82 0.04 0  0.83 0.04 0  0.84 0.04 0  0.85 0.04 0  0.86 0.04 0  0.87 0.04 0  0.88 0.04 0  0.89 0.04 0  0.9 0.04 0  0.91 0.04 0  0.92 0.04 0  0.93 0.04 0  0.9399999999999999 0.04 0  0.95 0.04 0  0.96 0.04 0  0.97 0.04 0  0.98 0.04 0  0.99 0.04 0  1 0.04 0  0 0.05 0  0.01 0.05 0  0.02 0.05 0  0.03 0.05 0  0.04 0.05 0  0.05 0.05 0  0.06 0.05 0  0.07000000000000001 0.05 0  0.08 0.05 0  0.09 0.05 0  0.1 0.05 0  0.11 0.05 0  0.12 0.05 0  0.13 0.05 0  0.14 0.05 0  0.15 0.05 0  0.16 0.05 0  0.17 0.05 0  0.18 0.05 0  0.19 0.05 0  0.2 0.05 0  0.21 0.05 0  0.22 0.05 0  0.23 0.05 0  0.24 0.05 0  0.25 0.05 0  0.26 0.05 0  0.27 0.05 0  0.28 0.05 0  0.29 0.05 0  0.3 0.05 0  0.31 0.05 0  0.32 0.05 0  0.33 0.05 0  0.34 0.05 0  0.35 0.05 0  0.36 0.05 0  0.37 0.05 0  0.38 0.05 0  0.39 0.05 0  0.4 0.05 0  0.41 0.05 0  0.42 0.05 0  0.43 0.05 0  0.44 0.05 0  0.45 0.05 0  0.46 0.05 0  0.47 0.05 0  0.48 0.05 0  0.49 0.05 0  0.5 0.05 0  0.51 0.05 0  0.52 0.05 0  0.53 0.05 0  0.54 0.05 0  0.55 0.05 0  0.5600000000000001 0.05 0  0.57 0.05 0  0.58 0.05 0  0.59 0.05 0  0.6 0.05 0  0.61 0.05 0  0.62 0.05 0  0.63 0.05 0  0.64 0.05 0  0.65 0.05 0  0.66 0.05 0  0.67 0.05 0  0.68 0.05 0  0.6899999999999999 0.05 0  0.7 0.05 0  0.71 0.05 0  0.72 0.05 0  0.73 0.05 0  0.74 0.05 0  0.75 0.05 0  0.76 0.05 0  0.77 0.05 0  0.78 0.05 0  0.79 0.05 0  0.8 0.05 0  0.8100000000000001 0.05 0  0.82 0.05 0  0.83 0.05 0  0.84 0.05 0  0.85 0.05 0  0.86 0.05 0  0.87 0.05 0  0.88 0.05 0  0.89 0.05 0  0.9 0.05 0  0.91 0.05 0  0.92 0.05 0  0.93 0.05 0  0.9399999999999999 0.05 0  0.95 0.05 0  0.96 0.05 0  0.97 0.05 0  0.98 0.05 0  0.99 0.05 0  1 0.05 0  0 0.06 0  0.01 0.06 0  0.02 0.06 0  0.03 0.06 0  0.04 0.06 0  0.05 0.06 0  0.06 0.06 0  0.07000000000000001 0.06 0  0.08 0.06 0  0.09 0.06 0  0.1 0.06 0  0.11 0.06 0  0.12 0.06 0  0.13 0.06 0  0.14 0.06 0  0.15 0.06 0  0.16 0.06 0  0.17 0.06 0  0.18 0.06 0  0.19 0.06 0  0.2 0.06 0  0.21 0.06 0  0.22 0.06 0  0.23 0.06 0  0.24 0.06 0  0.25 0.06 0  0.26 0.06 0  0.27 0.06 0  0.28 0.06 0  0.29 0.06 0  0.3 0.06 0  0.31 0.06 0  0.32 0.06 0  0.33 0.06 0  0.34 0.06 0  0.35 0.06 0  0.36 0.06 0  0.37 0.06 0  0.38 0.06 0  0.39 0.06 0  0.4 0.06 0  0.41 0.06 0  0.42 0.06 0  0.43 0.06 0  0.44 0.06 0  0.45 0.06 0  0.46 0.06 0  0.47 0.06 0  0.48 0.06 0  0.49 0.06 0  0.5 0.06 0  0.51 0.06 0  0.52 0.06 0  0.53 0.06 0  0.54 0.06 0  0.55 0.06 0  0.5600000000000001 0.06 0  0.57 0.06 0  0.58 0.06 0  0.59 0.06 0  0.6 0.06 0  0.61 0.06 0  0.62 0.06 0  0.63 0.06 0  0.64 0.06 0  0.65 0.06 0  0.66 0.06 0  0.67 0.06 0  0.68 0.06 0  0.6899999999999999 0.06 0  0.7 0.06 0  0.71 0.06 0  0.72 0.06 0  0.73 0.06 0  0.74 0.06 0  0.75 0.06 0  0.76 0.06 0  0.77 0.06 0  0.78 0.06 0  0.79 0.06 0  0.8 0.06 0  0.8100000000000001 0.06 0  0.82 0.06 0  0.83 0.06 0  0.84 0.06 0  0.85 0.06 0  0.86 0.06 0  0.87 0.06 0  0.88 0.06 0  0.89 0.06 0  0.9 0.06 0  0.91 0.06 0  0.92 0.06 0  0.93 0.06 0  0.9399999999999999 0.06 0  0.95 0.06 0  0.96 0.06 0  0.97 0.06 0  0.98 0.06 0  0.99 0.06 0  1 0.06 0  0 0.07000000000000001 0  0.01 0.07000000000000001 0  0.02 0.07000000000000001 0  0.03 0.07000000000000001 0  0.04 0.07000000000000001 0  0.05 0.07000000000000001 0  0.06 0.07000000000000001 0  0.07000000000000001 0.07000000000000001 0  0.08 0.07000000000000001 0  0.09 0.07000000000000001 0  0.1 0.07000000000000001 0  0.11 0.07000000000000001 0  0.12 0.07000000000000001 0  0.13 0.07000000000000001 0  0.14 0.07000000000000001 0  0.15 0.07000000000000001 0  0.16 0.07000000000000001 0  0.17 0.0700
[...]
<PointData  Scalars="Indicator Function"> 
<DataArray  type="Float64"  Name="Indicator Function"  format="ascii">-2.4074124304840448e-35  -6.5077159130690720e-20  2.6443694281049557e-20  3.0156325529115619e-19  3.4216432824948509e-19  -3.4723118985292843e-20  -3.0313096039865048e-20  6.5206955657520809e-19  9.0772547089200102e-19  -6.0185310762101120e-36  4.8642108043568640e-18  2.6349446699943327e-18  -4.0004637305094759e-20  -3.5804047460675737e-20  7.8792972478645808e-18  -9.0326994589764797e-21  -4.5356291105653005e-21  2.1308947495639516e-18  -3.5498563968015222e-20  -3.9120451995365728e-35  5.7968019631353748e-18  -6.0185310762101120e-36  -3.8342038629812479e-20  1.2568367490656009e-17  -5.1840290745553012e-20  -2.5920145372776515e-20  -1.9454525800080190e-20  -4.5390132685098800e-20  4.1366988078808010e-17  -1.7395626113099498e-20  -8.2276424302638911e-20  -2.9541636128921583e-20  -4.8533693512597280e-20  -1.6942429631865057e-20  2.0535614079152090e-17  -9.3677208594321831e-20  -1.2571438748705924e-19  -1.4317279601571371e-19  -1.4849331657056311e-19  -1.4476200015425698e-19  8.9152222465137653e-18  -8.2532803337539785e-20  -2.5199957525596449e-20  -3.3321433769584540e-20  -2.1274344447215156e-20  -2.2365965944205831e-20  2.7965305203058882e-17  -1.4796183237391497e-20  -8.4607214764706934e-21  -1.9725549178361853e-21  -2.3035228712629264e-20  -1.1517614356314632e-20  -8.3435999141980680e-21  -9.9045937455368860e-21  -8.9317363537791170e-21  -4.9418750831236704e-21  2.8831628442326140e-19  -5.0494732725500880e-22  -1.9493579280241060e-22  -2.0229442453169092e-22  -5.5167669955728359e-22  -3.6890278178072508e-22  -1.1741590942457613e-21  -1.8083155462179379e-21  -6.8589704223287219e-22  -2.6845167070641348e-21  -2.6414407985547334e-21  -1.2713478421311283e-21  7.8194947209936288e-20  -5.2574077399265944e-23  -3.0858998672088592e-22  -4.1887967480167643e-22  -4.2613219445201222e-22  -4.9458611179656637e-22  -5.0213692373900424e-22  -5.2868371426255293e-22  -3.1808056422890596e-22  -2.9873679203052920e-22  0.0000000000000000e+00  -6.6547801471763991e-22  -5.9331602530889675e-22  2.5575731814643054e-19  -4.8386152814547075e-22  -1.2889345171891400e-22  -1.3089318105679689e-22  -3.3223227598669970e-23  -3.9204305701063166e-23  -9.4750195288804348e-23  -2.2508483004867383e-22  -4.1817927134969816e-23  -1.3108521498275053e-22  -3.5264830524668625e-38  -4.3701469812249420e-22  8.8319335345611537e-20  -1.8381330085623612e-22  -6.3303340995696493e-24  -2.9306406526494115e-23  -3.2249235625572518e-23  0.0000000000000000e+00  -2.9387358770557188e-39  0.0000000000000000e+00  -3.4863320943695780e-20  5.5117254068261614e-04  2.3134980301927913e-04  1.5018319856905136e-04  3.5222197513230932e-04  2.7639580898580990e-04  4.8731819840031998e-04  3.0241309291816998e-04  6.9636490341161905e-04  6.4859610326841255e-05  2.2112094734289685e-05  4.3423477352856881e-04  7.4413117429238302e-04  3.4859389149507483e-04  4.7069143346148011e-04  2.5756849218762449e-04  3.3934401576572265e-05  7.7107062967210287e-04  1.3376870050395645e-04  6.3948527783416417e-04  1.9886289967516001e-04  3.1827952028195037e-04  2.3330886214219810e-04  5.7405433247230007e-04  2.1943901751992221e-04  9.3387165633780286e-04  7.0092316115128654e-04  9.1684013320586196e-04  3.5925587198470011e-04  6.2674348224665084e-04  8.3562136725191425e-04  1.0643496116970084e-03  6.6765314557917462e-04  5.4047872328340024e-04  3.4968317465566850e-05  8.1860330394397307e-04  1.2782369149019978e-03  1.6255506171163213e-03  1.7663964945856805e-03  1.7918195334039482e-03  1.7118905931065031e-03  1.3642810112042502e-03  8.0463830382502134e-04  4.5396207728811387e-04  3.7328454818854923e-04  8.0581884713688855e-04  6.0456845899754851e-04  5.3308868251537530e-04  3.0482961670975163e-04  2.3530576638397205e-05  3.5534390371739453e-05  4.1496578978636505e-04  9.7772329101619259e-05  1.0141876930723403e-04  1.2771591415300715e-04  9.7041900982100987e-05  7.1228376122420688e-05  4.3510587138144874e-05  2.2875376560824437e-05  1.3655562244816665e-05  8.5848061857785142e-06  6.9538900592242283e-06  1.0848853394768592e-05  1.5727343139891254e-05  2.4712045310515891e-05  1.3267686108429863e-05  4.1726110712200699e-05  2.6720911828268925e-05  1.2870476642540680e-05  5.9122823026496680e-06  9.4709038153872550e-07  5.0855178060564305e-06  5.0031064863714024e-06  5.1749619253929134e-06  6.4908064849300074e-06  7.1591428349174095e-06  5.9443476967400300e-06  8.9470852506316332e-06  9.0802099576637599e-07  1.2091812726212157e-05  5.9422797933164021e-06  9.3020702007291240e-06  1.4309896007606614e-05  1.5615263876161329e-06  2.3219380045271916e-06  1.1969929234673206e-06  1.4124839723730190e-06  9.0100507791823478e-08  5.0962364368723661e-06  1.5066496084996513e-06  3.7587170486526098e-06  4.8206277707408084e-07  2.9989411005365232e-06  6.3730863762112379e-06  2.9749754369866080e-06  2.3733528297196514e-06  1.1403716116781077e-07  4.7091870546524333e-07  3.4549122945262488e-07  7.7160765424853323e-08  -2.0612924803471235e-23  -1.3058880207214057e-20  6.2804175684370519e-04  1.6084373419133748e-04  9.7211406884369867e-05  1.0828682987916557e-05  3.4537855854565664e-04  5.3249372961325814e-04  6.4957731600197505e-04  7.7211723051383481e-04  5.2297457196970628e-05  2.1776553683430924e-04  4.7066686917184415e-04  6.3949000907704385e-04  9.9548916319394426e-04  9.1084347510958356e-04  6.1301613764515013e-04  1.2329397428780086e-03  4.7886300896662826e-05  5.0483751863538903e-04  9.6713340970021875e-04  4.6268143035240914e-04  1.6078340576102033e-03  1.0473867709678152e-03  1.7372787218366025e-03  9.9282098434354173e-04  1.2536880278379808e-03  1.7661214708627436e-05  3.3492208166790532e-04  1.7294412324579728e-03  1.2395735692989683e-03  6.4567092167538447e-05  1.7226401674435780e-03  1.3546806755928122e-04  1.1790817200348605e-03  6.5979806321004664e-04  1.0679272053307973e-03  1.5855735725278700e-03  2.1129389269476237e-03  2.4454970611349504e-03  2.5451961085183011e-03  2.4761891828051102e-03  2.2702404463910276e-03  1.6962581657404556e-03  2.6999103982647515e-04  1.0786678405603726e-03  9.3273944302612363e-04  8.7254580572539218e-04  1.2512360620682489e-03  1.0550403889792561e-03  3.3506745165311680e-04  3.7774587300873461e-04  6.4460015130735613e-04  2.4672708789077850e-04  3.0919338214556788e-04  1.3201952100954913e-04  1.3876622909365094e-04  9.4670974281230061e-05  7.9983601725940664e-05  4.4809769791854329e-05  2.6852082125250756e-05  1.5924625904870788e-05  1.4180203451753567e-05  1.1145663615019226e-05  1.9503347771740485e-05  2.9092609747712074e-05  1.2643308892791217e-05  5.5760770743609209e-05  4.6680009237411746e-05  1.5003659168701483e-05  1.1390146988302822e-05  3.4993499639669794e-06  3.2600733076597868e-06  6.8344447981767269e-06  1.0025837739081567e-05  8.8514676099197376e-06  9.1041748118470399e-06  1.0387406608457047e-05  8.6132517198430105e-06  1.4785277127778096e-05  2.4366473142769086e-06  1.9017007051324884e-05  7.2079056189608504e-06  1.8540241285193050e-05  1.3511220472602822e-05  5.6471807846756016e-06  1.1671118834266463e-06  2.5295193684879156e-06  9.5285892526644881e-07  4.2067676772577179e-06  3.4923766028906376e-06  1.1502131354809763e-06  1.0147694935230132e-05  3.5346560752296118e-06  9.1905781690221529e-06  7.4721537974814046e-06  2.3210663954238234e-06  1.5652869528979227e-06  6.2839677964451484e-07  2.4469737337996624e-07  5.0441788047786385e-07  3.3542047794066955e-23  -2.3816896116038558e-20  2.3524787214034148e-04  4.5429755705028100e-04  7.3976596419582651e-05  5.1531767680044452e-04  7.3256374294369147e-04  6.4721941018640252e-04  8.5720093460373156e-04  2.1873057393893871e-04  1.3375604181573182e-03  4.9747731886884070e-04  3.2883966276936661e-06  1.0552700486824386e-03  1.2344682998942536e-03  2.3493003982192722e-04  1.0453154821765960e-03  2.2400624456367992e-04  3.6302135880392011e-04  1.5158012530644270e-03  8.1858415887941171e-04  1.7550958390448396e-03  4.5942351237278963e-04  1.1443270531148219e-03  3.3800574343923796e-04  1.6886750275954541e-03  1.4489347980105112e-03  2.4619762722616081e-03  2.0746283199313594e-03  1.9784037254582066e-03  7.9657002111852427e-04  2.1403846853564859e-03  1.9247095023277349e-03  2.1110656916259272e-03  2.2042015436754409e-03  9.9909509385037493e-04  1.8078489141719667e-04  1.9357437761510104e-03  2.1976737953107099e-03  2.6828366528576413e-03  2.9008247055258350e-03  2.9429595309304530e-03  2.7702310216757551e-03  2.0953712318810408e-03  1.2624302037785860e-03  1.3463495295751001e-03  7.2767039154660929e-04  2.3317712997997946e-03  1.3956129896129021e-03  8.4348427361229854e-04  5.1336960755378794e-04  2.1507215888124498e-04  2.3068438349168119e-04  1.0468123770123992e-03  4.3119805830720996e-04  2.5655946545076648e-04  1.2440997532897090e-04  8.3835754103849189e-05  8.3274856131038109e-05  6.7228798471260370e-05  3.7119230456840597e-05  2.5454856690104883e-05  1.5873444968520701e-05  1.4454044988479460e-05  1.9433166581230159e-05  2.4330087575254383e-05  3.9624526207725965e-05  3.7639537283452216e-05  7.5889863354703299e-05  2.1342565186017142e-05  5.0371483349751202e-06  8.7391096505245514e-06  7.5330768600407294e-07  7.3958096955006758e-06  7.2726484465254859e-06  9.7617625731140385e-06  1.2215123274720749e-05  1.2738876401967021e-05  1.0270504033225862e-05  1.4849354470560737e-05  5.1445892654559724e-06  1.9423585659317846e-05  1.3960621739914436e-05  1.1576318736772291e-05  2.6824442458200845e-05  1.6482192976839962e-06  7.4655482559208656e-06  3.9735166561008084e-06  7.5193953768670150e-06  6.4448365164558725e-07  1.0943331934526000e-05  1.5000130551699130e-06  7.1307405611057489e-06  3.0841185254355757e-06  1.1815419251469041e-06  1.2493300664249981e-05  3.5647184999876724e-06  2.9425539744021019e-06  5.1161348760359865e-07  2.0755425742692553e-07  1.8301853862475906e-07  2.7036370068912613e-37  -1.8815329445982498e-20  4.2904705789325307e-04  5.9734531525373587e-04  1.2439740314753853e-05  1.5273878797409412e-04  4.8101098229380910e-04  6.9708314466610367e-04  1.1552993065150194e-03  1.0484265766886715e-03  6.6798879697519472e-04  1.9441376519797367e-04  5.5691954988949376e-05  4.3015974067953566e-04  9.8207554844485247e-04  1.5127725668397901e-03  6.9912210393680420e-04  9.1755931885150735e-04  1.7609473561603487e-03  3.7883902884513885e-04  1.2033429842752523e-03  6.4731469742681646e-04  3.9050933872249215e-04  2.0981152795965185e-03  1.6544624651942453e-03  2.4732706867811932e-03  1.2837794780919303e-03  1.3056883655342131e-03  5.5385710954743356e-04  1.4889753545644176e-03  3.2766853770947084e-03  1.9568405400665267e-03  7.4525225979754747e-04  3.1904604561098326e-03  4.1571746748645446e-04  2.6582110105491785e-03  8.2223851465916130e-04  1.8199539428933088e-03  2.3909138634469816e-03  2.7425500384103464e-03  3.1151882787007570e-03  3.2180998624644123e-03  3.1350751688337497e-03  2.8766031538595385e-03  1.9795672695158808e-03  6.2795388742802982e-04  1.9532295705820381e-03  1.5153658445210855e-03  2.0120225599420069e-03  2.8015771339646774e-03  2.2209698614251323e-03  9.8478163157782227e-04  3.7406818242259322e-04  9.2546623313324644e-04  5.3352465976855908e-04  7.4997397975532973e-04  1.6203817255620143e-04  9.5641012884904272e-05  4.5869605758393232e-05  7.5811706225245056e-05  4.9427899883889321e-05  3.1610768230055495e-05  2.0663176964523004e-05  1.8155359147452922e-05  1.2574562079040094e-05  2.5250595214929591e-05  3.5322358247036560e-05  1.8904543083507341e-05  9.0544621052383829e-05  5.8495821684461704e-05  2.8302935500700174e-06  6.1784443018010718e-06  5.7108279764585365e-06  2.5111020846131044e-06  7.5428931286987809e-06  1.0199737014581147e-05  9.0356967394108989e-06  1.0272861740912878e-05  1.3018971423558755e-05  1.0662518797917392e-05  1.7505514382921199e-05  3.4152997803948311e-07  2.8403142302731338e-05  7.4675382150946579e-06  2.1305901212541032e-05  2.1250802049790960e-05  1.4195536651758195e-05  2.6855579237001910e-06  9.1810092114515756e-06  7.1560221729875601e-06  5.4925124725695346e-06  7.4408403412424120e-06  2.9690777221163831e-06  1.5597662234411690e-05  6.9745905134067163e-06  1.0682245856040152e-05  1.0090127336125275e-05  5.0968999968138539e-07  1.6049719751155228e-06  1.2217887100634743e-06  5.5231653866256108e-08  1.3796877107349557e-23  -2.2392671703746688e-20  3.3894684272711912e-04  5.8436121451265778e-04  9.4561342827064224e-04  1.2701083230122815e-04  5.3884599884430309e-04  6.9702477487523947e-04  6.6490388442435992e-04  1.3018624714330313e-03  4.0834343880005665e-04  1.6755066037261645e-03  9.1203172361794432e-04  4.3261917287287324e-05  1.3863282117633447e-03  1.4196987330591805e-03  3.5879833179549051e-04  1.2825810340847362e-03  9.8038179119071386e-04  1.0728102849077508e-03  1.4554690064492767e-03  9.3658436229115689e-04  2.2929400147919852e-03  1.1367784825998641e-03  2.0607993186145600e-03  1.1996961093910599e-03  2.7896057177130233e-03  2.5182762323008971e-03  3.5530833815327865e-03  2.7414814073372412e-03  2.0865813418076136e-03  1.7118780258185767e-03  3.5369984796813450e-03  2.3907536526158067e-03  3.4605164237016687e-03  3.0172998389681395e-03  1.8224586469933579e-03  2.7089793126531511e-04  2.9189913727981900e-03  2.8333206490374512e-03  3.2502702079463884e-03  3.4736034227862266e-03  3.5051042687713444e-03  3.2860121937627932e-03  2.4887209026406847e-03  1.4630263620651895e-03  2.1926412805663782e-03  1.3173769340998501e-03  3.6094440963728189e-03  1.3784612483543198e-03  1.2257615205616340e-04  7.6169281007725968e-05  9.8355381147733352e-06  4.8779538637158117e-04  1.5734523522986784e-03  5.0936410763347917e-04  5.5341356904226187e-04  1.0468071436707548e-04  3.9117936692742317e-05  4.9376525294722924e-05  6.6133650156778971e-05  3.6962050704401774e-05  2.7349611538205839e-05  1.6392709823132209e-05  1.6288504270241517e-05  1.8890284868447272e-05  2.6679247077069758e-05  4.7847813517793221e-05  4.5354620430341481e-05  1.0500906141252671e-04  1.6724935327762755e-05  8.7088152965535733e-06  8.5829701077925237e-06  1.7839003108117886e-06  5.4119867937933038e-06  6.5045628009220395e-06  9.2907272262195231e-06  1.1304728967931602e-05  1.1429561572871511e-05  9.0193946902172508e-06  1.6362055922459331e-05  6.0294438676649592e-06  1.3307235896920092e-05  2.3791237501108501e-05  7.1780721344858063e-06  3.1057687658825679e-05  5.4917324723337559e-07  1.6186785838295099e-05  6.1530791655569683e-06  1.3201831508819210e-05  3.1185612545239584e-06  1.3067870676179406e-05  6.5309705492414381e-07  1.1343822731263982e-05  8.5303343216247645e-06  3.3601858177235713e-06  1.6291355815467683e-05  4.0717349054072062e-06  1.3340505701182521e-06  1.0543411068564990e-06  1.0026688919305039e-06  -5.5659304494831700e-23  -1.1764399092023770e-20  4.0339051176329396e-04  6.4307880125119695e-04  5.4523716390278225e-04  6.0941894274767379e-04  2.4460608980009127e-04  5.8373344340499156e-04  1.0627193230484944e-03  1.5091914132851880e-03  1.3597800889831267e-03  5.9540687112736950e-04  5.2937245293832613e-04  3.4090650615061657e-04  3.9318087285119716e-04  1.4570756445200647e-03  1.8572413125788906e-03  4.6195850347844860e-04  7.8647502055013464e-04  1.4563456066407625e-03  1.8910003266640554e-04  1.6573160428755914e-03  1.6479141148660961e-04  1.4537203454258136e-04  1.7561013915064730e-03  1.4564780961620319e-03  2.3635407579672757e-03  8.4427317805779777e-04  7.3070167733021226e-04  1.4377588521892418e-03  2.4702915208329496e-03  4.3850240427808062e-03  2.0664717951944353e-03  1.8584837561268091e-03  4.3850274807300874e-03  1.0006982775365412e-03  4.0196631234727066e-03  1.1502641869442847e-03  2.2574595988609620e-03  3.3459936268584235e-03  3.3624531067821322e-03  3.7102012557823842e-03  3.8066355311687835e-03  3.7134771193672186e-03  3.3800005505044604e-03  2.1806257387451777e-03  7.9726203326837696e-04  2.9807973441656342e-03  1.7630083561775171e-03  3.2690619785382354e-03  3.6223206740713726e-03  2.4965619397911624e-03  1.1627917440330360e-03  3.0441175902359250e-04  8.7197008534119474e-04  9.4675257776328495e-04  1.0530433242515469e-03  2.7830266008692280e-04  4.3566673215804524e-05  4.2815457024227749e-06  6.0241877643130196e-05  5.3424308223056794e-05  3.3093170503494661e-05  2.2915180646576260e-05  1.8156792134661837e-05  1.2538548679371529e-05  2.7202291136456019e-05  3.8241823312256555e-05  2.5046609179057865e-05  1.1365397523879924e-04  7.3802279743429629e-05  1.6805795614991148e-05  1.1119366119770858e-06  7.2042807739568247e-06  1.2127086496722686e-06  6.3693063002143778e-06  9.2184094171772614e-06  9.1422128859151814e-06  1.0026638333257753e-05  1.2496621244913038e-05  9.8591500727728393e-06  1.6916705722077072e-05  2.6764388246497888e-06  2.2067416853013053e-05  1.5479869255310908e-05  1.7155879256966745e-05  2.6110083820093819e-05  1.6795218467176642e-05  7.6796975431862003e-06  1.4493555363692903e-05  1.2905206073225176e-05  4.6323836759669924e-06  9.4296649789540720e-06  6.0986971912321313e-06  1.8270033953268599e-05  2.5710418399862410e-06  8.6277198496172709e-06  1.4797574859891510e-05  1.1005030152191087e-06  1.6090064121432069e-06  8.3078878685599554e-07  -4.6118041988396217e-23  -2.0537234447599734e-20  2.1192857346830426e-04  5.1596290713640150e-04  8.5314782605090352e-04  8.9198427157262297e-04  5.9743075224041481e-05  6.8067413516471095e-04  4.5199260354627618e-04  3.7973565275128463e-04  1.7258046244538587e-03  6.4562368419473343e-04  1.6480556512088389e-03  9.0349327502980091e-04  1.1966988869835463e-04  1.4725156233813905e-03  1.7531918744978449e-03  6.5817805201462724e-04  1.1113053756273087e-03  1.1765893010104572e-03  1.3548159942033647e-03  1.2768547930189741e-03  5.0183448309537961e-04  2.0728163721337256e-03  9.4986388606223932e-04  2.2956333182894383e-03  1.4197432198526350e-03  3.1703365097711087e-03  2.7140281042442524e-03  3.7218039194145906e-03  2.6071919307418382e-03  1.6756248053151567e-03  2.7095911168887273e-03  4.3314384681824988e-03  2.3684087025485760e-03  4.9273635648843309e-03  3.3725720771234859e-03  3.0842929662459233e-03  3.3624274095045236e-04  3.7047927620238912e-03  3.7002444713743004e-03  3.9313356668311079e-03  4.1341599947115485e-03  4.1486285906934843e-03  3.8887871641532130e-03  2.9320046802913460e-03  1.5340283406229723e-03  2.7861770051633293e-03  2.0763895963076123e-03  4.4506332859740273e-03  9.5290096320173833e-04  7.2084596037334380e-04  7.5214751674412079e-04  4.7635213255432281e-04  4.3170324832620749e-04  1.8156468615864406e-03  3.4044151004390840e-04  9.2629576187246805e-04  1.1712888561519315e-04  1.8732606933664269e-05  1.4420385132240643e-06  5.8447958773747120e-05  4.0442672302406464e-05  3.0437272140691401e-05  1.8394813013496204e-05  1.7316784219896695e-05  1.8399420759017493e-05  3.0489320839903523e-05  5.4432198692029006e-05  4.6512254448294504e-05  1.3213639927746841e-04  1.8451810465437570e-05  2.2113955587490477e-05  6.4903650669638539e-06  3.3524704612474369e-06  4.7284202248343258e-06  6.4526325713203279e-06  8.3545526254445034e-06  1.0814716641916295e-05  1.1459610646619084e-05  7.7322327886486801e-06  1.6910413826746968e-05  5.7391563129291739e-06  1.3541341777557166e-05  2.2552559752642993e-05  1.0602669441907564e-05  2.7567953847534058e-05  5.5410885366160057e-06  2.3620304478628160e-05  5.3499144219483829e-06  1.9716305421131646e-05  8.6873889477417458e-06  1.3553523021180472e-05  8.7059885050174233e-07  1.7874662808269036e-05  1.1037006461273976e-05  9.5704646802603875e-07  1.7583807598678816e-05  8.0835827243069830e-06  2.3060805286376345e-06  6.0691002163162961e-07  8.5734472485330264e-23  -1.3520794170271846e-20  3.6996592562172379e-04  6.2811429836692018e-04  6.9476564298464997e-04  6.6726568830576362e-04  9.7452698696106417e-04  1.2485998556454613e-04  4.8389889148913828e-04  9.8724853363170244e-04  1.5634909929407820e-03  1.7387337115488607e-03  7.5282082985516003e-04  5.5657902411144827e-04  5.9174544602399375e-04  3.9484776852763322e-04  1.7668097559906922e-03  2.1085146956854226e-0