<?xml version="1.0"?>
<VTKFile type="UnstructuredGrid"  version="0.1"  >
<UnstructuredGrid>
<Piece  NumberOfPoints="10201" NumberOfCells="20000">
<Points>
<DataArray  type="Float64"  NumberOfComponents="3"  format="ascii">0 0 0  0.01 0 0  0.02 0 0  0.03 0 0  0.04 0 0  0.05 0 0  0.06 0 0  0.07000000000000001 0 0  0.08 0 0  0.09 0 0  0.1 0 0  0.11 0 0  0.12 0 0  0.13 0 0  0.14 0 0  0.15 0 0  0.16 0 0  0.17 0 0  0.18 0 0  0.19 0 0  0.2 0 0  0.21 0 0  0.22 0 0  0.23 0 0  0.24 0 0  0.25 0 0  0.26 0 0  0.27 0 0  0.28 0 0  0.29 0 0  0.3 0 0  0.31 0 0  0.32 0 0  0.33 0 0  0.34 0 0  0.35 0 0  0.36 0 0  0.37 0 0  0.38 0 0  0.39 0 0  0.4 0 0  0.41 0 0  0.42 0 0  0.43 0 0  0.44 0 0  0.45 0 0  0.46 0 0  0.47 0 0  0.48 0 0  0.49 0 0  0.5 0 0  0.51 0 0  0.52 0 0  0.53 0 0  0.54 0 0  0.55 0 0  0.5600000000000001 0 0  0.57 0 0  0.58 0 0  0.59 0 0  0.6 0 0  0.61 0 0  0.62 0 0  0.63 0 0  0.64 0 0  0.65 0 0  0.66 0 0  0.67 0 0  0.68 0 0  0.6899999999999999 0 0  0.7 0 0  0.71 0 0  0.72 0 0  0.73 0 0  0.74 0 0  0.75 0 0  0.76 0 0  0.77 0 0  0.78 0 0  0.79 0 0  0.8 0 0  0.8100000000000001 0 0  0.82 0 0  0.83 0 0  0.84 0 0  0.85 0 0  0.86 0 0  0.87 0 0  0.88 0 0  0.89 0 0  0.9 0 0  0.91 0 0  0.92 0 0  0.93 0 0  0.9399999999999999 0 0  0.95 0 0  0.96 0 0  0.97 0 0  0.98 0 0  0.99 0 0  1 0 0  0 0.01 0  0.01 0.01 0  0.02 0.01 0  0.03 0.01 0  0.04 0.01 0  0.05 0.01 0  0.06 0.01 0  0.07000000000000001 0.01 0  0.08 0.01 0  0.09 0.01 0  0.1 0.01 0  0.11 0.01 0  0.12 0.01 0  0.13 0.01 0  0.14 0.01 0  0.15 0.01 0  0.16 0.01 0  0.17 0.01 0  0.18 0.01 0  0.19 0.01 0  0.2 0.01 0  0.21 0.01 0  0.22 0.01 0  0.23 0.01 0  0.24 0.01 0  0.25 0.01 0  0.26 0.01 0  0.27 0.01 0  0.28 0.01 0  0.29 0.01 0  0.3 0.01 0  0.31 0.01 0  0.32 0.01 0  0.33 0.01 0  0.34 0.01 0  0.35 0.01 0  0.36 0.01 0  0.37 0.01 0  0.38 0.01 0  0.39 0.01 0  0.4 0.01 0  0.41 0.01 0  0.42 0.01 0  0.43 0.01 0  0.44 0.01 0  0.45 0.01 0  0.46 0.01 0  0.47 0.01 0  0.48 0.01 0  0.49 0.01 0  0.5 0.01 0  0.51 0.01 0  0.52 0.01 0  0.53 0.01 0  0.54 0.01 0  0.55 0.01 0  0.5600000000000001 0.01 0  0.57 0.01 0  0.58 0.01 0  0.59 0.01 0  0.6 0.01 0  0.61 0.01 0  0.62 0.01 0  0.63 0.01 0  0.64 0.01 0  0.65 0.01 0  0.66 0.01 0  0.67 0.01 0  0.68 0.01 0  0.6899999999999999 0.01 0  0.7 0.01 0  0.71 0.01 0  0.72 0.01 0  0.73 0.01 0  0.74 0.01 0  0.75 0.01 0  0.76 0.01 0  0.77 0.01 0  0.78 0.01 0  0.79 0.01 0  0.8 0.01 0  0.8100000000000001 0.01 0  0.82 0.01 0  0.83 0.01 0  0.84 0.01 0  0.85 0.01 0  0.86 0.01 0  0.87 0.01 0  0.88 0.01 0  0.89 0.01 0  0.9 0.01 0  0.91 0.01 0  0.92 0.01 0  0.93 0.01 0  0.9399999999999999 0.01 0  0.95 0.01 0  0.96 0.01 0  0.97 0.01 0  0.98 0.01 0  0.99 0.01 0  1 0.01 0  0 0.02 0  0.01 0.02 0  0.02 0.02 0  0.03 0.02 0  0.04 0.02 0  0.05 0.02 0  0.06 0.02 0  0.07000000000000001 0.02 0  0.08 0.02 0  0.09 0.02 0  0.1 0.02 0  0.11 0.02 0  0.12 0.02 0  0.13 0.02 0  0.14 0.02 0  0.15 0.02 0  0.16 0.02 0  0.17 0.02 0  0.18 0.02 0  0.19 0.02 0  0.2 0.02 0  0.21 0.02 0  0.22 0.02 0  0.23 0.02 0  0.24 0.02 0  0.25 0.02 0  0.26 0.02 0  0.27 0.02 0  0.28 0.02 0  0.29 0.02 0  0.3 0.02 0  0.31 0.02 0  0.32 0.02 0  0.33 0.02 0  0.34 0.02 0  0.35 0.02 0  0.36 0.02 0  0.37 0.02 0  0.38 0.02 0  0.39 0.02 0  0.4 0.02 0  0.41 0.02 0  0.42 0.02 0  0.43 0.02 0  0.44 0.02 0  0.45 0.02 0  0.46 0.02 0  0.47 0.02 0  0.48 0.02 0  0.49 0.02 0  0.5 0.02 0  0.51 0.02 0  0.52 0.02 0  0.53 0.02 0  0.54 0.02 0  0.55 0.02 0  0.5600000000000001 0.02 0  0.57 0.02 0  0.58 0.02 0  0.59 0.02 0  0.6 0.02 0  0.61 0.02 0  0.62 0.02 0  0.63 0.02 0  0.64 0.02 0  0.65 0.02 0  0.66 0.02 0  0.67 0.02 0  0.68 0.02 0  0.6899999999999999 0.02 0  0.7 0.02 0  0.71 0.02 0  0.72 0.02 0  0.73 0.02 0  0.74 0.02 0  0.75 0.02 0  0.76 0.02 0  0.77 0.02 0  0.78 0.02 0  0.79 0.02 0  0.8 0.02 0  0.8100000000000001 0.02 0  0.82 0.02 0  0.83 0.02 0  0.84 0.02 0  0.85 0.02 0  0.86 0.02 0  0.87 0.02 0  0.88 0.02 0  0.89 0.02 0  0.9 0.02 0  0.91 0.02 0  0.92 0.02 0  0.93 0.02 0  0.9399999999999999 0.02 0  0.95 0.02 0  0.96 0.02 0  0.97 0.02 0  0.98 0.02 0  0.99 0.02 0  1 0.02 0  0 0.03 0  0.01 0.03 0  0.02 0.03 0  0.03 0.03 0  0.04 0.03 0  0.05 0.03 0  0.06 0.03 0  0.07000000000000001 0.03 0  0.08 0.03 0  0.09 0.03 0  0.1 0.03 0  0.11 0.03 0  0.12 0.03 0  0.13 0.03 0  0.14 0.03 0  0.15 0.03 0  0.16 0.03 0  0.17 0.03 0  0.18 0.03 0  0.19 0.03 0  0.2 0.03 0  0.21 0.03 0  0.22 0.03 0  0.23 0.03 0  0.24 0.03 0  0.25 0.03 0  0.26 0.03 0  0.27 0.03 0  0.28 0.03 0  0.29 0.03 0  0.3 0.03 0  0.31 0.03 0  0.32 0.03 0  0.33 0.03 0  0.34 0.03 0  0.35 0.03 0  0.36 0.03 0  0.37 0.03 0  0.38 0.03 0  0.39 0.03 0  0.4 0.03 0  0.41 0.03 0  0.42 0.03 0  0.43 0.03 0  0.44 0.03 0  0.45 0.03 0  0.46 0.03 0  0.47 0.03 0  0.48 0.03 0  0.49 0.03 0  0.5 0.03 0  0.51 0.03 0  0.52 0.03 0  0.53 0.03 0  0.54 0.03 0  0.55 0.03 0  0.5600000000000001 0.03 0  0.57 0.03 0  0.58 0.03 0  0.59 0.03 0  0.6 0.03 0  0.61 0.03 0  0.62 0.03 0  0.63 0.03 0  0.64 0.03 0  0.65 0.03 0  0.66 0.03 0  0.67 0.03 0  0.68 0.03 0  0.6899999999999999 0.03 0  0.7 0.03 0  0.71 0.03 0  0.72 0.03 0  0.73 0.03 0  0.74 0.03 0  0.75 0.03 0  0.76 0.03 0  0.77 0.03 0  0.78 0.03 0  0.79 0.03 0  0.8 0.03 0  0.8100000000000001 0.03 0  0.82 0.03 0  0.83 0.03 0  0.84 0.03 0  0.85 0.03 0  0.86 0.03 0  0.87 0.03 0  0.88 0.03 0  0.89 0.03 0  0.9 0.03 0  0.91 0.03 0  0.92 0.03 0  0.93 0.03 0  0.9399999999999999 0.03 0  0.95 0.03 0  0.96 0.03 0  0.97 0.03 0  0.98 0.03 0  0.99 0.03 0  1 0.03 0  0 0.04 0  0.01 0.04 0  0.02 0.04 0  0.03 0.04 0  0.04 0.04 0  0.05 0.04 0  0.06 0.04 0  0.07000000000000001 0.04 0  0.08 0.04 0  0.09 0.04 0  0.1 0.04 0  0.11 0.04 0  0.12 0.04 0  0.13 0.04 0  0.14 0.04 0  0.15 0.04 0  0.16 0.04 0  0.17 0.04 0  0.18 0.04 0  0.19 0.04 0  0.2 0.04 0  0.21 0.04 0  0.22 0.04 0  0.23 0.04 0  0.24 0.04 0  0.25 0.04 0  0.26 0.04 0  0.27 0.04 0  0.28 0.04 0  0.29 0.04 0  0.3 0.04 0  0.31 0.04 0  0.32 0.04 0  0.33 0.04 0  0.34 0.04 0  0.35 0.04 0  0.36 0.04 0  0.37 0.04 0  0.38 0.04 0  0.39 0.04 0  0.4 0.04 0  0.41 0.04 0  0.42 0.04 0  0.43 0.04 0  0.44 0.04 0  0.45 0.04 0  0.46 0.04 0  0.47 0.04 0  0.48 0.04 0  0.49 0.04 0  0.5 0.04 0  0.51 0.04 0  0.52 0.04 0  0.53 0.04 0  0.54 0.04 0  0.55 0.04 0  0.5600000000000001 0.04 0  0.57 0.04 0  0.58 0.04 0  0.59 0.04 0  0.6 0.04 0  0.61 0.04 0  0.62 0.04 0  0.63 0.04 0  0.64 0.04 0  0.65 0.04 0  0.66 0.04 0  0.67 0.04 0  0.68 0.04 0  0.6899999999999999 0.04 0  0.7 0.04 0  0.71 0.04 0  0.72 0.04 0  0.73 0.04 0  0.74 0.04 0  0.75 0.04 0  0.76 0.04 0  0.77 0.04 0  0.78 0.04 0  0.79 0.04 0  0.8 0.04 0  0.8100000000000001 0.04 0  0.82 0.04 0  0.83 0.04 0  0.84 0.04 0  0.85 0.04 0  0.86 0.04 0  0.87 0.04 0  0.88 0.04 0  0.89 0.04 0  0.9 0.04 0  0.91 0.04 0  0.92 0.04 0  0.93 0.04 0  0.9399999999999999 0.04 0  0.95 0.04 0  0.96 0.04 0  0.97 0.04 0  0.98 0.04 0  0.99 0.04 0  1 0.04 0  0 0.05 0  0.01 0.05 0  0.02 0.05 0  0.03 0.05 0  0.04 0.05 0  0.05 0.05 0  0.06 0.05 0  0.07000000000000001 0.05 0  0.08 0.05 0  0.09 0.05 0  0.1 0.05 0  0.11 0.05 0  0.12 0.05 0  0.13 0.05 0  0.14 0.05 0  0.15 0.05 0  0.16 0.05 0  0.17 0.05 0  0.18 0.05 0  0.19 0.05 0  0.2 0.05 0  0.21 0.05 0  0.22 0.05 0  0.23 0.05 0  0.24 0.05 0  0.25 0.05 0  0.26 0.05 0  0.27 0.05 0  0.28 0.05 0  0.29 0.05 0  0.3 0.05 0  0.31 0.05 0  0.32 0.05 0  0.33 0.05 0  0.34 0.05 0  0.35 0.05 0  0.36 0.05 0  0.37 0.05 0  0.38 0.05 0  0.39 0.05 0  0.4 0.05 0  0.41 0.05 0  0.42 0.05 0  0.43 0.05 0  0.44 0.05 0  0.45 0.05 0  0.46 0.05 0  0.47 0.05 0  0.48 0.05 0  0.49 0.05 0  0.5 0.05 0  0.51 0.05 0  0.52 0.05 0  0.53 0.05 0  0.54 0.05 0  0.55 0.05 0  0.5600000000000001 0.05 0  0.57 0.05 0  0.58 0.05 0  0.59 0.05 0  0.6 0.05 0  0.61 0.05 0  0.62 0.05 0  0.63 0.05 0  0.64 0.05 0  0.65 0.05 0  0.66 0.05 0  0.67 0.05 0  0.68 0.05 0  0.6899999999999999 0.05 0  0.7 0.05 0  0.71 0.05 0  0.72 0.05 0  0.73 0.05 0  0.74 0.05 0  0.75 0.05 0  0.76 0.05 0  0.77 0.05 0  0.78 0.05 0  0.79 0.05 0  0.8 0.05 0  0.8100000000000001 0.05 0  0.82 0.05 0  0.83 0.05 0  0.84 0.05 0  0.85 0.05 0  0.86 0.05 0  0.87 0.05 0  0.88 0.05 0  0.89 0.05 0  0.9 0.05 0  0.91 0.05 0  0.92 0.05 0  0.93 0.05 0  0.9399999999999999 0.05 0  0.95 0.05 0  0.96 0.05 0  0.97 0.05 0  0.98 0.05 0  0.99 0.05 0  1 0.05 0  0 0.06 0  0.01 0.06 0  0.02 0.06 0  0.03 0.06 0  0.04 0.06 0  0.05 0.06 0  0.06 0.06 0  0.07000000000000001 0.06 0  0.08 0.06 0  0.09 0.06 0  0.1 0.06 0  0.11 0.06 0  0.12 0.06 0  0.13 0.06 0  0.14 0.06 0  0.15 0.06 0  0.16 0.06 0  0.17 0.06 0  0.18 0.06 0  0.19 0.06 0  0.2 0.06 0  0.21 0.06 0  0.22 0.06 0  0.23 0.06 0  0.24 0.06 0  0.25 0.06 0  0.26 0.06 0  0.27 0.06 0  0.28 0.06 0  0.29 0.06 0  0.3 0.06 0  0.31 0.06 0  0.32 0.06 0  0.33 0.06 0  0.34 0.06 0  0.35 0.06 0  0.36 0.06 0  0.37 0.06 0  0.38 0.06 0  0.39 0.06 0  0.4 0.06 0  0.41 0.06 0  0.42 0.06 0  0.43 0.06 0  0.44 0.06 0  0.45 0.06 0  0.46 0.06 0  0.47 0.06 0  0.48 0.06 0  0.49 0.06 0  0.5 0.06 0  0.51 0.06 0  0.52 0.06 0  0.53 0.06 0  0.54 0.06 0  0.55 0.06 0  0.5600000000000001 0.06 0  0.57 0.06 0  0.58 0.06 0  0.59 0.06 0  0.6 0.06 0  0.61 0.06 0  0.62 0.06 0  0.63 0.06 0  0.64 0.06 0  0.65 0.06 0  0.66 0.06 0  0.67 0.06 0  0.68 0.06 0  0.6899999999999999 0.06 0  0.7 0.06 0  0.71 0.06 0  0.72 0.06 0  0.73 0.06 0  0.74 0.06 0  0.75 0.06 0  0.76 0.06 0  0.77 0.06 0  0.78 0.06 0  0.79 0.06 0  0.8 0.06 0  0.8100000000000001 0.06 0  0.82 0.06 0  0.83 0.06 0  0.84 0.06 0  0.85 0.06 0  0.86 0.06 0  0.87 0.06 0  0.88 0.06 0  0.89 0.06 0  0.9 0.06 0  0.91 0.06 0  0.92 0.06 0  0.93 0.06 0  0.9399999999999999 0.06 0  0.95 0.06 0  0.96 0.06 0  0.97 0.06 0  0.98 0.06 0  0.99 0.06 0  1 0.06 0  0 0.07000000000000001 0  0.01 0.07000000000000001 0  0.02 0.07000000000000001 0  0.03 0.07000000000000001 0  0.04 0.07000000000000001 0  0.05 0.07000000000000001 0  0.06 0.07000000000000001 0  0.07000000000000001 0.07000000000000001 0  0.08 0.07000000000000001 0  0.09 0.07000000000000001 0  0.1 0.07000000000000001 0  0.11 0.07000000000000001 0  0.12 0.07000000000000001 0  0.13 0.07000000000000001 0  0.14 0.07000000000000001 0  0.15 0.07000000000000001 0  0.16 0.07000000000000001 0  0.17 0.0700
[...]
<PointData  Scalars="u"> 
<DataArray  type="Float64"  Name="u"  format="ascii">0.0000000000000000e+00  0.0000000000000000e+00  0.0000000000000000e+00  0.0000000000000000e+00  0.0000000000000000e+00  0.0000000000000000e+00  0.0000000000000000e+00  0.0000000000000000e+00  0.0000000000000000e+00  0.0000000000000000e+00  0.0000000000000000e+00  0.0000000000000000e+00  0.0000000000000000e+00  0.0000000000000000e+00  0.0000000000000000e+00  0.0000000000000000e+00  0.0000000000000000e+00  0.0000000000000000e+00  0.0000000000000000e+00  0.0000000000000000e+00  0.0000000000000000e+00  0.0000000000000000e+00  0.0000000000000000e+00  0.0000000000000000e+00  0.0000000000000000e+00  0.0000000000000000e+00  0.0000000000000000e+00  0.0000000000000000e+00  0.0000000000000000e+00  0.0000000000000000e+00  0.0000000000000000e+00  0.0000000000000000e+00  0.0000000000000000e+00  0.0000000000000000e+00  0.0000000000000000e+00  0.0000000000000000e+00  0.0000000000000000e+00  0.0000000000000000e+00  0.0000000000000000e+00  0.0000000000000000e+00  0.0000000000000000e+00  0.0000000000000000e+00  0.0000000000000000e+00  0.0000000000000000e+00  0.0000000000000000e+00  0.0000000000000000e+00  0.0000000000000000e+00  0.0000000000000000e+00  0.0000000000000000e+00  0.0000000000000000e+00  0.0000000000000000e+00  0.0000000000000000e+00  0.0000000000000000e+00  0.0000000000000000e+00  0.0000000000000000e+00  0.0000000000000000e+00  0.0000000000000000e+00  0.0000000000000000e+00  0.0000000000000000e+00  0.0000000000000000e+00  0.0000000000000000e+00  0.0000000000000000e+00  0.0000000000000000e+00  0.0000000000000000e+00  0.0000000000000000e+00  0.0000000000000000e+00  0.0000000000000000e+00  0.0000000000000000e+00  0.0000000000000000e+00  0.0000000000000000e+00  0.0000000000000000e+00  0.0000000000000000e+00  0.0000000000000000e+00  0.0000000000000000e+00  0.0000000000000000e+00  0.0000000000000000e+00  0.0000000000000000e+00  0.0000000000000000e+00  0.0000000000000000e+00  0.0000000000000000e+00  0.0000000000000000e+00  0.0000000000000000e+00  0.0000000000000000e+00  0.0000000000000000e+00  0.0000000000000000e+00  0.0000000000000000e+00  0.0000000000000000e+00  0.0000000000000000e+00  0.0000000000000000e+00  0.0000000000000000e+00  0.0000000000000000e+00  0.0000000000000000e+00  0.0000000000000000e+00  0.0000000000000000e+00  0.0000000000000000e+00  0.0000000000000000e+00  0.0000000000000000e+00  0.0000000000000000e+00  0.0000000000000000e+00  0.0000000000000000e+00  0.0000000000000000e+00  0.0000000000000000e+00  5.9582039416943724e-07  1.2075080314799933e-06  1.8354406138359079e-06  2.4798469597496053e-06  3.1409192384898802e-06  3.8188146197389307e-06  4.5136501876187198e-06  5.2254972433877908e-06  5.9543751325368149e-06  6.7002445893849999e-06  7.4630005975069889e-06  8.2424647717965257e-06  9.0383772776614931e-06  9.8503883145016852e-06  1.0678049204401475e-05  1.1520803142986817e-05  1.2377975687807881e-05  1.3248765080294653e-05  1.4132232520484652e-05  1.5027292538846155e-05  1.5932703636661594e-05  1.6847059394789146e-05  1.7768780279765008e-05  1.8696106405080519e-05  1.9627091533066754e-05  2.0559598627607988e-05  2.1491297288426486e-05  2.2419663411891177e-05  2.3341981429361271e-05  2.4255349469639049e-05  2.5156687775174403e-05  2.6042750670125736e-05  2.6910142330588946e-05  2.7755336541835477e-05  2.8574700543950382e-05  2.9364522965846032e-05  3.0121045729935723e-05  3.0840499678123886e-05  3.1519143528347831e-05  3.2153305624790329e-05  3.2739427800408812e-05  3.3274110535086448e-05  3.3754158474100801e-05  3.4176625277980481e-05  3.4538856713328622e-05  3.4838530871367998e-05  3.5073694421309505e-05  3.5242793871558083e-05  3.5344700922996123e-05  3.5378731151965746e-05  3.5344655450330031e-05  3.5242703867642542e-05  3.5073561735734399e-05  3.4838358197202457e-05  3.4538647494456015e-05  3.4176383593312319e-05  3.3753888904576730e-05  3.3273818019967442e-05  3.2739117489554733e-05  3.2152982733336731e-05  3.1518813199583930e-05  3.0840166859444016e-05  3.0120715065635044e-05  2.9364198709286823e-05  2.8574386490460500e-05  2.7755035982506401e-05  2.6909858026213765e-05  2.6042484843680638e-05  2.5156442120640145e-05  2.4255125174625548e-05  2.3341779208737622e-05  2.2419483549690550e-05  2.1491139685335311e-05  2.0559462851627872e-05  1.9626976871237555e-05  1.8696011914468481e-05  1.7768704836287046e-05  1.6847001738803179e-05  1.5932662414536129e-05  1.5027266340071668e-05  1.4132219910057184e-05  1.3248764626373289e-05  1.2377985984767324e-05  1.1520822830121126e-05  1.0678076980603981e-05  9.8504229493325010e-06  9.0384176191858663e-06  8.2425097516511038e-06  7.4630492335761913e-06  6.7002959864961636e-06  5.9544284815337582e-06  5.2255518188994362e-06  4.5137053447627078e-06  3.8188697896061575e-06  3.1409739195267639e-06  2.4799006823154307e-06  1.8354927059179564e-06  1.2075558578795257e-06  5.9584931813134172e-07  0.0000000000000000e+00  0.0000000000000000e+00  1.2074459841308137e-06  2.4486803223068889e-06  3.7243069235887992e-06  5.0349315842795709e-06  6.3810775534182589e-06  7.7631937375678112e-06  9.1816518650539101e-06  1.0636734987043359e-05  1.2128624328310928e-05  1.3657384984175632e-05  1.5222950452788929e-05  1.6825105994579432e-05  1.8463470830083816e-05  2.0137479211566581e-05  2.1846360433136561e-05  2.3589117878954364e-05  2.5364507249828461e-05  2.7171014155497725e-05  2.9006831312997905e-05  3.0869835650871809e-05  3.2757565683806470e-05  3.4667199591988443e-05  3.6595534512526455e-05  3.8538967624863139e-05  4.0493479685777990e-05  4.2454621738888615e-05  4.4417505785030671e-05  4.6376800248496034e-05  4.8326731105009348e-05  5.0261089544795826e-05  5.2173247022158381e-05  5.4056178486151456e-05  5.5902494489764349e-05  5.7704482733325070e-05  5.9454159409117522e-05  6.1143330477679504e-05  6.2763662724498904e-05  6.4306764124001016e-05  6.5764272684973318e-05  6.7127952580574665e-05  6.8389795992676990e-05  6.9542128743786552e-05  7.0577717470627802e-05  7.1489875833751382e-05  7.2272567077413769e-05  7.2920500171912785e-05  7.3429216799921729e-05  7.3795166597007844e-05  7.4015768324936878e-05  7.4089455037275439e-05  7.4015701775108337e-05  7.3795034884435558e-05  7.3429022647928784e-05  7.2920247541263258e-05  7.2272261025107306e-05  7.1489522337174564e-05  7.0577323226421538e-05  6.9541700951683148e-05  6.8389342134753835e-05  6.7127480205800264e-05  6.5763789207871147e-05  6.4306276644637215e-05  6.2763177875221492e-05  6.1142854300016029e-05  5.9453697262377429e-05  5.7704039234693912e-05  5.5902073484187662e-05  5.4055783043180593e-05  5.2172879456083209e-05  5.0260751453943155e-05  4.8326423425900277e-05  4.6376523320654570e-05  4.4417259422498564e-05  4.2454405304951477e-05  4.0493292167910017e-05  3.8538807707461498e-05  3.6595400645523069e-05  3.4667090054032813e-05  3.2757478639059741e-05  3.0869769198988154e-05  2.9006783532117693e-05  2.7170983138384470e-05  2.5364491133474899e-05  2.3589114868134109e-05  2.1846368818456801e-05  2.0137497382641259e-05  1.8463497284462248e-05  1.6825139343038846e-05  1.5222989421592989e-05  1.3657428414839159e-05  1.2128671175369858e-05  1.0636784314268227e-05  9.1817028404262607e-06  7.7632456269579364e-06  6.3811297099836321e-06  5.0349834195473571e-06  3.7243581913499334e-06  2.4487377319954883e-06  1.2075350547065040e-06  0.0000000000000000e+00  0.0000000000000000e+00  1.8353866553681733e-06  3.7243257316836567e-06  5.6678877169465766e-06  7.6672125945733725e-06  9.7232766745978490e-06  1.1836982042572744e-05  1.4009118462465517e-05  1.6240348398200091e-05  1.8531186867866022e-05  2.0881978579163064e-05  2.3292872946937077e-05  2.5763796984899019e-05  2.8294426050184546e-05  3.0884152455164627e-05  3.3532052006624617e-05  3.6236848588041995e-05  3.8996876967383251e-05  4.1810044091225552e-05  4.4673789216674717e-05  4.7585043335794330e-05  5.0540188462548296e-05  5.3535017478838704e-05  5.6564695371993123e-05  5.9623722838502746e-05  6.2705903373430237e-05  6.5804315106933814e-05  6.8911288781310921e-05  7.2018393376064931e-05  7.5116430974844873e-05  7.8195442515611495e-05  8.1244726062787458e-05  8.4252869174665813e-05  8.7207796800464863e-05  9.0096835917847921e-05  9.2906797807127471e-05  9.5624078448339057e-05  9.8234777023695463e-05  1.0072483191849699e-04  1.0308017295328050e-04  1.0528688787137685e-04  1.0733140037981179e-04  1.0920065633373593e-04  1.1088231400803699e-04  1.1236493385751680e-04  1.1363816277368876e-04  1.1469290763937454e-04  1.1552149299344917e-04  1.1611779786493857e-04  1.1647736732275087e-04  1.1659749500153527e-04  1.1647727377675652e-04  1.1611761282858252e-04  1.1552122049831657e-04  1.1469255353840362e-04  1.1363773452089571e-04  1.1236444023480367e-04  1.1088176481440599e-04  1.0920006205361134e-04  1.0733077184718116e-04  1.0528623594547820e-04  1.0307950821939915e-04  1.0072416442489347e-04  9.8234116062325422e-05  9.5623432383993670e-05  9.2906173956334344e-05  9.0096240476306795e-05  8.7207234815411927e-05  8.4252344556953396e-05  8.1244241632389699e-05  7.8195000073700438e-05  7.5116031395510747e-05  7.2018036711202492e-05  6.8910974372617437e-05  6.5804041699987385e-05  6.2705669229531753e-05  5.9623525841007918e-05  5.6564533124681502e-05  5.3534887394674554e-05  5.0540087841962458e-05  4.7584969434052907e-05  4.4673739300555051e-05  4.1810015485394652e-05  3.8996867091255869e-05  3.6236854983983009e-05  3.3532072360489945e-05  3.0884184610165280e-05  2.8294468015099905e-05  2.5763846937546154e-05  2.3292929233798947e-05  2.0882039711952335e-05  1.8531251517726123e-05  1.6240415388157241e-05  1.4009186758650102e-05  1.1837050745198274e-05  9.7233450490838080e-06  7.6672808276572453e-06  5.6679613989824580e-06  3.7243972316422865e-06  1.8355049069266897e-06  0.0000000000000000e+00  0.0000000000000000e+00  2.4798036955761619e-06  5.0349292311162600e-06  7.6672489766661489e-06  1.0378383885181950e-05  1.3170057059612251e-05  1.6043782573325927e-05  1.9000958435202088e-05  2.2042825816672373e-05  2.5170439411968974e-05  2.8384635591569154e-05  3.1685996846493520e-05  3.5074812789427102e-05  3.8551037678454321e-05  4.2114244417619862e-05  4.5763575046530693e-05  4.9497687808262159e-05  5.3314700979509510e-05  5.7212133761175239e-05  6.1186844662875254e-05  6.5234967972060585e-05  6.9351849078357083e-05  7.3531979625208574e-05  7.7768933682584052e-05  8.2055306372511629e-05  8.6382656628304790e-05  9.0741456020694572e-05  9.5121045829353170e-05  9.9509604763494097e-05  1.0389412992403714e-04  1.0826043373444710e-04  1.1259315962633357e-04  1.1687581922717416e-04  1.2109085364040052e-04  1.2521972110943189e-04  1.2924301290254155e-04  1.3314059863190337e-04  1.3689180142601609e-04  1.4047560241724590e-04  1.4387087290777150e-04  1.4705663137228240e-04  1.5001232119435381e-04  1.5271810378047985e-04  1.5515516052387666e-04  1.5730599608178197e-04  1.5915473466560377e-04  1.6068740059809334e-04  1.6189217432655847e-04  1.6275961543507514e-04  1.6328284498438514e-04  1.6345768070719630e-04  1.6328272014835306e-04  1.6275936868466155e-04  1.6189181138471026e-04  1.6068692975604323e-04  1.5915416645191754e-04  1.5730534285381324e-04  1.5515443600591799e-04  1.5271732257470446e-04  1.5001149829039855e-04  1.4705578167937755e-04  1.4387001082966257e-04  1.4047474148556221e-04  1.3689095400261643e-04  1.3313977568546977e-04  1.2924222386014159e-04  1.2521897377936047e-04  1.2109015419957388e-04  1.1687517226411620e-04  1.1259256822935208e-04  1.0825989961428501e-04  1.0389365356043677e-04  9.9509185566150254e-05  9.5120682304547779e-05  9.0741145936729909e-05  8.6382397174036444e-05  8.2055094304766917e-05  7.7768765459684195e-05  7.3531851524876352e-05  6.9351757299303827e-05  6.5234908719332630e-05  6.1186814217618424e-05  5.7212128535909727e-05  5.3314717560255943e-05  4.9497722985049687e-05  4.5763625833829206e-05  4.2114308066244603e-05  3.8551111680392572e-05  3.5074894876940422e-05  3.1686084986703196e-05  2.8384727977602680e-05  2.5170534451592585e-05  2.2042922119294947e-05  1.9001054801303852e-05  1.6043878052208516e-05  1.3170151535113956e-05  1.0378478269628619e-05  7.6673306623577375e-06  5.0350714965787719e-06  2.4799551767348379e-06  0.0000000000000000e+00  0.0000000000000000e+00  3.1408855736194656e-06  6.3810955044337592e-06  9.7233065636893662e-06  1.3170094145815998e-05  1.6723907126411844e-05  2.0387157959374506e-05  2.4162073253759782e-05  2.8050704540591606e-05  3.2054891102586578e-05  3.6176215775100059e-05  4.0415957826609685e-05  4.4775040802104402e-05  4.9253975113880305e-05  5.3852795256695510e-05  5.8570991554747174e-05  6.3407436439143382e-05  6.8360305376982615e-05  7.3426992725441183e-05  7.8604022969535164e-05  8.3886958023117532e-05  8.9270301531139837e-05  9.4747401408067124e-05  1.0031035218143880e-04  1.0594989907761768e-04  1.1165534618255605e-04  1.1741447142375212e-04  1.2321345153672839e-04  1.2903680058115689e-04  1.3486732593405378e-04  1.4068610598195943e-04  1.4647249392575471e-04  1.5220415216670211e-04  1.5785712161192096e-04  1.6340592990435454e-04  1.6882374197847629e-04  1.7408255548175680e-04  1.7915344243352654e-04  1.8400683704718215e-04  1.8861286792694700e-04  1.9294173092860027e-04  1.9696409691299783e-04  2.0065154652936144e-04  2.0397702216593796e-04  2.0691528543671567e-04  2.0944336718003922e-04  2.1154099606407743e-04  2.1319099163937186e-04  2.1437960813032984e-04  2.1509681644337028e-04  2.1533651377027510e-04  2.1509665269607618e-04  2.1437928474803337e-04  2.1319051666579271e-04  2.1154038112502740e-04  2.0944262698908216e-04  2.0691443718815226e-04  2.0397608485356994e-04  2.0065054023136409e-04  1.9696304208297115e-04  1.9294064772872141e-04  1.8861177563287389e-04  1.8400575354657003e-04  1.7915238383172096e-04  1.7408153582033743e-04  1.6882277306486638e-04  1.6340502124429366e-04  1.5785628043312543e-04  1.5220338351790361e-04  1.4647180083539525e-04  1.4068548965840414e-04  1.3486678599426455e-04  1.2903633529096146e-04  1.2321305805341044e-04  1.1741414603026828e-04  1.1165508450664566e-04  1.0594969629084059e-04  1.0031020317523596e-04  9.4747300945435679e-05  8.9270244373845423e-05  8.3886939035430810e-05  7.8604037200041639e-05  7.3427035469058477e-05  6.8360372219468737e-05  6.3407523286523675e-05  5.8571094650023386e-05  5.3852911186089124e-05  4.9254100804646510e-05  4.4775173513807954e-05  4.0416095137439546e-05  3.6176355564648607e-05  3.2055031532528491e-05  2.8050844040039078e-05  2.4162210564513600e-05  2.0387292306019765e-05  1.6724036718079509e-05  1.3170215571607036e-05  9.7234585364894636e-06  6.3812801810801346e-06  3.1410826122604748e-06  0.0000000000000000e+00  0.0000000000000000e+00  3.8187922115467568e-06  7.7632291164710331e-06  1.1837019485011967e-05  1.6043845295572188e-05  2.0387192607067587e-05  2.4870567437537307e-05  2.9497287867818076e-05  3.4270497879658341e-05  3.9193109520298072e-05  4.4267756031191571e-05  4.9496731509181809e-05  5.4881924259388335e-05  6.0424742924698712e-05  6.6126034848306637e-05  7.1985996389688228e-05  7.8004075014897459e-05  8.4178863123807106e-05  9.0507983765248943e-05  9.6987968628103898e-05  1.0361412898762765e-04  1.1038042063616313e-04  1.1727930423985026e-04  1.2430160303899480e-04  1.3143636034792220e-04  1.3867069990462097e-04  1.4598969276017338e-04  1.5337623506538086e-04  1.6081094178155677e-04  1.6827206198316637e-04  1.7573542198114845e-04  1.8317440294061290e-04  1.9055995991798221e-04  1.9786068925029755e-04  2.0504295090671953e-04  2.1207105174281553e-04  2.1890749443094688e-04  2.2551329526984779e-04  2.3184837196535695e-04  2.3787199992692383e-04  2.4354333267280216e-04  2.4882197870366589e-04  2.5366862382548842e-04  2.5804568461789383e-04  2.6191797573924897e-04  2.6525337132135275e-04  2.6802343904788273e-04  2.7020402485310174e-04  2.7177576667454235e-04  2.7272451740657593e-04  2.7304166011100998e-04  2.7272430252362812e-04  2.7177534272081899e-04  2.7020340317909515e-04  2.6802263601475489e-04  2.6525240755728420e-04  2.6191687523233317e-04  2.5804447370574853e-04  2.5366733014512826e-04  2.4882063016464965e-04  2.4354195650731119e-04  2.3787062185888630e-04  2.3184701553047410e-04  2.2551198130082569e-04  2.1890624071545315e-04  2.1206987284398758e-04  2.0504185813179977e-04  1.9785969074615682e-04  1.9055906086889372e-04  1.8317360583682566e-04  1.7573472694275413e-04  1.6827146710629421e-04  1.6081044349388577e-04  1.5337582847332629e-04  1.4598937197582372e-04  1.3867045834298539e-04  1.3143619099083938e-04  1.2430149866213416e-04  1.1727925760280710e-04  1.1038042463691539e-04  1.0361417678377601e-04  9.6988053728128677e-05  9.0508100093361613e-05  8.4179005062179620e-05  7.8004237426897689e-05  7.1986174627636121e-05  6.6126224748887534e-05  6.0424940794875207e-05  5.4882126855246631e-05  4.9496936009827841e-05  4.4267960009936788e-05  3.9193310920333827e-05  3.4270695015780993e-05  2.9497479305386680e-05  2.4870751110693937e-05  2.0387371150642582e-05  1.6044020559807936e-05  1.1837241941505627e-05  7.7634720442373116e-06  3.8190446358324890e-06  0.0000000000000000e+00  0.0000000000000000e+00  4.5136398855563389e-06  9.1817054657275042e-06  1.4009183581350926e-05  1.9001019527442007e-05  2.4162154383436004e-05  2.9497324470436338e-05  3.5011313400777742e-05  4.0708653728321378e-05  4.6593676337916593e-05  5.2670426217435269e-05  5.8942593381286441e-05  6.5413431625007076e-05  7.2085666827795806e-05  7.8961394658555556e-05  8.6041966963088104e-05  9.3327866327758184e-05  1.0081856848846421e-04  1.0851239246899400e-04  1.1640633861686686e-04  1.2449591506695246e-04  1.3277495361256820e-04  1.4123541650901074e-04  1.4986719638168121e-04  1.5865791216341081e-04  1.6759270483916988e-04  1.7665403772361752e-04  1.8582150701634262e-04  1.9507166944132868e-04  2.0437789483980929e-04  2.1371025258688331e-04  2.2303544155765132e-04  2.3231677401537403e-04  2.4151422412668012e-04  2.5058455157572849e-04  2.5948151021748631e-04  2.6815615018921867e-04  2.7655721992142171e-04  2.8463167151882750e-04  2.9232526937179073e-04  2.9958329737733811e-04  3.0635135525429441e-04  3.1257622913182491e-04  3.1820681621561584e-04  3.2319507845517457e-04  3.2749699587323293e-04  3.3107348724334212e-04  3.3389126433732146e-04  3.3592358634142438e-04  3.3715088346352752e-04  3.3756122308184190e-04  3.3715059796576640e-04  3.3592302367241669e-04  3.3389044072835544e-04  3.3107242602102978e-04  3.2749572632295970e-04  3.2319363444743062e-04  3.1820523468274070e-04  3.1257454850930767e-04  3.0634961397974506e-04  2.9958153252533182e-04  2.9232351549473662e-04  2.8462995971761322e-04  2.7655557718960741e-04  2.6815459901279363e-04  2.5948006841018049e-04  2.5058323234064783e-04  2.4151303628215789e-04  2.3231572235871329e-04  2.2303452730961990e-04  2.1370947390934181e-04  2.0437724734809865e-04  1.9507114672977325e-04  1.8582110115139089e-04  1.7665373969264405e-04  1.6759250495040274e-04  1.5865780039007056e-04  1.4986716264909003e-04  1.4123545092709403e-04  1.3277504665743601e-04  1.2449605771643123e-04  1.1640652244590844e-04  1.0851260971070043e-04  1.0081881206659536e-04  9.3328129866132671e-05  8.6042244776787842e-05  7.8961681731277894e-05  7.2085958779132298e-05  6.5413724670785746e-05  5.8942884290190754e-05  5.2670712269191939e-05  4.6593955276816281e-05  4.0708923588546399e-05  3.5011572612975049e-05  2.9497575093204258e-05  2.4162384709558396e-05  1.9001291756586026e-05  1.4009471162095414e-05  9.1820200991631729e-06  4.5139594967547258e-06  0.0000000000000000e+00  0.0000000000000000e+00  5.2255000775512384e-06  1.0636809121613458e-05  1.6240437554550881e-05  2.2042914885726317e-05  2.8050796476118804e-05  3.4270585009128734e-05  4.0708695253626660e-05  4.7371498137864004e-05  5.4265128001771105e-05  6.1395468442222842e-05  6.8768060855395297e-05  7.6388007185966084e-05  8.4259860600989134e-05  9.2387501289338376e-05  1.0077399686093071e-04  1.0942144637722581e-04  1.1833080718026032e-04  1.2750170393002305e-04  1.3693221957768531e-04  1.4661866842515818e-04  1.5655535196824880e-04  1