<?xml version="1.0"?>
<VTKFile type="UnstructuredGrid"  version="0.1"  >
<UnstructuredGrid>
<Piece  NumberOfPoints="10201" NumberOfCells="20000">
<Points>
<DataArray  type="Float64"  NumberOfComponents="3"  format="ascii">0 0 0  0.01 0 0  0.02 0 0  0.03 0 0  0.04 0 0  0.05 0 0  0.06 0 0  0.07000000000000001 0 0  0.08 0 0  0.09 0 0  0.1 0 0  0.11 0 0  0.12 0 0  0.13 0 0  0.14 0 0  0.15 0 0  0.16 0 0  0.17 0 0  0.18 0 0  0.19 0 0  0.2 0 0  0.21 0 0  0.22 0 0  0.23 0 0  0.24 0 0  0.25 0 0  0.26 0 0  0.27 0 0  0.28 0 0  0.29 0 0  0.3 0 0  0.31 0 0  0.32 0 0  0.33 0 0  0.34 0 0  0.35 0 0  0.36 0 0  0.37 0 0  0.38 0 0  0.39 0 0  0.4 0 0  0.41 0 0  0.42 0 0  0.43 0 0  0.44 0 0  0.45 0 0  0.46 0 0  0.47 0 0  0.48 0 0  0.49 0 0  0.5 0 0  0.51 0 0  0.52 0 0  0.53 0 0  0.54 0 0  0.55 0 0  0.5600000000000001 0 0  0.57 0 0  0.58 0 0  0.59 0 0  0.6 0 0  0.61 0 0  0.62 0 0  0.63 0 0  0.64 0 0  0.65 0 0  0.66 0 0  0.67 0 0  0.68 0 0  0.6899999999999999 0 0  0.7 0 0  0.71 0 0  0.72 0 0  0.73 0 0  0.74 0 0  0.75 0 0  0.76 0 0  0.77 0 0  0.78 0 0  0.79 0 0  0.8 0 0  0.8100000000000001 0 0  0.82 0 0  0.83 0 0  0.84 0 0  0.85 0 0  0.86 0 0  0.87 0 0  0.88 0 0  0.89 0 0  0.9 0 0  0.91 0 0  0.92 0 0  0.93 0 0  0.9399999999999999 0 0  0.95 0 0  0.96 0 0  0.97 0 0  0.98 0 0  0.99 0 0  1 0 0  0 0.01 0  0.01 0.01 0  0.02 0.01 0  0.03 0.01 0  0.04 0.01 0  0.05 0.01 0  0.06 0.01 0  0.07000000000000001 0.01 0  0.08 0.01 0  0.09 0.01 0  0.1 0.01 0  0.11 0.01 0  0.12 0.01 0  0.13 0.01 0  0.14 0.01 0  0.15 0.01 0  0.16 0.01 0  0.17 0.01 0  0.18 0.01 0  0.19 0.01 0  0.2 0.01 0  0.21 0.01 0  0.22 0.01 0  0.23 0.01 0  0.24 0.01 0  0.25 0.01 0  0.26 0.01 0  0.27 0.01 0  0.28 0.01 0  0.29 0.01 0  0.3 0.01 0  0.31 0.01 0  0.32 0.01 0  0.33 0.01 0  0.34 0.01 0  0.35 0.01 0  0.36 0.01 0  0.37 0.01 0  0.38 0.01 0  0.39 0.01 0  0.4 0.01 0  0.41 0.01 0  0.42 0.01 0  0.43 0.01 0  0.44 0.01 0  0.45 0.01 0  0.46 0.01 0  0.47 0.01 0  0.48 0.01 0  0.49 0.01 0  0.5 0.01 0  0.51 0.01 0  0.52 0.01 0  0.53 0.01 0  0.54 0.01 0  0.55 0.01 0  0.5600000000000001 0.01 0  0.57 0.01 0  0.58 0.01 0  0.59 0.01 0  0.6 0.01 0  0.61 0.01 0  0.62 0.01 0  0.63 0.01 0  0.64 0.01 0  0.65 0.01 0  0.66 0.01 0  0.67 0.01 0  0.68 0.01 0  0.6899999999999999 0.01 0  0.7 0.01 0  0.71 0.01 0  0.72 0.01 0  0.73 0.01 0  0.74 0.01 0  0.75 0.01 0  0.76 0.01 0  0.77 0.01 0  0.78 0.01 0  0.79 0.01 0  0.8 0.01 0  0.8100000000000001 0.01 0  0.82 0.01 0  0.83 0.01 0  0.84 0.01 0  0.85 0.01 0  0.86 0.01 0  0.87 0.01 0  0.88 0.01 0  0.89 0.01 0  0.9 0.01 0  0.91 0.01 0  0.92 0.01 0  0.93 0.01 0  0.9399999999999999 0.01 0  0.95 0.01 0  0.96 0.01 0  0.97 0.01 0  0.98 0.01 0  0.99 0.01 0  1 0.01 0  0 0.02 0  0.01 0.02 0  0.02 0.02 0  0.03 0.02 0  0.04 0.02 0  0.05 0.02 0  0.06 0.02 0  0.07000000000000001 0.02 0  0.08 0.02 0  0.09 0.02 0  0.1 0.02 0  0.11 0.02 0  0.12 0.02 0  0.13 0.02 0  0.14 0.02 0  0.15 0.02 0  0.16 0.02 0  0.17 0.02 0  0.18 0.02 0  0.19 0.02 0  0.2 0.02 0  0.21 0.02 0  0.22 0.02 0  0.23 0.02 0  0.24 0.02 0  0.25 0.02 0  0.26 0.02 0  0.27 0.02 0  0.28 0.02 0  0.29 0.02 0  0.3 0.02 0  0.31 0.02 0  0.32 0.02 0  0.33 0.02 0  0.34 0.02 0  0.35 0.02 0  0.36 0.02 0  0.37 0.02 0  0.38 0.02 0  0.39 0.02 0  0.4 0.02 0  0.41 0.02 0  0.42 0.02 0  0.43 0.02 0  0.44 0.02 0  0.45 0.02 0  0.46 0.02 0  0.47 0.02 0  0.48 0.02 0  0.49 0.02 0  0.5 0.02 0  0.51 0.02 0  0.52 0.02 0  0.53 0.02 0  0.54 0.02 0  0.55 0.02 0  0.5600000000000001 0.02 0  0.57 0.02 0  0.58 0.02 0  0.59 0.02 0  0.6 0.02 0  0.61 0.02 0  0.62 0.02 0  0.63 0.02 0  0.64 0.02 0  0.65 0.02 0  0.66 0.02 0  0.67 0.02 0  0.68 0.02 0  0.6899999999999999 0.02 0  0.7 0.02 0  0.71 0.02 0  0.72 0.02 0  0.73 0.02 0  0.74 0.02 0  0.75 0.02 0  0.76 0.02 0  0.77 0.02 0  0.78 0.02 0  0.79 0.02 0  0.8 0.02 0  0.8100000000000001 0.02 0  0.82 0.02 0  0.83 0.02 0  0.84 0.02 0  0.85 0.02 0  0.86 0.02 0  0.87 0.02 0  0.88 0.02 0  0.89 0.02 0  0.9 0.02 0  0.91 0.02 0  0.92 0.02 0  0.93 0.02 0  0.9399999999999999 0.02 0  0.95 0.02 0  0.96 0.02 0  0.97 0.02 0  0.98 0.02 0  0.99 0.02 0  1 0.02 0  0 0.03 0  0.01 0.03 0  0.02 0.03 0  0.03 0.03 0  0.04 0.03 0  0.05 0.03 0  0.06 0.03 0  0.07000000000000001 0.03 0  0.08 0.03 0  0.09 0.03 0  0.1 0.03 0  0.11 0.03 0  0.12 0.03 0  0.13 0.03 0  0.14 0.03 0  0.15 0.03 0  0.16 0.03 0  0.17 0.03 0  0.18 0.03 0  0.19 0.03 0  0.2 0.03 0  0.21 0.03 0  0.22 0.03 0  0.23 0.03 0  0.24 0.03 0  0.25 0.03 0  0.26 0.03 0  0.27 0.03 0  0.28 0.03 0  0.29 0.03 0  0.3 0.03 0  0.31 0.03 0  0.32 0.03 0  0.33 0.03 0  0.34 0.03 0  0.35 0.03 0  0.36 0.03 0  0.37 0.03 0  0.38 0.03 0  0.39 0.03 0  0.4 0.03 0  0.41 0.03 0  0.42 0.03 0  0.43 0.03 0  0.44 0.03 0  0.45 0.03 0  0.46 0.03 0  0.47 0.03 0  0.48 0.03 0  0.49 0.03 0  0.5 0.03 0  0.51 0.03 0  0.52 0.03 0  0.53 0.03 0  0.54 0.03 0  0.55 0.03 0  0.5600000000000001 0.03 0  0.57 0.03 0  0.58 0.03 0  0.59 0.03 0  0.6 0.03 0  0.61 0.03 0  0.62 0.03 0  0.63 0.03 0  0.64 0.03 0  0.65 0.03 0  0.66 0.03 0  0.67 0.03 0  0.68 0.03 0  0.6899999999999999 0.03 0  0.7 0.03 0  0.71 0.03 0  0.72 0.03 0  0.73 0.03 0  0.74 0.03 0  0.75 0.03 0  0.76 0.03 0  0.77 0.03 0  0.78 0.03 0  0.79 0.03 0  0.8 0.03 0  0.8100000000000001 0.03 0  0.82 0.03 0  0.83 0.03 0  0.84 0.03 0  0.85 0.03 0  0.86 0.03 0  0.87 0.03 0  0.88 0.03 0  0.89 0.03 0  0.9 0.03 0  0.91 0.03 0  0.92 0.03 0  0.93 0.03 0  0.9399999999999999 0.03 0  0.95 0.03 0  0.96 0.03 0  0.97 0.03 0  0.98 0.03 0  0.99 0.03 0  1 0.03 0  0 0.04 0  0.01 0.04 0  0.02 0.04 0  0.03 0.04 0  0.04 0.04 0  0.05 0.04 0  0.06 0.04 0  0.07000000000000001 0.04 0  0.08 0.04 0  0.09 0.04 0  0.1 0.04 0  0.11 0.04 0  0.12 0.04 0  0.13 0.04 0  0.14 0.04 0  0.15 0.04 0  0.16 0.04 0  0.17 0.04 0  0.18 0.04 0  0.19 0.04 0  0.2 0.04 0  0.21 0.04 0  0.22 0.04 0  0.23 0.04 0  0.24 0.04 0  0.25 0.04 0  0.26 0.04 0  0.27 0.04 0  0.28 0.04 0  0.29 0.04 0  0.3 0.04 0  0.31 0.04 0  0.32 0.04 0  0.33 0.04 0  0.34 0.04 0  0.35 0.04 0  0.36 0.04 0  0.37 0.04 0  0.38 0.04 0  0.39 0.04 0  0.4 0.04 0  0.41 0.04 0  0.42 0.04 0  0.43 0.04 0  0.44 0.04 0  0.45 0.04 0  0.46 0.04 0  0.47 0.04 0  0.48 0.04 0  0.49 0.04 0  0.5 0.04 0  0.51 0.04 0  0.52 0.04 0  0.53 0.04 0  0.54 0.04 0  0.55 0.04 0  0.5600000000000001 0.04 0  0.57 0.04 0  0.58 0.04 0  0.59 0.04 0  0.6 0.04 0  0.61 0.04 0  0.62 0.04 0  0.63 0.04 0  0.64 0.04 0  0.65 0.04 0  0.66 0.04 0  0.67 0.04 0  0.68 0.04 0  0.6899999999999999 0.04 0  0.7 0.04 0  0.71 0.04 0  0.72 0.04 0  0.73 0.04 0  0.74 0.04 0  0.75 0.04 0  0.76 0.04 0  0.77 0.04 0  0.78 0.04 0  0.79 0.04 0  0.8 0.04 0  0.8100000000000001 0.04 0  0.82 0.04 0  0.83 0.04 0  0.84 0.04 0  0.85 0.04 0  0.86 0.04 0  0.87 0.04 0  0.88 0.04 0  0.89 0.04 0  0.9 0.04 0  0.91 0.04 0  0.92 0.04 0  0.93 0.04 0  0.9399999999999999 0.04 0  0.95 0.04 0  0.96 0.04 0  0.97 0.04 0  0.98 0.04 0  0.99 0.04 0  1 0.04 0  0 0.05 0  0.01 0.05 0  0.02 0.05 0  0.03 0.05 0  0.04 0.05 0  0.05 0.05 0  0.06 0.05 0  0.07000000000000001 0.05 0  0.08 0.05 0  0.09 0.05 0  0.1 0.05 0  0.11 0.05 0  0.12 0.05 0  0.13 0.05 0  0.14 0.05 0  0.15 0.05 0  0.16 0.05 0  0.17 0.05 0  0.18 0.05 0  0.19 0.05 0  0.2 0.05 0  0.21 0.05 0  0.22 0.05 0  0.23 0.05 0  0.24 0.05 0  0.25 0.05 0  0.26 0.05 0  0.27 0.05 0  0.28 0.05 0  0.29 0.05 0  0.3 0.05 0  0.31 0.05 0  0.32 0.05 0  0.33 0.05 0  0.34 0.05 0  0.35 0.05 0  0.36 0.05 0  0.37 0.05 0  0.38 0.05 0  0.39 0.05 0  0.4 0.05 0  0.41 0.05 0  0.42 0.05 0  0.43 0.05 0  0.44 0.05 0  0.45 0.05 0  0.46 0.05 0  0.47 0.05 0  0.48 0.05 0  0.49 0.05 0  0.5 0.05 0  0.51 0.05 0  0.52 0.05 0  0.53 0.05 0  0.54 0.05 0  0.55 0.05 0  0.5600000000000001 0.05 0  0.57 0.05 0  0.58 0.05 0  0.59 0.05 0  0.6 0.05 0  0.61 0.05 0  0.62 0.05 0  0.63 0.05 0  0.64 0.05 0  0.65 0.05 0  0.66 0.05 0  0.67 0.05 0  0.68 0.05 0  0.6899999999999999 0.05 0  0.7 0.05 0  0.71 0.05 0  0.72 0.05 0  0.73 0.05 0  0.74 0.05 0  0.75 0.05 0  0.76 0.05 0  0.77 0.05 0  0.78 0.05 0  0.79 0.05 0  0.8 0.05 0  0.8100000000000001 0.05 0  0.82 0.05 0  0.83 0.05 0  0.84 0.05 0  0.85 0.05 0  0.86 0.05 0  0.87 0.05 0  0.88 0.05 0  0.89 0.05 0  0.9 0.05 0  0.91 0.05 0  0.92 0.05 0  0.93 0.05 0  0.9399999999999999 0.05 0  0.95 0.05 0  0.96 0.05 0  0.97 0.05 0  0.98 0.05 0  0.99 0.05 0  1 0.05 0  0 0.06 0  0.01 0.06 0  0.02 0.06 0  0.03 0.06 0  0.04 0.06 0  0.05 0.06 0  0.06 0.06 0  0.07000000000000001 0.06 0  0.08 0.06 0  0.09 0.06 0  0.1 0.06 0  0.11 0.06 0  0.12 0.06 0  0.13 0.06 0  0.14 0.06 0  0.15 0.06 0  0.16 0.06 0  0.17 0.06 0  0.18 0.06 0  0.19 0.06 0  0.2 0.06 0  0.21 0.06 0  0.22 0.06 0  0.23 0.06 0  0.24 0.06 0  0.25 0.06 0  0.26 0.06 0  0.27 0.06 0  0.28 0.06 0  0.29 0.06 0  0.3 0.06 0  0.31 0.06 0  0.32 0.06 0  0.33 0.06 0  0.34 0.06 0  0.35 0.06 0  0.36 0.06 0  0.37 0.06 0  0.38 0.06 0  0.39 0.06 0  0.4 0.06 0  0.41 0.06 0  0.42 0.06 0  0.43 0.06 0  0.44 0.06 0  0.45 0.06 0  0.46 0.06 0  0.47 0.06 0  0.48 0.06 0  0.49 0.06 0  0.5 0.06 0  0.51 0.06 0  0.52 0.06 0  0.53 0.06 0  0.54 0.06 0  0.55 0.06 0  0.5600000000000001 0.06 0  0.57 0.06 0  0.58 0.06 0  0.59 0.06 0  0.6 0.06 0  0.61 0.06 0  0.62 0.06 0  0.63 0.06 0  0.64 0.06 0  0.65 0.06 0  0.66 0.06 0  0.67 0.06 0  0.68 0.06 0  0.6899999999999999 0.06 0  0.7 0.06 0  0.71 0.06 0  0.72 0.06 0  0.73 0.06 0  0.74 0.06 0  0.75 0.06 0  0.76 0.06 0  0.77 0.06 0  0.78 0.06 0  0.79 0.06 0  0.8 0.06 0  0.8100000000000001 0.06 0  0.82 0.06 0  0.83 0.06 0  0.84 0.06 0  0.85 0.06 0  0.86 0.06 0  0.87 0.06 0  0.88 0.06 0  0.89 0.06 0  0.9 0.06 0  0.91 0.06 0  0.92 0.06 0  0.93 0.06 0  0.9399999999999999 0.06 0  0.95 0.06 0  0.96 0.06 0  0.97 0.06 0  0.98 0.06 0  0.99 0.06 0  1 0.06 0  0 0.07000000000000001 0  0.01 0.07000000000000001 0  0.02 0.07000000000000001 0  0.03 0.07000000000000001 0  0.04 0.07000000000000001 0  0.05 0.07000000000000001 0  0.06 0.07000000000000001 0  0.07000000000000001 0.07000000000000001 0  0.08 0.07000000000000001 0  0.09 0.07000000000000001 0  0.1 0.07000000000000001 0  0.11 0.07000000000000001 0  0.12 0.07000000000000001 0  0.13 0.07000000000000001 0  0.14 0.07000000000000001 0  0.15 0.07000000000000001 0  0.16 0.07000000000000001 0  0.17 0.0700
[...]
<PointData  Scalars="u"> 
<DataArray  type="Float64"  Name="u"  format="ascii">0.0000000000000000e+00  0.0000000000000000e+00  0.0000000000000000e+00  0.0000000000000000e+00  0.0000000000000000e+00  0.0000000000000000e+00  0.0000000000000000e+00  0.0000000000000000e+00  0.0000000000000000e+00  0.0000000000000000e+00  0.0000000000000000e+00  0.0000000000000000e+00  0.0000000000000000e+00  0.0000000000000000e+00  0.0000000000000000e+00  0.0000000000000000e+00  0.0000000000000000e+00  0.0000000000000000e+00  0.0000000000000000e+00  0.0000000000000000e+00  0.0000000000000000e+00  0.0000000000000000e+00  0.0000000000000000e+00  0.0000000000000000e+00  0.0000000000000000e+00  0.0000000000000000e+00  0.0000000000000000e+00  0.0000000000000000e+00  0.0000000000000000e+00  0.0000000000000000e+00  0.0000000000000000e+00  0.0000000000000000e+00  0.0000000000000000e+00  0.0000000000000000e+00  0.0000000000000000e+00  0.0000000000000000e+00  0.0000000000000000e+00  0.0000000000000000e+00  0.0000000000000000e+00  0.0000000000000000e+00  0.0000000000000000e+00  0.0000000000000000e+00  0.0000000000000000e+00  0.0000000000000000e+00  0.0000000000000000e+00  0.0000000000000000e+00  0.0000000000000000e+00  0.0000000000000000e+00  0.0000000000000000e+00  0.0000000000000000e+00  0.0000000000000000e+00  0.0000000000000000e+00  0.0000000000000000e+00  0.0000000000000000e+00  0.0000000000000000e+00  0.0000000000000000e+00  0.0000000000000000e+00  0.0000000000000000e+00  0.0000000000000000e+00  0.0000000000000000e+00  0.0000000000000000e+00  0.0000000000000000e+00  0.0000000000000000e+00  0.0000000000000000e+00  0.0000000000000000e+00  0.0000000000000000e+00  0.0000000000000000e+00  0.0000000000000000e+00  0.0000000000000000e+00  0.0000000000000000e+00  0.0000000000000000e+00  0.0000000000000000e+00  0.0000000000000000e+00  0.0000000000000000e+00  0.0000000000000000e+00  0.0000000000000000e+00  0.0000000000000000e+00  0.0000000000000000e+00  0.0000000000000000e+00  0.0000000000000000e+00  0.0000000000000000e+00  0.0000000000000000e+00  0.0000000000000000e+00  0.0000000000000000e+00  0.0000000000000000e+00  0.0000000000000000e+00  0.0000000000000000e+00  0.0000000000000000e+00  0.0000000000000000e+00  0.0000000000000000e+00  0.0000000000000000e+00  0.0000000000000000e+00  0.0000000000000000e+00  0.0000000000000000e+00  0.0000000000000000e+00  0.0000000000000000e+00  0.0000000000000000e+00  0.0000000000000000e+00  0.0000000000000000e+00  0.0000000000000000e+00  0.0000000000000000e+00  0.0000000000000000e+00  -7.7402894962756718e-04  -5.0152212491752024e-04  -1.0306758702381742e-04  -5.2231675029848230e-04  1.8054805125171681e-04  1.6759580931039725e-04  -1.5904603560009409e-04  1.9492962476038410e-04  -2.3940827598077489e-04  -4.4139144743643590e-05  2.6580328129502108e-04  3.1642172262068182e-04  -1.5601701249865006e-04  4.0756767610689710e-06  1.3491146711216797e-04  -1.4365013053324989e-04  5.5623609073879115e-04  -3.7189267867440863e-04  3.5260411306692362e-04  4.7845347714810639e-05  4.4019929205712605e-05  1.9046044663906090e-04  3.0200847750443702e-04  -2.3006357459036923e-04  7.5222700723519297e-04  -7.5062413109226159e-04  9.5012998796302971e-04  4.1536471362632862e-05  -4.5766831050335756e-04  9.8246693411419375e-04  5.8900052939195248e-04  -8.0301440424751080e-04  3.0346869951491586e-05  5.8849785321901530e-04  6.8744825055332115e-04  3.8605227559700497e-04  2.7724957573752875e-04  1.9364569028795011e-04  1.4410503709405754e-04  9.6781411918231438e-05  -5.8442275301895132e-05  -1.3379009864920415e-04  -6.4450330390737587e-04  4.5132754559304783e-05  8.2002604579424617e-04  -8.0068908374887897e-04  5.7463628957973877e-04  -3.2407147545632567e-04  5.2683897410911706e-05  9.1735938962229680e-05  2.9007907598605561e-04  -2.5055651854554047e-04  -2.6757630447438176e-05  4.4752148241989533e-05  5.9533683806313101e-05  4.6607587841348430e-05  3.8721530897435142e-05  3.6629747481274052e-05  3.4044778077349324e-05  3.2630481024856982e-05  3.2315165362616021e-05  2.9151289529458120e-05  3.0115647930149792e-05  2.3790333494753217e-05  2.3304502732964564e-05  2.5270074544456478e-05  6.0212583796898396e-05  3.1421060236555974e-05  7.8745517678258309e-06  1.6998452467271172e-05  2.0958021995304356e-05  2.0721183295322815e-05  2.0638383054785694e-05  1.6584308722413562e-05  2.8703885194935153e-05  1.6993486728900732e-05  9.3773828028189321e-06  1.5447690547682732e-05  1.6787074690450656e-05  1.5759785318952482e-05  1.2701940688081560e-05  1.3476188295736372e-05  1.1972691548316426e-05  1.2768258514841336e-05  1.1056392575266376e-05  8.8991316054162610e-06  6.1591802044215683e-06  1.0983407871512203e-05  8.3786656361534724e-06  2.8344964847936141e-06  6.2651025125036434e-06  7.9557152918612483e-06  3.6389716459506566e-06  3.2703027307889775e-06  5.7418812818730930e-06  5.1285508716694454e-06  5.6192966407996120e-06  2.8987339306255964e-06  4.0196756699888521e-07  0.0000000000000000e+00  0.0000000000000000e+00  4.9872238517321694e-04  -5.1918642304954520e-04  -4.4763444824680098e-04  -3.3873521167246629e-04  -5.1173401564255422e-04  2.7287169224899527e-04  9.5422143984215063e-05  1.4882601095543631e-04  -4.9600174255383888e-04  -9.5631160590388853e-05  3.4809523965850830e-04  2.9342809106599793e-04  3.0967599231318044e-04  3.0355287265478482e-04  -1.0847989362763500e-03  1.0494441462714226e-03  -1.2909251598545725e-04  1.2175304203290312e-04  7.1144986137415002e-04  -8.4587128549534437e-04  1.3741790532427567e-03  -1.3363172162923175e-03  1.6062103656775445e-03  -1.2894433718681126e-03  1.2699911711529163e-03  -3.0622820813243649e-04  -2.5574920172752069e-04  1.5390395297049499e-03  -1.4809775068083796e-03  2.5311857711965717e-04  1.5719618978079545e-03  -3.9599092752259408e-04  -8.7604901184871564e-04  1.2361858542762571e-04  1.5159964661420658e-03  8.8780347657143937e-04  6.0640544036797621e-04  4.7846119961478272e-04  3.8027196308970614e-04  2.9775183023492363e-04  2.4787890016215677e-04  1.0158794542661359e-04  -1.0969640821406712e-03  -8.9282403217363633e-04  1.3739080950017266e-03  7.1916090531550447e-04  -1.3302249821442592e-03  1.1408305529151082e-03  -3.7639768540949218e-04  -2.2617489162765636e-04  7.4237475277894082e-04  2.4108347884445525e-05  -3.1210336110832357e-04  6.8091088768075948e-05  1.1797523945242319e-04  1.0930298647997969e-04  8.4021727311898398e-05  7.3632126049055446e-05  7.3127471676543180e-05  6.8537222217124419e-05  6.3853543415834873e-05  6.5347579416860855e-05  6.1985274096593157e-05  5.4984021014170778e-05  5.4817742193629926e-05  3.7669967486353613e-05  8.8991102856670530e-05  1.0310856455658023e-04  3.1701351745814618e-05  2.2579509710560961e-05  4.5126942398553835e-05  4.2252390368022583e-05  4.6188793147145630e-05  3.2382586197952459e-05  4.5173956795399605e-05  5.4444433527459411e-05  2.0470744283274307e-05  2.5601290590664678e-05  3.4660983162386380e-05  3.0215829640104047e-05  2.9805198595817326e-05  2.5469974014562991e-05  2.5258450730593634e-05  2.5803854743986564e-05  2.0857427688953508e-05  1.8716611596314424e-05  1.9152371159268246e-05  1.6451867209917052e-05  9.6331840933401737e-06  1.5993410040214081e-05  9.6774917901274227e-06  1.7479498061485439e-05  -4.9640182831927599e-06  2.0279195514411396e-05  -9.7205800217103701e-07  5.6159245474535159e-06  4.5392040541720038e-06  6.5240145145396951e-06  9.8105193786211971e-06  0.0000000000000000e+00  0.0000000000000000e+00  8.0907963718078419e-05  1.6505044362262965e-04  -3.2212079294381744e-04  1.7232779056418265e-04  -1.0705168904682448e-03  4.6943584449177602e-04  4.5999302548509126e-04  -4.2502113549561563e-04  6.5450670144497330e-04  -1.0183349113427791e-03  -2.0172134460321253e-04  8.2247645266146727e-04  7.2305897866208383e-04  -4.4881217045749728e-04  3.5791725093570279e-04  -4.9772708506374424e-04  7.9564971880133892e-05  1.2996123970037909e-03  -1.2154469524558770e-03  1.4186205375347595e-03  -7.2625342076461624e-04  8.0852377234277547e-04  -4.6738816818314580e-04  1.4036724840009091e-03  -1.5684515710434545e-03  2.3721812835712664e-03  -2.2738184396072884e-03  2.1118140818350475e-03  4.8474369364577032e-04  -2.1142046356430349e-03  2.2405387173672999e-03  1.7390255772830603e-03  -2.4933623309840976e-03  -4.0565806559024042e-04  1.0336789311447929e-03  1.9075494090996631e-03  1.0473389337547312e-03  8.3033849074988422e-04  6.7900762392599564e-04  5.9660763290352600e-04  4.8576995557109013e-04  1.2236697109450391e-04  -1.0469119743933449e-05  -1.9019009610279020e-03  -2.9950807566641983e-04  2.6170261768703913e-03  -1.5612086329882349e-03  8.7171983545622196e-04  -3.8829557645286090e-04  2.0098339462741414e-04  3.0723528438673947e-05  1.0336490918899980e-03  -6.0548311076504924e-04  -1.0323027325968137e-04  1.6869392626596099e-04  2.0106226580861265e-04  1.5473472090282093e-04  1.2380476609591024e-04  1.1406227278970144e-04  1.0821179097289190e-04  1.0413098112503649e-04  1.0046402387047434e-04  9.4124345494172858e-05  9.6729144288626852e-05  7.7804275148396149e-05  8.0890489841972763e-05  7.2470387273696607e-05  1.7452343396704627e-04  1.0563549015479819e-04  2.7719700267457932e-05  5.1185810109464725e-05  6.9275374888173039e-05  6.6125727125463201e-05  6.7691112635673425e-05  4.9726686261723519e-05  8.3447335080576637e-05  5.7117804344460017e-05  2.9767486636802884e-05  4.7035629414007079e-05  5.2176710793712473e-05  4.5258597683502258e-05  3.8608925759425411e-05  3.9005466427523243e-05  3.5145116897595753e-05  3.8337891979802163e-05  3.0172879548856960e-05  2.4217347543469178e-05  2.0660594059554555e-05  3.2250728795985608e-05  1.5663908747458843e-05  8.1997579465538447e-06  1.7321973065781104e-05  2.5524165371493878e-05  -3.1773188972951201e-06  1.3247283073593144e-05  7.8798652717795130e-06  4.4297698544966726e-06  2.5505116455846702e-06  -2.4686363631581947e-06  0.0000000000000000e+00  0.0000000000000000e+00  3.0579113659779766e-04  4.0129383781552447e-04  -3.7970143528296774e-04  -2.4827370122967873e-04  1.1574617710222821e-04  -9.6981172080499610e-04  9.2499298533064999e-04  5.2458659209218177e-04  7.4137835691154769e-06  -4.3450996072696394e-04  -4.3637263941482781e-04  3.1413607324422000e-04  6.9764873489564340e-04  8.3756999900943597e-04  7.2874298727991691e-05  -1.5688368602061217e-03  1.5724968293392731e-03  -5.7957905040812146e-04  8.4972548367877971e-04  3.8203650340177706e-04  -8.0327472351919105e-04  1.9073850948407777e-03  -2.0106031725157705e-03  2.4164998537047379e-03  -1.6148538542118975e-03  1.3551547408367625e-03  3.2575157463114859e-04  -1.4748043270247295e-03  3.2781570423821771e-03  -2.2701600673765334e-03  -4.5395690456831412e-04  3.3000490993751299e-03  -4.9733052560765791e-05  -2.5479876026151997e-03  -8.0151302445077201e-05  2.6077252401168951e-03  1.8997321743927031e-03  1.2818466029270884e-03  1.0705735857895675e-03  9.0249332329586803e-04  7.8225097663237628e-04  6.7867603258332289e-04  2.1186529264922494e-04  -1.6542565516347398e-03  -2.0458327031873894e-03  2.0663074904392655e-03  2.1293584057901728e-03  -2.9377512283302971e-03  2.4414550531117575e-03  -9.7758257085106006e-04  -1.9340258288856415e-04  1.2090638338547546e-03  4.0479385060366365e-04  -7.3981251005408248e-04  1.0174050026955504e-04  2.5932252320175995e-04  2.5590800335814265e-04  1.9530228232470832e-04  1.6560456877958227e-04  1.5930997251217322e-04  1.4708429950646235e-04  1.3832143889680801e-04  1.3948770990939978e-04  1.2927955740222130e-04  1.2126749345890235e-04  1.1224376290296700e-04  8.8920655344161136e-05  1.6281286985476173e-04  2.2122907356477689e-04  8.1536961137469363e-05  4.3177819349592524e-05  8.8372391497460237e-05  8.7872720803758723e-05  9.3820218194574286e-05  7.2859090656917020e-05  8.8415150750791814e-05  1.1105143983138601e-04  4.6457154457980713e-05  4.9662968227543917e-05  6.8315480545615221e-05  6.4127576739914850e-05  6.0685845329903413e-05  4.9567656332063427e-05  4.9594484792905642e-05  4.7413069515904089e-05  4.2838859477872640e-05  3.7001084368415026e-05  3.4019281332568258e-05  2.6092033411022220e-05  2.6870479559786079e-05  2.9614581094297278e-05  1.1039374091424198e-05  2.5827853178252868e-05  6.3268286163028407e-07  2.7774184313681422e-05  -3.6780651285636667e-06  1.0085149387927277e-05  5.6860976923183329e-06  4.6211333122647302e-06  0.0000000000000000e+00  0.0000000000000000e+00  2.1016434343541708e-04  3.9176974900917633e-04  6.9307316239485797e-04  -5.4294301667132810e-04  1.7643938176010673e-04  -1.0940040002613688e-03  4.6735685043996817e-04  9.9454098610281738e-04  -1.9732227112873380e-04  9.8943218339224686e-04  -1.5094722927038633e-03  -2.7212571898425301e-04  1.2278718483681940e-03  1.0438141062192349e-03  -2.9872061576088763e-04  5.7265873456785769e-04  -1.3899648866046300e-03  8.2841367159477812e-04  1.3281784507777619e-03  -1.3377434993266648e-03  2.0314537576991707e-03  -1.4429986906891882e-03  1.8085005388121557e-03  -1.3892646426976760e-03  2.6292506712998886e-03  -2.7032666653151946e-03  3.6076373224773447e-03  -2.9650784033156460e-03  2.2775230973901888e-03  1.5577373392132287e-03  -3.6240484770767543e-03  2.8317896174555176e-03  3.3442949101576145e-03  -3.4036239044084060e-03  -1.3950488453210630e-03  1.2315718191170495e-03  3.3206273208768772e-03  1.9772878925391844e-03  1.5686193010396388e-03  1.3275934504945199e-03  1.1749308895408056e-03  9.8374227709029961e-04  4.7302098807397810e-04  1.0570201437527106e-04  -3.0190537302079551e-03  -1.0376779899754821e-03  4.1373775438640096e-03  -1.3159582539908656e-03  9.3215049794080610e-05  3.8596965159572372e-04  -3.9296523828961040e-05  -9.7119448120276810e-05  1.7609008536138009e-03  -6.3043213106447329e-04  -3.5632945391231503e-04  2.5732191916941064e-04  3.4241222100159241e-04  2.8640711439473340e-04  2.3051301973325827e-04  2.0929808839749507e-04  1.9997924810267841e-04  1.8896089319798086e-04  1.7876787286584889e-04  1.7160185883158079e-04  1.6974969644769768e-04  1.4232195263686712e-04  1.4405456257357102e-04  1.2246308384540849e-04  2.7647101517119305e-04  2.0423989821863794e-04  6.1948284771164695e-05  8.1028619691798877e-05  1.1870827609810082e-04  1.1164525965752430e-04  1.1551833407217242e-04  8.3322843029311872e-05  1.3603355057023104e-04  1.0470300425213954e-04  5.1263866593882524e-05  7.5695970091303782e-05  8.4842977539862816e-05  7.4294287854766882e-05  6.7825234665527429e-05  6.3864508877510155e-05  5.9270635512205022e-05  6.0716351189373270e-05  4.7514409525716648e-05  3.8864493684872983e-05  3.5490238509969093e-05  4.3596890888056232e-05  2.1216578043247591e-05  1.9947512415261044e-05  2.5290967604143094e-05  3.6572050475196073e-05  -1.2771415657319016e-05  2.5967017328912601e-05  3.3014484890638734e-06  4.6273474589546253e-06  2.7679353599240310e-06  0.0000000000000000e+00  0.0000000000000000e+00  2.9632291046009090e-04  4.7426523902008500e-04  3.4160219766582114e-04  2.7996475482527683e-04  -1.5989906050857867e-04  2.2852352522405864e-04  -1.4017994205335602e-03  1.3299098075949005e-03  9.4921545253400289e-04  -3.7674741612113644e-05  -1.1335303758337834e-04  -9.3107853360344822e-04  2.6744399098067992e-04  1.2803322781096778e-03  1.3094802305135926e-03  -1.2966724296507122e-04  -1.5113386221011619e-03  1.2249676237585595e-03  -3.6099031934047697e-04  1.4193834037937499e-03  -1.0423321524383293e-04  -1.9206557090625754e-04  1.5814643666032147e-03  -1.7616202203913701e-03  2.3225227831912467e-03  -1.0847022271713563e-03  7.6800337656727905e-04  1.3703078827552195e-03  -2.5128288909435758e-03  4.5487401199279503e-03  -2.3059022217978712e-03  -1.6553356013771490e-03  4.7183130059564021e-03  7.2715769372801804e-04  -4.0690036128089866e-03  -5.0262831040413076e-04  3.3450204982643111e-03  3.2832028270133743e-03  2.2094991560332837e-03  1.8670506818303143e-03  1.6096919074276316e-03  1.4240054238806032e-03  1.1981629489731358e-03  3.9023627964937491e-04  -1.9385413882855593e-03  -3.3490093880553387e-03  2.3143816637454673e-03  3.7276633760403698e-03  -3.6793049031542619e-03  2.7687095747190049e-03  -9.8889226483663169e-04  -1.3018534650026013e-04  1.3422455912064936e-03  9.9248439764399029e-04  -1.0157302937312002e-03  5.1716091888684993e-05  3.9925693162988013e-04  4.0864749212927748e-04  3.1811341571893835e-04  2.6794174838133211e-04  2.5534356888962974e-04  2.3888104117441737e-04  2.2671046894837533e-04  2.2317882011161594e-04  2.0760338823669203e-04  1.9826563833412312e-04  1.7623005191122460e-04  1.5413866065823575e-04  2.2740546788928073e-04  3.3971803581878427e-04  1.5416753633132162e-04  7.0208135449074770e-05  1.2792303067467236e-04  1.3785608184433147e-04  1.4210688415545672e-04  1.1869999690844211e-04  1.2635884505423010e-04  1.6608759017911327e-04  7.9277679469646665e-05  7.3004282266750847e-05  1.0043161654351576e-04  9.7419439124687903e-05  8.7005889107727070e-05  7.3151538628946151e-05  7.2809697916675881e-05  6.9428293833337761e-05  6.6818940435576401e-05  5.4339118134892110e-05  4.6327130979195262e-05  3.7013010552803809e-05  4.3800782377197568e-05  3.1731544694394513e-05  1.1649709830281816e-05  3.2465329185565866e-05  1.4629396727575925e-05  1.9883734050604805e-05  8.1816570228021285e-07  8.9444527469441334e-06  3.1614829887747250e-06  0.0000000000000000e+00  0.0000000000000000e+00  1.1493937628550397e-04  3.5962448696656691e-04  6.7461023688437970e-04  6.7276031603338187e-04  -4.3592072079854711e-04  3.2065924468588678e-04  -8.4751473308538965e-04  1.4495630948334239e-04  1.5180180765124438e-03  1.4303952051935399e-04  9.9796151354679093e-04  -1.5309504981959599e-03  -5.5460456291543344e-04  1.3877170677827053e-03  1.5202098767491824e-03  9.4753249974901366e-05  4.3079393749564444e-04  -1.6970580319911168e-03  1.1492763513691853e-03  1.1933157326743916e-03  -8.0548482875375613e-04  1.8619098329260612e-03  -1.2171314528351667e-03  2.1086235817430578e-03  -1.6071932778094840e-03  3.1055811384686320e-03  -2.8823838345553047e-03  3.8422319774227441e-03  -2.7260710098777853e-03  1.8613375704023619e-03  2.7734702984070266e-03  -4.4211328486678846e-03  2.8396495503708406e-03  5.0789640343858224e-03  -3.6880169911263916e-03  -2.8182059480368641e-03  1.3474127948318387e-03  4.5518329309239530e-03  3.2494729347480123e-03  2.5400989166552393e-03  2.1817518941594726e-03  1.9377565519800909e-03  1.6569832859968142e-03  9.5562774429751047e-04  1.6690156612369285e-04  -3.7629181254598340e-03  -2.0403021314756866e-03  5.1196774672112241e-03  -5.7651382280261626e-04  -7.4726954876887675e-04  1.2165115793981605e-03  -4.0571709846123081e-04  3.5350329038508698e-05  2.2216915700690324e-03  -3.2491538341335017e-04  -6.9804227830196314e-04  3.2149675131369116e-04  5.0604914824210604e-04  4.4877634153234035e-04  3.5665040526395301e-04  3.1581719562388756e-04  3.0065741413835264e-04  2.8196978221986405e-04  2.6736242698485908e-04  2.5950003744498653e-04  2.4964688330250575e-04  2.1972140614106043e-04  2.1042523877074409e-04  1.8595273771258755e-04  3.6292620158003577e-04  3.1900113743796418e-04  1.1522932830373602e-04  1.0981444263365983e-04  1.6602757009342452e-04  1.5935318974890749e-04  1.6391327779381330e-04  1.2330553820583988e-04  1.8442550680423763e-04  1.5595253909258755e-04  7.5354786469989242e-05  1.0240465021376378e-04  1.1593605041681709e-04  1.0610429274374874e-04  9.6364550571544777e-05  8.5051829116028894e-05  8.0730459887156969e-05  7.7974694115515061e-05  6.6554271080413447e-05  5.5077584824224578e-05  4.9935526013363010e-05  5.1990694112176680e-05  3.7022078658876151e-05  2.8968491264595811e-05  2.5067516814770645e-05  3.7728342459133414e-05  -1.1702744134131033e-05  2.8115495890822218e-05  -5.6413170215339887e-07  4.7447149947329025e-06  0.0000000000000000e+00  0.0000000000000000e+00  2.5853947993943846e-04  4.8007632452351989e-04  5.2262383537283953e-04  4.9150643454747944e-04  7.1784896384801560e-04  -2.5969940516154956e-04  1.4357321947278698e-04  -1.3491291350571613e-03  1.3991493209158804e-03  1.4509572688209101e-03  1.9137078350372442e-04  -6.1938370952648294e-05  -1.2201108459422908e-03  1.9167889524997534e-04  1.699