<?xml version="1.0"?>
<VTKFile type="UnstructuredGrid"  version="0.1"  >
<UnstructuredGrid>
<Piece  NumberOfPoints="10201" NumberOfCells="20000">
<Points>
<DataArray  type="Float64"  NumberOfComponents="3"  format="ascii">0 0 0  0.01 0 0  0.02 0 0  0.03 0 0  0.04 0 0  0.05 0 0  0.06 0 0  0.07000000000000001 0 0  0.08 0 0  0.09 0 0  0.1 0 0  0.11 0 0  0.12 0 0  0.13 0 0  0.14 0 0  0.15 0 0  0.16 0 0  0.17 0 0  0.18 0 0  0.19 0 0  0.2 0 0  0.21 0 0  0.22 0 0  0.23 0 0  0.24 0 0  0.25 0 0  0.26 0 0  0.27 0 0  0.28 0 0  0.29 0 0  0.3 0 0  0.31 0 0  0.32 0 0  0.33 0 0  0.34 0 0  0.35 0 0  0.36 0 0  0.37 0 0  0.38 0 0  0.39 0 0  0.4 0 0  0.41 0 0  0.42 0 0  0.43 0 0  0.44 0 0  0.45 0 0  0.46 0 0  0.47 0 0  0.48 0 0  0.49 0 0  0.5 0 0  0.51 0 0  0.52 0 0  0.53 0 0  0.54 0 0  0.55 0 0  0.5600000000000001 0 0  0.57 0 0  0.58 0 0  0.59 0 0  0.6 0 0  0.61 0 0  0.62 0 0  0.63 0 0  0.64 0 0  0.65 0 0  0.66 0 0  0.67 0 0  0.68 0 0  0.6899999999999999 0 0  0.7 0 0  0.71 0 0  0.72 0 0  0.73 0 0  0.74 0 0  0.75 0 0  0.76 0 0  0.77 0 0  0.78 0 0  0.79 0 0  0.8 0 0  0.8100000000000001 0 0  0.82 0 0  0.83 0 0  0.84 0 0  0.85 0 0  0.86 0 0  0.87 0 0  0.88 0 0  0.89 0 0  0.9 0 0  0.91 0 0  0.92 0 0  0.93 0 0  0.9399999999999999 0 0  0.95 0 0  0.96 0 0  0.97 0 0  0.98 0 0  0.99 0 0  1 0 0  0 0.01 0  0.01 0.01 0  0.02 0.01 0  0.03 0.01 0  0.04 0.01 0  0.05 0.01 0  0.06 0.01 0  0.07000000000000001 0.01 0  0.08 0.01 0  0.09 0.01 0  0.1 0.01 0  0.11 0.01 0  0.12 0.01 0  0.13 0.01 0  0.14 0.01 0  0.15 0.01 0  0.16 0.01 0  0.17 0.01 0  0.18 0.01 0  0.19 0.01 0  0.2 0.01 0  0.21 0.01 0  0.22 0.01 0  0.23 0.01 0  0.24 0.01 0  0.25 0.01 0  0.26 0.01 0  0.27 0.01 0  0.28 0.01 0  0.29 0.01 0  0.3 0.01 0  0.31 0.01 0  0.32 0.01 0  0.33 0.01 0  0.34 0.01 0  0.35 0.01 0  0.36 0.01 0  0.37 0.01 0  0.38 0.01 0  0.39 0.01 0  0.4 0.01 0  0.41 0.01 0  0.42 0.01 0  0.43 0.01 0  0.44 0.01 0  0.45 0.01 0  0.46 0.01 0  0.47 0.01 0  0.48 0.01 0  0.49 0.01 0  0.5 0.01 0  0.51 0.01 0  0.52 0.01 0  0.53 0.01 0  0.54 0.01 0  0.55 0.01 0  0.5600000000000001 0.01 0  0.57 0.01 0  0.58 0.01 0  0.59 0.01 0  0.6 0.01 0  0.61 0.01 0  0.62 0.01 0  0.63 0.01 0  0.64 0.01 0  0.65 0.01 0  0.66 0.01 0  0.67 0.01 0  0.68 0.01 0  0.6899999999999999 0.01 0  0.7 0.01 0  0.71 0.01 0  0.72 0.01 0  0.73 0.01 0  0.74 0.01 0  0.75 0.01 0  0.76 0.01 0  0.77 0.01 0  0.78 0.01 0  0.79 0.01 0  0.8 0.01 0  0.8100000000000001 0.01 0  0.82 0.01 0  0.83 0.01 0  0.84 0.01 0  0.85 0.01 0  0.86 0.01 0  0.87 0.01 0  0.88 0.01 0  0.89 0.01 0  0.9 0.01 0  0.91 0.01 0  0.92 0.01 0  0.93 0.01 0  0.9399999999999999 0.01 0  0.95 0.01 0  0.96 0.01 0  0.97 0.01 0  0.98 0.01 0  0.99 0.01 0  1 0.01 0  0 0.02 0  0.01 0.02 0  0.02 0.02 0  0.03 0.02 0  0.04 0.02 0  0.05 0.02 0  0.06 0.02 0  0.07000000000000001 0.02 0  0.08 0.02 0  0.09 0.02 0  0.1 0.02 0  0.11 0.02 0  0.12 0.02 0  0.13 0.02 0  0.14 0.02 0  0.15 0.02 0  0.16 0.02 0  0.17 0.02 0  0.18 0.02 0  0.19 0.02 0  0.2 0.02 0  0.21 0.02 0  0.22 0.02 0  0.23 0.02 0  0.24 0.02 0  0.25 0.02 0  0.26 0.02 0  0.27 0.02 0  0.28 0.02 0  0.29 0.02 0  0.3 0.02 0  0.31 0.02 0  0.32 0.02 0  0.33 0.02 0  0.34 0.02 0  0.35 0.02 0  0.36 0.02 0  0.37 0.02 0  0.38 0.02 0  0.39 0.02 0  0.4 0.02 0  0.41 0.02 0  0.42 0.02 0  0.43 0.02 0  0.44 0.02 0  0.45 0.02 0  0.46 0.02 0  0.47 0.02 0  0.48 0.02 0  0.49 0.02 0  0.5 0.02 0  0.51 0.02 0  0.52 0.02 0  0.53 0.02 0  0.54 0.02 0  0.55 0.02 0  0.5600000000000001 0.02 0  0.57 0.02 0  0.58 0.02 0  0.59 0.02 0  0.6 0.02 0  0.61 0.02 0  0.62 0.02 0  0.63 0.02 0  0.64 0.02 0  0.65 0.02 0  0.66 0.02 0  0.67 0.02 0  0.68 0.02 0  0.6899999999999999 0.02 0  0.7 0.02 0  0.71 0.02 0  0.72 0.02 0  0.73 0.02 0  0.74 0.02 0  0.75 0.02 0  0.76 0.02 0  0.77 0.02 0  0.78 0.02 0  0.79 0.02 0  0.8 0.02 0  0.8100000000000001 0.02 0  0.82 0.02 0  0.83 0.02 0  0.84 0.02 0  0.85 0.02 0  0.86 0.02 0  0.87 0.02 0  0.88 0.02 0  0.89 0.02 0  0.9 0.02 0  0.91 0.02 0  0.92 0.02 0  0.93 0.02 0  0.9399999999999999 0.02 0  0.95 0.02 0  0.96 0.02 0  0.97 0.02 0  0.98 0.02 0  0.99 0.02 0  1 0.02 0  0 0.03 0  0.01 0.03 0  0.02 0.03 0  0.03 0.03 0  0.04 0.03 0  0.05 0.03 0  0.06 0.03 0  0.07000000000000001 0.03 0  0.08 0.03 0  0.09 0.03 0  0.1 0.03 0  0.11 0.03 0  0.12 0.03 0  0.13 0.03 0  0.14 0.03 0  0.15 0.03 0  0.16 0.03 0  0.17 0.03 0  0.18 0.03 0  0.19 0.03 0  0.2 0.03 0  0.21 0.03 0  0.22 0.03 0  0.23 0.03 0  0.24 0.03 0  0.25 0.03 0  0.26 0.03 0  0.27 0.03 0  0.28 0.03 0  0.29 0.03 0  0.3 0.03 0  0.31 0.03 0  0.32 0.03 0  0.33 0.03 0  0.34 0.03 0  0.35 0.03 0  0.36 0.03 0  0.37 0.03 0  0.38 0.03 0  0.39 0.03 0  0.4 0.03 0  0.41 0.03 0  0.42 0.03 0  0.43 0.03 0  0.44 0.03 0  0.45 0.03 0  0.46 0.03 0  0.47 0.03 0  0.48 0.03 0  0.49 0.03 0  0.5 0.03 0  0.51 0.03 0  0.52 0.03 0  0.53 0.03 0  0.54 0.03 0  0.55 0.03 0  0.5600000000000001 0.03 0  0.57 0.03 0  0.58 0.03 0  0.59 0.03 0  0.6 0.03 0  0.61 0.03 0  0.62 0.03 0  0.63 0.03 0  0.64 0.03 0  0.65 0.03 0  0.66 0.03 0  0.67 0.03 0  0.68 0.03 0  0.6899999999999999 0.03 0  0.7 0.03 0  0.71 0.03 0  0.72 0.03 0  0.73 0.03 0  0.74 0.03 0  0.75 0.03 0  0.76 0.03 0  0.77 0.03 0  0.78 0.03 0  0.79 0.03 0  0.8 0.03 0  0.8100000000000001 0.03 0  0.82 0.03 0  0.83 0.03 0  0.84 0.03 0  0.85 0.03 0  0.86 0.03 0  0.87 0.03 0  0.88 0.03 0  0.89 0.03 0  0.9 0.03 0  0.91 0.03 0  0.92 0.03 0  0.93 0.03 0  0.9399999999999999 0.03 0  0.95 0.03 0  0.96 0.03 0  0.97 0.03 0  0.98 0.03 0  0.99 0.03 0  1 0.03 0  0 0.04 0  0.01 0.04 0  0.02 0.04 0  0.03 0.04 0  0.04 0.04 0  0.05 0.04 0  0.06 0.04 0  0.07000000000000001 0.04 0  0.08 0.04 0  0.09 0.04 0  0.1 0.04 0  0.11 0.04 0  0.12 0.04 0  0.13 0.04 0  0.14 0.04 0  0.15 0.04 0  0.16 0.04 0  0.17 0.04 0  0.18 0.04 0  0.19 0.04 0  0.2 0.04 0  0.21 0.04 0  0.22 0.04 0  0.23 0.04 0  0.24 0.04 0  0.25 0.04 0  0.26 0.04 0  0.27 0.04 0  0.28 0.04 0  0.29 0.04 0  0.3 0.04 0  0.31 0.04 0  0.32 0.04 0  0.33 0.04 0  0.34 0.04 0  0.35 0.04 0  0.36 0.04 0  0.37 0.04 0  0.38 0.04 0  0.39 0.04 0  0.4 0.04 0  0.41 0.04 0  0.42 0.04 0  0.43 0.04 0  0.44 0.04 0  0.45 0.04 0  0.46 0.04 0  0.47 0.04 0  0.48 0.04 0  0.49 0.04 0  0.5 0.04 0  0.51 0.04 0  0.52 0.04 0  0.53 0.04 0  0.54 0.04 0  0.55 0.04 0  0.5600000000000001 0.04 0  0.57 0.04 0  0.58 0.04 0  0.59 0.04 0  0.6 0.04 0  0.61 0.04 0  0.62 0.04 0  0.63 0.04 0  0.64 0.04 0  0.65 0.04 0  0.66 0.04 0  0.67 0.04 0  0.68 0.04 0  0.6899999999999999 0.04 0  0.7 0.04 0  0.71 0.04 0  0.72 0.04 0  0.73 0.04 0  0.74 0.04 0  0.75 0.04 0  0.76 0.04 0  0.77 0.04 0  0.78 0.04 0  0.79 0.04 0  0.8 0.04 0  0.8100000000000001 0.04 0  0.82 0.04 0  0.83 0.04 0  0.84 0.04 0  0.85 0.04 0  0.86 0.04 0  0.87 0.04 0  0.88 0.04 0  0.89 0.04 0  0.9 0.04 0  0.91 0.04 0  0.92 0.04 0  0.93 0.04 0  0.9399999999999999 0.04 0  0.95 0.04 0  0.96 0.04 0  0.97 0.04 0  0.98 0.04 0  0.99 0.04 0  1 0.04 0  0 0.05 0  0.01 0.05 0  0.02 0.05 0  0.03 0.05 0  0.04 0.05 0  0.05 0.05 0  0.06 0.05 0  0.07000000000000001 0.05 0  0.08 0.05 0  0.09 0.05 0  0.1 0.05 0  0.11 0.05 0  0.12 0.05 0  0.13 0.05 0  0.14 0.05 0  0.15 0.05 0  0.16 0.05 0  0.17 0.05 0  0.18 0.05 0  0.19 0.05 0  0.2 0.05 0  0.21 0.05 0  0.22 0.05 0  0.23 0.05 0  0.24 0.05 0  0.25 0.05 0  0.26 0.05 0  0.27 0.05 0  0.28 0.05 0  0.29 0.05 0  0.3 0.05 0  0.31 0.05 0  0.32 0.05 0  0.33 0.05 0  0.34 0.05 0  0.35 0.05 0  0.36 0.05 0  0.37 0.05 0  0.38 0.05 0  0.39 0.05 0  0.4 0.05 0  0.41 0.05 0  0.42 0.05 0  0.43 0.05 0  0.44 0.05 0  0.45 0.05 0  0.46 0.05 0  0.47 0.05 0  0.48 0.05 0  0.49 0.05 0  0.5 0.05 0  0.51 0.05 0  0.52 0.05 0  0.53 0.05 0  0.54 0.05 0  0.55 0.05 0  0.5600000000000001 0.05 0  0.57 0.05 0  0.58 0.05 0  0.59 0.05 0  0.6 0.05 0  0.61 0.05 0  0.62 0.05 0  0.63 0.05 0  0.64 0.05 0  0.65 0.05 0  0.66 0.05 0  0.67 0.05 0  0.68 0.05 0  0.6899999999999999 0.05 0  0.7 0.05 0  0.71 0.05 0  0.72 0.05 0  0.73 0.05 0  0.74 0.05 0  0.75 0.05 0  0.76 0.05 0  0.77 0.05 0  0.78 0.05 0  0.79 0.05 0  0.8 0.05 0  0.8100000000000001 0.05 0  0.82 0.05 0  0.83 0.05 0  0.84 0.05 0  0.85 0.05 0  0.86 0.05 0  0.87 0.05 0  0.88 0.05 0  0.89 0.05 0  0.9 0.05 0  0.91 0.05 0  0.92 0.05 0  0.93 0.05 0  0.9399999999999999 0.05 0  0.95 0.05 0  0.96 0.05 0  0.97 0.05 0  0.98 0.05 0  0.99 0.05 0  1 0.05 0  0 0.06 0  0.01 0.06 0  0.02 0.06 0  0.03 0.06 0  0.04 0.06 0  0.05 0.06 0  0.06 0.06 0  0.07000000000000001 0.06 0  0.08 0.06 0  0.09 0.06 0  0.1 0.06 0  0.11 0.06 0  0.12 0.06 0  0.13 0.06 0  0.14 0.06 0  0.15 0.06 0  0.16 0.06 0  0.17 0.06 0  0.18 0.06 0  0.19 0.06 0  0.2 0.06 0  0.21 0.06 0  0.22 0.06 0  0.23 0.06 0  0.24 0.06 0  0.25 0.06 0  0.26 0.06 0  0.27 0.06 0  0.28 0.06 0  0.29 0.06 0  0.3 0.06 0  0.31 0.06 0  0.32 0.06 0  0.33 0.06 0  0.34 0.06 0  0.35 0.06 0  0.36 0.06 0  0.37 0.06 0  0.38 0.06 0  0.39 0.06 0  0.4 0.06 0  0.41 0.06 0  0.42 0.06 0  0.43 0.06 0  0.44 0.06 0  0.45 0.06 0  0.46 0.06 0  0.47 0.06 0  0.48 0.06 0  0.49 0.06 0  0.5 0.06 0  0.51 0.06 0  0.52 0.06 0  0.53 0.06 0  0.54 0.06 0  0.55 0.06 0  0.5600000000000001 0.06 0  0.57 0.06 0  0.58 0.06 0  0.59 0.06 0  0.6 0.06 0  0.61 0.06 0  0.62 0.06 0  0.63 0.06 0  0.64 0.06 0  0.65 0.06 0  0.66 0.06 0  0.67 0.06 0  0.68 0.06 0  0.6899999999999999 0.06 0  0.7 0.06 0  0.71 0.06 0  0.72 0.06 0  0.73 0.06 0  0.74 0.06 0  0.75 0.06 0  0.76 0.06 0  0.77 0.06 0  0.78 0.06 0  0.79 0.06 0  0.8 0.06 0  0.8100000000000001 0.06 0  0.82 0.06 0  0.83 0.06 0  0.84 0.06 0  0.85 0.06 0  0.86 0.06 0  0.87 0.06 0  0.88 0.06 0  0.89 0.06 0  0.9 0.06 0  0.91 0.06 0  0.92 0.06 0  0.93 0.06 0  0.9399999999999999 0.06 0  0.95 0.06 0  0.96 0.06 0  0.97 0.06 0  0.98 0.06 0  0.99 0.06 0  1 0.06 0  0 0.07000000000000001 0  0.01 0.07000000000000001 0  0.02 0.07000000000000001 0  0.03 0.07000000000000001 0  0.04 0.07000000000000001 0  0.05 0.07000000000000001 0  0.06 0.07000000000000001 0  0.07000000000000001 0.07000000000000001 0  0.08 0.07000000000000001 0  0.09 0.07000000000000001 0  0.1 0.07000000000000001 0  0.11 0.07000000000000001 0  0.12 0.07000000000000001 0  0.13 0.07000000000000001 0  0.14 0.07000000000000001 0  0.15 0.07000000000000001 0  0.16 0.07000000000000001 0  0.17 0.0700
[...]
<PointData  Scalars="Indicator Function"> 
<DataArray  type="Float64"  Name="Indicator Function"  format="ascii">-3.0092655381050560e-35  -6.0217280871039160e-20  3.0052168009501431e-20  1.5764402935313750e-19  3.3431262289514252e-19  -3.2556127909688494e-20  -2.7953799165029397e-20  6.5582379560033128e-19  8.6324848510252702e-19  1.5046327690525280e-36  4.4896968258482408e-18  1.9734595004993536e-18  -3.5558041706584665e-20  -3.4418144895579112e-20  8.2087592086837822e-18  -8.9847523443849625e-21  -1.2420888118817809e-21  2.0412226378368233e-18  -3.5080907914894626e-20  -2.1064858766735392e-35  6.2726748252259294e-18  6.0185310762101120e-36  -3.7212553490293599e-20  1.1197568089134424e-17  -4.9631532991127053e-20  -2.4815766495563536e-20  -1.8636101256969407e-20  -4.3713135620073029e-20  4.1233917937218580e-17  -1.6912178282786368e-20  -7.6939030031373041e-20  -2.7872447167554007e-20  -4.5968487867649255e-20  -2.2188486035521701e-20  1.1569223748561513e-17  -8.4244977876044998e-20  -1.1580158383494577e-19  -1.3332260600817258e-19  -1.3912439326199604e-19  -1.3616821069754774e-19  9.1050918365272761e-18  -7.2684967329942472e-20  -2.4213178861613901e-20  -3.1051160234532258e-20  -2.4230509116133228e-20  -2.1298099882538703e-20  2.3326088506574784e-17  -1.4971019455348854e-20  -9.5779918780652872e-21  -5.4059758380756521e-21  -2.3140583169554319e-20  -1.1570291584777164e-20  -8.5790701180485788e-21  -1.1274358633302361e-20  -9.1002561429405529e-21  -2.8198468915962693e-21  3.0794275634785671e-19  1.8807909613156600e-37  0.0000000000000000e+00  -9.4039548065783001e-38  -1.5448400085910835e-22  -1.1034442847743203e-22  -4.0509104517662994e-22  -5.6056034817737977e-22  -1.8127409703557408e-22  -1.3097797570017032e-22  -1.8457181775488846e-23  -1.1453704147051097e-23  -6.5118824661263022e-22  -1.8310589419895152e-23  -1.0156069580569863e-22  -4.7019774032891500e-38  -1.8747252267233802e-23  -1.1595496718901912e-22  -6.7841983012243756e-23  -3.3920991506121849e-23  -2.7123464897042317e-23  -4.4059329641366431e-23  -1.4450827700831191e-22  -5.8982213066717224e-22  -6.7942851054032375e-22  5.5916206219875520e-20  -1.7432871719545449e-22  -3.4320285804580717e-22  -4.5775649579668632e-22  -3.1187579193290966e-22  -2.9708567159961730e-23  -1.1428736746762509e-22  -5.7143683733812453e-23  -8.5060164123266485e-23  -3.5714860478858168e-22  -3.0450288931005566e-22  -1.5359972289770635e-22  6.1113108047116019e-20  -1.4693679385278594e-39  -3.6540470339578999e-24  -2.9387358770557188e-38  -8.2461886032013564e-24  5.8774717541114375e-39  -1.5807953663749644e-26  8.8162076311671563e-39  -3.1371025549926032e-20  5.0107457224361491e-04  2.2270028890241492e-04  1.3521893207313110e-04  3.4413947517618576e-04  2.5642992766770038e-04  4.5826409825694696e-04  2.7443882888439147e-04  6.7600678654931010e-04  8.0102835119583973e-05  8.8589886184694784e-06  4.2083585661568311e-04  7.0941527907057136e-04  2.8584909398391111e-04  4.7709763111409789e-04  2.1450203328635825e-04  5.4603892597573984e-05  7.3673715249120055e-04  1.3093246263413957e-04  6.3196145525335238e-04  1.5965641089643357e-04  3.1839326011060969e-04  1.9034754088110753e-04  5.7518799768901442e-04  2.3204035493067465e-04  8.9408221393866511e-04  6.7143630941220959e-04  8.5380092160311266e-04  3.6056538435746824e-04  6.0932543849904054e-04  7.6359921299311133e-04  1.0042107414216003e-03  6.3055023999063003e-04  5.1281953933080633e-04  1.4330246010055587e-04  7.0462387447483568e-04  1.1653106666441495e-03  1.5034405459098249e-03  1.6500062819989651e-03  1.6812391216120043e-03  1.6123688510227305e-03  1.2810263197270259e-03  6.6886280726674932e-04  4.3618585319447802e-04  3.4127504804940510e-04  7.6734491755764205e-04  6.1093596429183849e-04  5.3938782112372403e-04  3.4508352522409966e-04  1.0141862428010956e-04  9.7385403079725525e-05  4.1686368695816316e-04  6.4735714368213993e-05  1.2217893076320872e-04  1.4201132397752292e-04  9.2929978708531107e-05  6.6906036099781570e-05  3.7488077233568320e-05  1.8105423854686531e-05  1.0361983389170777e-05  4.1790256843255882e-06  4.3796613363097939e-06  6.0466088390444763e-06  7.6755750819894907e-06  6.2603699596865433e-06  1.3535884360206583e-07  2.2918100284270822e-06  4.1266318182939035e-07  2.0526381043983564e-06  6.5970850950698878e-07  3.6591096942882576e-06  3.5270393053705409e-06  6.7544094659948070e-07  4.1777179761937942e-06  4.3288211017549471e-06  1.2221325176560662e-06  9.7722581122653311e-07  1.5874046444404166e-06  1.2818952514855070e-06  6.0176427554505698e-06  7.6164695338249129e-06  8.4312611806647280e-06  6.2808539664113992e-06  8.7337731690732386e-07  5.7459043959766826e-06  5.3732557375971774e-06  2.9316269325411315e-06  1.2134541378378889e-06  2.0588181821614049e-06  3.0646153875969294e-06  4.4392544923463286e-06  4.2141900475938322e-06  3.3783413715231087e-06  1.8242742130392812e-06  3.0370424613086195e-08  3.4097720738144832e-07  6.5825459442108390e-08  2.4395813571603245e-07  1.4855012768241776e-07  5.6954155383637265e-10  -5.1148305090823009e-24  -1.3840172053956686e-20  5.6513015590750843e-04  1.4575611770703333e-04  1.0140537819951041e-04  4.8954602708252575e-06  3.7346265733444298e-04  5.1001512870161116e-04  6.2385201380514869e-04  7.4354964057075782e-04  4.3858021640077819e-06  3.0169048923940465e-04  4.3120186070406090e-04  5.6199329885809777e-04  9.8163922615891156e-04  8.0617735034590966e-04  5.4913613669140058e-04  1.1888783769365768e-03  1.1980372181608959e-05  5.2610592513934861e-04  8.8674500439224946e-04  4.1829363003186541e-04  1.5190977738474534e-03  9.8894845747453885e-04  1.6451119887819588e-03  9.2038345590308719e-04  1.1570752289767352e-03  2.9118024753297663e-05  3.5452822918661847e-04  1.6626163211546179e-03  1.1455862510939047e-03  1.2938482887446951e-04  1.6430045068576342e-03  1.7208621824162633e-04  1.1579752030082286e-03  5.9624579608936979e-04  7.7045552852429851e-04  1.4612596187653733e-03  1.9413688438755805e-03  2.2724125023760137e-03  2.3853835551438185e-03  2.3239597194160745e-03  2.1116804366127172e-03  1.5504646687461627e-03  3.0452487879832982e-04  1.0323080160296043e-03  9.0064085544939759e-04  7.8472486053319309e-04  1.1432102663057671e-03  9.3297928922517095e-04  2.4057745997542427e-04  3.9338154996969749e-04  5.5320814824744049e-04  3.2876056719836021e-04  3.4813301598152121e-04  1.6530248640750424e-04  1.4131901384499944e-04  8.1042400881291122e-05  7.7025800210999733e-05  3.7556069682307800e-05  1.6610338962680375e-05  1.2331583830091340e-05  7.1856236092584220e-06  3.2415757016485281e-06  1.8970348490974760e-06  9.2429464201876918e-06  1.2732416912213016e-05  1.1287361403932441e-06  1.5743007016205745e-06  2.0767519601669417e-06  1.2943686271385399e-06  2.5534548505365286e-06  8.2670527167942452e-07  5.0797266237915340e-06  6.1309205577625727e-06  2.7499372692244312e-06  1.1903418513486590e-07  2.3092477565208290e-06  1.5412851779262166e-06  3.1105357493969523e-06  7.3124373980179630e-06  1.2981127304813468e-05  1.1422453776223125e-05  1.0692288476357153e-05  2.9766900894617907e-06  4.9183582457258465e-06  6.3534724851367529e-06  5.3815003068770993e-06  1.1246639295994047e-06  2.0405241067205207e-06  1.0760537905063940e-06  1.7978655167379237e-06  8.8471669304780365e-06  5.8378662417071280e-06  3.2911666270990055e-06  3.0753649651132518e-06  1.1196189684058722e-06  1.1265309494410407e-09  5.0660702803831249e-07  4.6891517946431204e-07  8.9363498302088104e-08  -2.8809591666913233e-23  -2.2515709232200330e-20  2.4932237481977234e-04  4.4949909516073293e-04  5.9088253301589943e-05  4.7418621118319656e-04  6.8807790791800753e-04  5.9525127210591114e-04  8.1244149174127531e-04  1.9528893271596699e-04  1.3250761188180241e-03  4.8439543534063706e-04  3.8796646332545065e-06  1.0315081325342013e-03  1.1472014241679567e-03  1.5396898585290424e-04  1.0748104383973159e-03  2.8349165344395143e-04  4.2506017674625115e-04  1.4007946928414033e-03  7.6701542925247635e-04  1.7059957976434431e-03  5.0862596383515000e-04  1.1382853683033981e-03  3.8924054885613454e-04  1.6856193164722002e-03  1.4334478912939176e-03  2.3502414738766058e-03  1.9554362675505287e-03  1.8308237734768805e-03  8.2096784945716902e-04  2.0463717155050952e-03  1.7468931961350906e-03  2.0159551241724126e-03  2.0568345300665375e-03  9.6791696751869470e-04  2.4735048852225329e-06  1.7188624923983162e-03  2.0494301116855940e-03  2.4738863011300695e-03  2.6955671516933621e-03  2.7502883406944579e-03  2.6011216866544465e-03  1.9488193780936231e-03  9.9208724863767924e-04  1.2205701649989460e-03  6.4701968089073234e-04  2.1989812136026321e-03  1.4261227131290941e-03  9.2347558702982296e-04  6.5310146827774992e-04  4.3534827656319168e-04  4.2129833063370522e-04  1.0479999321621049e-03  3.2047574103248507e-04  3.4402659743946838e-04  1.5434281067092968e-04  6.0108172427243159e-05  7.6068930461336049e-05  6.5250289413868969e-05  3.1964225663324101e-05  1.7692878793788556e-05  8.2313740387321513e-06  1.0091430582212660e-05  5.0368923749122016e-06  1.2764574953851957e-05  7.9377125125707883e-06  7.3644461581545751e-06  1.9465178580824499e-06  1.0819507455487237e-06  5.3491834948908221e-08  5.1534918832547568e-07  4.7455490989214920e-06  4.1657604664851029e-06  4.1105744100145133e-06  1.0381478792482336e-06  3.5458766724109049e-06  3.7030556737240279e-06  3.9109943455813039e-06  2.6178144319723545e-06  1.3912709614137205e-06  1.4021106783789270e-05  1.4215463286514434e-05  1.2732676313395005e-05  7.9363349307101380e-06  4.5560393787941412e-06  7.6151973923302025e-06  4.6939385463595603e-06  1.8592897634334166e-06  1.4971557991974321e-06  4.8939792187317296e-06  6.4721045181174216e-06  5.8052693467333583e-06  8.7596361701157018e-06  4.7632666959674401e-06  3.0376433314709424e-06  2.0520019446170210e-06  1.6033175154519678e-06  1.2395661182474635e-06  1.1641442100594772e-06  2.1572311781272195e-07  -2.9937596542451089e-23  -1.8845501642115209e-20  4.0560695883248003e-04  5.5034547593803816e-04  4.8872592470491120e-05  1.4434370706155789e-04  4.8511137023717223e-04  7.1807186345775032e-04  1.1228674848570380e-03  1.0109690095946311e-03  6.3132654759757154e-04  1.5174562140211767e-04  2.0349458159652978e-04  3.3903491345132114e-04  8.8582808528904153e-04  1.5110135703990575e-03  5.3098877745950577e-04  7.6268077946502113e-04  1.6512305989376096e-03  4.1070390625503272e-04  1.2173939380572183e-03  5.5047240377350507e-04  3.0838787290539350e-04  1.9394245563884775e-03  1.5330995027003542e-03  2.3013619421094313e-03  1.1446904623788336e-03  1.1570205465120549e-03  6.1186288175573344e-04  1.4704052132768310e-03  3.1248054894316493e-03  1.7892026717894543e-03  8.1856515248007592e-04  3.0288761994067704e-03  4.6460835098171199e-04  2.5782502168663957e-03  7.1639916425211034e-04  1.3126891582972507e-03  2.2740160205624721e-03  2.5433530779937923e-03  2.8785994156860424e-03  2.9945981523876613e-03  2.9195322104015524e-03  2.6619053795257537e-03  1.8051992439821268e-03  7.0521984237037049e-04  1.8093051154214649e-03  1.4805338262766710e-03  1.8330864385677670e-03  2.6196129485283235e-03  2.0524279373576029e-03  8.8873300123537969e-04  3.1887076439598993e-04  7.1331572154057627e-04  6.8243503858323677e-04  7.7119462295910325e-04  2.3502614514665248e-04  9.6985508670399619e-05  1.1389401454657161e-05  7.8127991919440864e-05  4.6385873291610512e-05  2.3109052750711387e-05  1.6892331075805819e-05  7.6982301207570902e-06  8.8166532814604116e-06  8.2677701503263260e-07  1.5867971456834855e-05  8.5569959805133162e-06  3.8160174302044470e-06  1.6047819329591559e-06  2.0825929304701822e-06  3.9569884062894931e-06  1.5801303356353434e-07  5.8877553773434677e-08  4.1070450335132672e-06  5.5071303622486484e-07  1.2166570416766030e-06  1.0078144522972017e-06  2.1726070198686474e-06  4.9880434684604997e-06  5.3928561860456904e-06  8.1854536652612027e-06  1.9141546122716875e-05  1.3462257208669561e-05  1.2082130731654518e-05  9.4363256921503354e-07  1.0410057907715852e-05  6.7801623245520080e-06  3.0212200038191323e-06  1.6863423458929490e-07  4.9713762534737232e-06  3.8550175460307291e-07  4.0264308660641518e-06  1.0023018743668442e-05  8.8406597042978611e-06  3.4857074950132016e-06  2.6043265327704471e-06  1.8239667531981553e-06  4.5128244602373490e-07  1.1310088602520253e-06  6.5792506872082024e-07  1.6434980094868741e-22  -1.9906570482583326e-20  3.3949037669216023e-04  5.6739134349596484e-04  8.9851834771155752e-04  1.2437714244874381e-04  5.0151925339100097e-04  6.1987004083611619e-04  5.8779918993859389e-04  1.2504298628059072e-03  3.9609402545383565e-04  1.6548505902106091e-03  9.1944766695416604e-04  1.1784133522673436e-04  1.3266412969813433e-03  1.2781054670140532e-03  3.0971014389201586e-04  1.2874022169727286e-03  9.8415297866398499e-04  1.1145447716153271e-03  1.2871543195129619e-03  8.3470107720706461e-04  2.1943358772344881e-03  1.1493809232298194e-03  2.0141263790094998e-03  1.2126906492996325e-03  2.7392394742342938e-03  2.4527033725910310e-03  3.3539416065566699e-03  2.5455410290092344e-03  1.8887464281151282e-03  1.7223728160349757e-03  3.3502360021450284e-03  2.1217001664069592e-03  3.3063989421662906e-03  2.7736217165930479e-03  1.7703885683747823e-03  9.1299121521183071e-05  2.4965446433556815e-03  2.6890219509628317e-03  2.9916091949046954e-03  3.2049289918373966e-03  3.2555969895235151e-03  3.0654698593315564e-03  2.2877378064866658e-03  1.1207904255636557e-03  2.0007082716777284e-03  1.1678892147586014e-03  3.4017651523006284e-03  1.4509981622910356e-03  2.9063263451892089e-04  1.4847856972486072e-04  2.9779669262833643e-04  7.2685258408310529e-04  1.5197847089971090e-03  3.1793324094376869e-04  6.8304209745920544e-04  1.5295181184790866e-04  5.1254334670061565e-07  2.9622539055680602e-05  7.1264985278470018e-05  3.3109885444922953e-05  1.9430609156711122e-05  1.1725079350957878e-05  8.8815450360773840e-06  5.2817783191670152e-06  9.2890265267220458e-06  1.8903297758391648e-05  3.2091611219128377e-06  1.4601704124087104e-07  6.4256259505382889e-06  4.2706716766329435e-06  4.0427002193919350e-07  6.5152104987826166e-06  2.2196125324554890e-06  9.6743823254381954e-07  4.3986268625665955e-06  1.6577608417099686e-06  5.9978133430357725e-07  8.7372364483332901e-07  4.9167204368116093e-07  1.2703562296060949e-06  1.7234701954425970e-05  1.8957249863345761e-05  1.2928670001971107e-05  9.2354240982970897e-06  7.1697709252650906e-06  1.1750489042287429e-05  4.0201309095824140e-06  7.0190971621453618e-07  2.6684055837059128e-06  5.8358574731168707e-06  6.4435295297323067e-06  4.2392757497870251e-06  9.9785210956341365e-06  6.8411080700791835e-06  3.1154328927178009e-06  1.8943379316121948e-06  1.9562496848348313e-06  7.5606393992200119e-07  1.5631835097628382e-06  -3.1807567115843117e-23  -9.5525958654971782e-21  3.5860489363034718e-04  6.1232325722687230e-04  5.0119860126380720e-04  6.0918903926906163e-04  2.2410814054062424e-04  5.7122230928351593e-04  1.0531443080283509e-03  1.4517612242180785e-03  1.3066520201838868e-03  5.6265987561660924e-04  5.1014902207896886e-04  1.9692965290858436e-04  3.0258194037967274e-04  1.3539709776513983e-03  1.8236129543844654e-03  2.7902356414647925e-04  5.7814534721505354e-04  1.3336272019938030e-03  1.9080480091313083e-04  1.6194196826763362e-03  9.7181946447757369e-05  2.2621254161953933e-04  1.5757924623682939e-03  1.3081703519447212e-03  2.1590838735654483e-03  6.7440396030949508e-04  5.7071997073286217e-04  1.4615057836556359e-03  2.3999263562434685e-03  4.1374367239757227e-03  1.8464977971383171e-03  1.8976995967057528e-03  4.1122460670364848e-03  1.0515037811102818e-03  3.8362901946120886e-03  1.0179316866120983e-03  1.6488324982815339e-03  3.1354009449359025e-03  3.1386060816007049e-03  3.4022977461358097e-03  3.5098784177296778e-03  3.4316735451542660e-03  3.1149558807095521e-03  1.9686846122008651e-03  9.1275738912061045e-04  2.7115220049486344e-03  1.7265202596896091e-03  2.9890671686103655e-03  3.4313358199871188e-03  2.3579378160224784e-03  1.1316848383752499e-03  1.2926712868570694e-04  5.5147166136739758e-04  1.1193269878181694e-03  1.0117149045640750e-03  4.1077719449422457e-04  5.3181678074471407e-05  5.8713349553509935e-05  6.2244163328769423e-05  5.7506564340070817e-05  2.7311262265242692e-05  1.6843536255809477e-05  1.1782954206368978e-05  8.1882915507244758e-06  5.3949841726914844e-06  1.3049079572619938e-05  1.6793663159328500e-05  4.6889685933678658e-06  4.4644343699884396e-06  4.7077501778694023e-06  1.8551871696746039e-06  4.8557309641665591e-07  1.2870111345508736e-08  4.9388293579860807e-06  1.5772183911964454e-06  2.6120167820643062e-08  1.4175855345642110e-06  1.4006063024924295e-07  6.2603520683496891e-07  7.4941288441406540e-07  4.8525794865270936e-06  2.2806405668476602e-05  1.8298267073538730e-05  1.1245748170105164e-05  1.9635378534374895e-07  1.3028619828273583e-05  8.6856308870630068e-06  5.8847795581079130e-07  3.7908107091175618e-06  6.9780747123574732e-06  2.2714314434924791e-06  1.9509479234284446e-06  8.3074756640125508e-06  9.3014171669978821e-06  5.4771736829158542e-06  2.5546495444068941e-06  1.3482014790554042e-06  1.0785184808132946e-06  2.2882526686049243e-07  -1.2702353994225683e-23  -1.9690324537853011e-20  1.7208426872109618e-04  4.7551074776652476e-04  7.9630035650437182e-04  8.3429316136067640e-04  6.0850650002297594e-05  6.3391575332916313e-04  3.7903545947091060e-04  2.9591034453641522e-04  1.6544435934936225e-03  6.2816322283490292e-04  1.6044033010583212e-03  8.9837301784863560e-04  1.4862179396784377e-05  1.3615862771759110e-03  1.5821971192650022e-03  6.2687927149537089e-04  1.0788361745533051e-03  1.1075255050494264e-03  1.3583264535164971e-03  1.1214834220466903e-03  3.9952066736904506e-04  1.9558731464419938e-03  9.4572551947470340e-04  2.2106915430879807e-03  1.3977818562515879e-03  3.0781736811117963e-03  2.5972583450758870e-03  3.4679630301950653e-03  2.3693357775548493e-03  1.4655187683763676e-03  2.6782607512984479e-03  4.0606715031445348e-03  2.0333109469963368e-03  4.6710410652219094e-03  3.0544726949864585e-03  2.9632623468266017e-03  1.4184418668991916e-04  3.0888586624168769e-03  3.5329761965804496e-03  3.6196270598583239e-03  3.7801623414055259e-03  3.8185149547236034e-03  3.5939494281574951e-03  2.6677142268994700e-03  1.1438974101598907e-03  2.5897490909378680e-03  1.8015290975572070e-03  4.1914156203966815e-03  1.0586912758172432e-03  5.2078456786835341e-04  5.1698060622416679e-04  1.9168783090792982e-04  6.2311559554129470e-04  1.6559446922366665e-03  9.3811774775541250e-05  1.0318759959870578e-03  2.0286715478450202e-04  6.0498511431574190e-05  3.9996234293907932e-05  7.0283488887053038e-05  4.1593017314902035e-05  2.5476009890479516e-05  1.4551652115909085e-05  1.0116619058508809e-05  9.9821927947987739e-06  1.6765151155781918e-05  2.3296041356074908e-05  2.6829108695733258e-06  5.7258297121757446e-06  2.1708821885840771e-07  2.7446740604811639e-06  1.6801228785390194e-06  3.3425291215294780e-06  3.0226884523473347e-06  1.5817202698224063e-06  7.7797888083240990e-06  1.8881466350074872e-06  1.0913747327713635e-06  5.1685431572297487e-07  5.6628488790921955e-06  3.2294131395787792e-06  1.3593432573409853e-05  2.1693126889194458e-05  1.5897824599397706e-05  7.1984753403330539e-06  9.8950381620756158e-06  1.4027998874734179e-05  4.7178043560551555e-06  2.4877916697947946e-06  5.6704695826100985e-06  5.7945844215108207e-06  7.9714289203469128e-06  5.8348338680332681e-06  9.5921559633437385e-06  7.0834460125248549e-06  4.2634296940372170e-06  1.6145665419506886e-06  1.4786195616170826e-06  7.8521467531923528e-07  -1.0897042647662234e-22  -1.0330174328360755e-20  3.5470935300591680e-04  5.8094767576784788e-04  6.5636886376476463e-04  5.9664202076270697e-04  9.3571551552237072e-04  1.0557532173077885e-04  4.6321574125561782e-04  9.6051676112930381e-04  1.4765917029542783e-03  1.6687491349003227e-03  7.2060861290036476e-04  5.4095351286923856e-04  4.7806239061187105e-04  3.6515426744038556e-04  1.6257490083347280e-03  2.0242189247144994e-