<?xml version="1.0"?>
<VTKFile type="UnstructuredGrid"  version="0.1"  >
<UnstructuredGrid>
<Piece  NumberOfPoints="10201" NumberOfCells="20000">
<Points>
<DataArray  type="Float64"  NumberOfComponents="3"  format="ascii">0 0 0  0.01 0 0  0.02 0 0  0.03 0 0  0.04 0 0  0.05 0 0  0.06 0 0  0.07000000000000001 0 0  0.08 0 0  0.09 0 0  0.1 0 0  0.11 0 0  0.12 0 0  0.13 0 0  0.14 0 0  0.15 0 0  0.16 0 0  0.17 0 0  0.18 0 0  0.19 0 0  0.2 0 0  0.21 0 0  0.22 0 0  0.23 0 0  0.24 0 0  0.25 0 0  0.26 0 0  0.27 0 0  0.28 0 0  0.29 0 0  0.3 0 0  0.31 0 0  0.32 0 0  0.33 0 0  0.34 0 0  0.35 0 0  0.36 0 0  0.37 0 0  0.38 0 0  0.39 0 0  0.4 0 0  0.41 0 0  0.42 0 0  0.43 0 0  0.44 0 0  0.45 0 0  0.46 0 0  0.47 0 0  0.48 0 0  0.49 0 0  0.5 0 0  0.51 0 0  0.52 0 0  0.53 0 0  0.54 0 0  0.55 0 0  0.5600000000000001 0 0  0.57 0 0  0.58 0 0  0.59 0 0  0.6 0 0  0.61 0 0  0.62 0 0  0.63 0 0  0.64 0 0  0.65 0 0  0.66 0 0  0.67 0 0  0.68 0 0  0.6899999999999999 0 0  0.7 0 0  0.71 0 0  0.72 0 0  0.73 0 0  0.74 0 0  0.75 0 0  0.76 0 0  0.77 0 0  0.78 0 0  0.79 0 0  0.8 0 0  0.8100000000000001 0 0  0.82 0 0  0.83 0 0  0.84 0 0  0.85 0 0  0.86 0 0  0.87 0 0  0.88 0 0  0.89 0 0  0.9 0 0  0.91 0 0  0.92 0 0  0.93 0 0  0.9399999999999999 0 0  0.95 0 0  0.96 0 0  0.97 0 0  0.98 0 0  0.99 0 0  1 0 0  0 0.01 0  0.01 0.01 0  0.02 0.01 0  0.03 0.01 0  0.04 0.01 0  0.05 0.01 0  0.06 0.01 0  0.07000000000000001 0.01 0  0.08 0.01 0  0.09 0.01 0  0.1 0.01 0  0.11 0.01 0  0.12 0.01 0  0.13 0.01 0  0.14 0.01 0  0.15 0.01 0  0.16 0.01 0  0.17 0.01 0  0.18 0.01 0  0.19 0.01 0  0.2 0.01 0  0.21 0.01 0  0.22 0.01 0  0.23 0.01 0  0.24 0.01 0  0.25 0.01 0  0.26 0.01 0  0.27 0.01 0  0.28 0.01 0  0.29 0.01 0  0.3 0.01 0  0.31 0.01 0  0.32 0.01 0  0.33 0.01 0  0.34 0.01 0  0.35 0.01 0  0.36 0.01 0  0.37 0.01 0  0.38 0.01 0  0.39 0.01 0  0.4 0.01 0  0.41 0.01 0  0.42 0.01 0  0.43 0.01 0  0.44 0.01 0  0.45 0.01 0  0.46 0.01 0  0.47 0.01 0  0.48 0.01 0  0.49 0.01 0  0.5 0.01 0  0.51 0.01 0  0.52 0.01 0  0.53 0.01 0  0.54 0.01 0  0.55 0.01 0  0.5600000000000001 0.01 0  0.57 0.01 0  0.58 0.01 0  0.59 0.01 0  0.6 0.01 0  0.61 0.01 0  0.62 0.01 0  0.63 0.01 0  0.64 0.01 0  0.65 0.01 0  0.66 0.01 0  0.67 0.01 0  0.68 0.01 0  0.6899999999999999 0.01 0  0.7 0.01 0  0.71 0.01 0  0.72 0.01 0  0.73 0.01 0  0.74 0.01 0  0.75 0.01 0  0.76 0.01 0  0.77 0.01 0  0.78 0.01 0  0.79 0.01 0  0.8 0.01 0  0.8100000000000001 0.01 0  0.82 0.01 0  0.83 0.01 0  0.84 0.01 0  0.85 0.01 0  0.86 0.01 0  0.87 0.01 0  0.88 0.01 0  0.89 0.01 0  0.9 0.01 0  0.91 0.01 0  0.92 0.01 0  0.93 0.01 0  0.9399999999999999 0.01 0  0.95 0.01 0  0.96 0.01 0  0.97 0.01 0  0.98 0.01 0  0.99 0.01 0  1 0.01 0  0 0.02 0  0.01 0.02 0  0.02 0.02 0  0.03 0.02 0  0.04 0.02 0  0.05 0.02 0  0.06 0.02 0  0.07000000000000001 0.02 0  0.08 0.02 0  0.09 0.02 0  0.1 0.02 0  0.11 0.02 0  0.12 0.02 0  0.13 0.02 0  0.14 0.02 0  0.15 0.02 0  0.16 0.02 0  0.17 0.02 0  0.18 0.02 0  0.19 0.02 0  0.2 0.02 0  0.21 0.02 0  0.22 0.02 0  0.23 0.02 0  0.24 0.02 0  0.25 0.02 0  0.26 0.02 0  0.27 0.02 0  0.28 0.02 0  0.29 0.02 0  0.3 0.02 0  0.31 0.02 0  0.32 0.02 0  0.33 0.02 0  0.34 0.02 0  0.35 0.02 0  0.36 0.02 0  0.37 0.02 0  0.38 0.02 0  0.39 0.02 0  0.4 0.02 0  0.41 0.02 0  0.42 0.02 0  0.43 0.02 0  0.44 0.02 0  0.45 0.02 0  0.46 0.02 0  0.47 0.02 0  0.48 0.02 0  0.49 0.02 0  0.5 0.02 0  0.51 0.02 0  0.52 0.02 0  0.53 0.02 0  0.54 0.02 0  0.55 0.02 0  0.5600000000000001 0.02 0  0.57 0.02 0  0.58 0.02 0  0.59 0.02 0  0.6 0.02 0  0.61 0.02 0  0.62 0.02 0  0.63 0.02 0  0.64 0.02 0  0.65 0.02 0  0.66 0.02 0  0.67 0.02 0  0.68 0.02 0  0.6899999999999999 0.02 0  0.7 0.02 0  0.71 0.02 0  0.72 0.02 0  0.73 0.02 0  0.74 0.02 0  0.75 0.02 0  0.76 0.02 0  0.77 0.02 0  0.78 0.02 0  0.79 0.02 0  0.8 0.02 0  0.8100000000000001 0.02 0  0.82 0.02 0  0.83 0.02 0  0.84 0.02 0  0.85 0.02 0  0.86 0.02 0  0.87 0.02 0  0.88 0.02 0  0.89 0.02 0  0.9 0.02 0  0.91 0.02 0  0.92 0.02 0  0.93 0.02 0  0.9399999999999999 0.02 0  0.95 0.02 0  0.96 0.02 0  0.97 0.02 0  0.98 0.02 0  0.99 0.02 0  1 0.02 0  0 0.03 0  0.01 0.03 0  0.02 0.03 0  0.03 0.03 0  0.04 0.03 0  0.05 0.03 0  0.06 0.03 0  0.07000000000000001 0.03 0  0.08 0.03 0  0.09 0.03 0  0.1 0.03 0  0.11 0.03 0  0.12 0.03 0  0.13 0.03 0  0.14 0.03 0  0.15 0.03 0  0.16 0.03 0  0.17 0.03 0  0.18 0.03 0  0.19 0.03 0  0.2 0.03 0  0.21 0.03 0  0.22 0.03 0  0.23 0.03 0  0.24 0.03 0  0.25 0.03 0  0.26 0.03 0  0.27 0.03 0  0.28 0.03 0  0.29 0.03 0  0.3 0.03 0  0.31 0.03 0  0.32 0.03 0  0.33 0.03 0  0.34 0.03 0  0.35 0.03 0  0.36 0.03 0  0.37 0.03 0  0.38 0.03 0  0.39 0.03 0  0.4 0.03 0  0.41 0.03 0  0.42 0.03 0  0.43 0.03 0  0.44 0.03 0  0.45 0.03 0  0.46 0.03 0  0.47 0.03 0  0.48 0.03 0  0.49 0.03 0  0.5 0.03 0  0.51 0.03 0  0.52 0.03 0  0.53 0.03 0  0.54 0.03 0  0.55 0.03 0  0.5600000000000001 0.03 0  0.57 0.03 0  0.58 0.03 0  0.59 0.03 0  0.6 0.03 0  0.61 0.03 0  0.62 0.03 0  0.63 0.03 0  0.64 0.03 0  0.65 0.03 0  0.66 0.03 0  0.67 0.03 0  0.68 0.03 0  0.6899999999999999 0.03 0  0.7 0.03 0  0.71 0.03 0  0.72 0.03 0  0.73 0.03 0  0.74 0.03 0  0.75 0.03 0  0.76 0.03 0  0.77 0.03 0  0.78 0.03 0  0.79 0.03 0  0.8 0.03 0  0.8100000000000001 0.03 0  0.82 0.03 0  0.83 0.03 0  0.84 0.03 0  0.85 0.03 0  0.86 0.03 0  0.87 0.03 0  0.88 0.03 0  0.89 0.03 0  0.9 0.03 0  0.91 0.03 0  0.92 0.03 0  0.93 0.03 0  0.9399999999999999 0.03 0  0.95 0.03 0  0.96 0.03 0  0.97 0.03 0  0.98 0.03 0  0.99 0.03 0  1 0.03 0  0 0.04 0  0.01 0.04 0  0.02 0.04 0  0.03 0.04 0  0.04 0.04 0  0.05 0.04 0  0.06 0.04 0  0.07000000000000001 0.04 0  0.08 0.04 0  0.09 0.04 0  0.1 0.04 0  0.11 0.04 0  0.12 0.04 0  0.13 0.04 0  0.14 0.04 0  0.15 0.04 0  0.16 0.04 0  0.17 0.04 0  0.18 0.04 0  0.19 0.04 0  0.2 0.04 0  0.21 0.04 0  0.22 0.04 0  0.23 0.04 0  0.24 0.04 0  0.25 0.04 0  0.26 0.04 0  0.27 0.04 0  0.28 0.04 0  0.29 0.04 0  0.3 0.04 0  0.31 0.04 0  0.32 0.04 0  0.33 0.04 0  0.34 0.04 0  0.35 0.04 0  0.36 0.04 0  0.37 0.04 0  0.38 0.04 0  0.39 0.04 0  0.4 0.04 0  0.41 0.04 0  0.42 0.04 0  0.43 0.04 0  0.44 0.04 0  0.45 0.04 0  0.46 0.04 0  0.47 0.04 0  0.48 0.04 0  0.49 0.04 0  0.5 0.04 0  0.51 0.04 0  0.52 0.04 0  0.53 0.04 0  0.54 0.04 0  0.55 0.04 0  0.5600000000000001 0.04 0  0.57 0.04 0  0.58 0.04 0  0.59 0.04 0  0.6 0.04 0  0.61 0.04 0  0.62 0.04 0  0.63 0.04 0  0.64 0.04 0  0.65 0.04 0  0.66 0.04 0  0.67 0.04 0  0.68 0.04 0  0.6899999999999999 0.04 0  0.7 0.04 0  0.71 0.04 0  0.72 0.04 0  0.73 0.04 0  0.74 0.04 0  0.75 0.04 0  0.76 0.04 0  0.77 0.04 0  0.78 0.04 0  0.79 0.04 0  0.8 0.04 0  0.8100000000000001 0.04 0  0.82 0.04 0  0.83 0.04 0  0.84 0.04 0  0.85 0.04 0  0.86 0.04 0  0.87 0.04 0  0.88 0.04 0  0.89 0.04 0  0.9 0.04 0  0.91 0.04 0  0.92 0.04 0  0.93 0.04 0  0.9399999999999999 0.04 0  0.95 0.04 0  0.96 0.04 0  0.97 0.04 0  0.98 0.04 0  0.99 0.04 0  1 0.04 0  0 0.05 0  0.01 0.05 0  0.02 0.05 0  0.03 0.05 0  0.04 0.05 0  0.05 0.05 0  0.06 0.05 0  0.07000000000000001 0.05 0  0.08 0.05 0  0.09 0.05 0  0.1 0.05 0  0.11 0.05 0  0.12 0.05 0  0.13 0.05 0  0.14 0.05 0  0.15 0.05 0  0.16 0.05 0  0.17 0.05 0  0.18 0.05 0  0.19 0.05 0  0.2 0.05 0  0.21 0.05 0  0.22 0.05 0  0.23 0.05 0  0.24 0.05 0  0.25 0.05 0  0.26 0.05 0  0.27 0.05 0  0.28 0.05 0  0.29 0.05 0  0.3 0.05 0  0.31 0.05 0  0.32 0.05 0  0.33 0.05 0  0.34 0.05 0  0.35 0.05 0  0.36 0.05 0  0.37 0.05 0  0.38 0.05 0  0.39 0.05 0  0.4 0.05 0  0.41 0.05 0  0.42 0.05 0  0.43 0.05 0  0.44 0.05 0  0.45 0.05 0  0.46 0.05 0  0.47 0.05 0  0.48 0.05 0  0.49 0.05 0  0.5 0.05 0  0.51 0.05 0  0.52 0.05 0  0.53 0.05 0  0.54 0.05 0  0.55 0.05 0  0.5600000000000001 0.05 0  0.57 0.05 0  0.58 0.05 0  0.59 0.05 0  0.6 0.05 0  0.61 0.05 0  0.62 0.05 0  0.63 0.05 0  0.64 0.05 0  0.65 0.05 0  0.66 0.05 0  0.67 0.05 0  0.68 0.05 0  0.6899999999999999 0.05 0  0.7 0.05 0  0.71 0.05 0  0.72 0.05 0  0.73 0.05 0  0.74 0.05 0  0.75 0.05 0  0.76 0.05 0  0.77 0.05 0  0.78 0.05 0  0.79 0.05 0  0.8 0.05 0  0.8100000000000001 0.05 0  0.82 0.05 0  0.83 0.05 0  0.84 0.05 0  0.85 0.05 0  0.86 0.05 0  0.87 0.05 0  0.88 0.05 0  0.89 0.05 0  0.9 0.05 0  0.91 0.05 0  0.92 0.05 0  0.93 0.05 0  0.9399999999999999 0.05 0  0.95 0.05 0  0.96 0.05 0  0.97 0.05 0  0.98 0.05 0  0.99 0.05 0  1 0.05 0  0 0.06 0  0.01 0.06 0  0.02 0.06 0  0.03 0.06 0  0.04 0.06 0  0.05 0.06 0  0.06 0.06 0  0.07000000000000001 0.06 0  0.08 0.06 0  0.09 0.06 0  0.1 0.06 0  0.11 0.06 0  0.12 0.06 0  0.13 0.06 0  0.14 0.06 0  0.15 0.06 0  0.16 0.06 0  0.17 0.06 0  0.18 0.06 0  0.19 0.06 0  0.2 0.06 0  0.21 0.06 0  0.22 0.06 0  0.23 0.06 0  0.24 0.06 0  0.25 0.06 0  0.26 0.06 0  0.27 0.06 0  0.28 0.06 0  0.29 0.06 0  0.3 0.06 0  0.31 0.06 0  0.32 0.06 0  0.33 0.06 0  0.34 0.06 0  0.35 0.06 0  0.36 0.06 0  0.37 0.06 0  0.38 0.06 0  0.39 0.06 0  0.4 0.06 0  0.41 0.06 0  0.42 0.06 0  0.43 0.06 0  0.44 0.06 0  0.45 0.06 0  0.46 0.06 0  0.47 0.06 0  0.48 0.06 0  0.49 0.06 0  0.5 0.06 0  0.51 0.06 0  0.52 0.06 0  0.53 0.06 0  0.54 0.06 0  0.55 0.06 0  0.5600000000000001 0.06 0  0.57 0.06 0  0.58 0.06 0  0.59 0.06 0  0.6 0.06 0  0.61 0.06 0  0.62 0.06 0  0.63 0.06 0  0.64 0.06 0  0.65 0.06 0  0.66 0.06 0  0.67 0.06 0  0.68 0.06 0  0.6899999999999999 0.06 0  0.7 0.06 0  0.71 0.06 0  0.72 0.06 0  0.73 0.06 0  0.74 0.06 0  0.75 0.06 0  0.76 0.06 0  0.77 0.06 0  0.78 0.06 0  0.79 0.06 0  0.8 0.06 0  0.8100000000000001 0.06 0  0.82 0.06 0  0.83 0.06 0  0.84 0.06 0  0.85 0.06 0  0.86 0.06 0  0.87 0.06 0  0.88 0.06 0  0.89 0.06 0  0.9 0.06 0  0.91 0.06 0  0.92 0.06 0  0.93 0.06 0  0.9399999999999999 0.06 0  0.95 0.06 0  0.96 0.06 0  0.97 0.06 0  0.98 0.06 0  0.99 0.06 0  1 0.06 0  0 0.07000000000000001 0  0.01 0.07000000000000001 0  0.02 0.07000000000000001 0  0.03 0.07000000000000001 0  0.04 0.07000000000000001 0  0.05 0.07000000000000001 0  0.06 0.07000000000000001 0  0.07000000000000001 0.07000000000000001 0  0.08 0.07000000000000001 0  0.09 0.07000000000000001 0  0.1 0.07000000000000001 0  0.11 0.07000000000000001 0  0.12 0.07000000000000001 0  0.13 0.07000000000000001 0  0.14 0.07000000000000001 0  0.15 0.07000000000000001 0  0.16 0.07000000000000001 0  0.17 0.0700
[...]
<PointData  Scalars="u"> 
<DataArray  type="Float64"  Name="u"  format="ascii">0.0000000000000000e+00  0.0000000000000000e+00  0.0000000000000000e+00  0.0000000000000000e+00  0.0000000000000000e+00  0.0000000000000000e+00  0.0000000000000000e+00  0.0000000000000000e+00  0.0000000000000000e+00  0.0000000000000000e+00  0.0000000000000000e+00  0.0000000000000000e+00  0.0000000000000000e+00  0.0000000000000000e+00  0.0000000000000000e+00  0.0000000000000000e+00  0.0000000000000000e+00  0.0000000000000000e+00  0.0000000000000000e+00  0.0000000000000000e+00  0.0000000000000000e+00  0.0000000000000000e+00  0.0000000000000000e+00  0.0000000000000000e+00  0.0000000000000000e+00  0.0000000000000000e+00  0.0000000000000000e+00  0.0000000000000000e+00  0.0000000000000000e+00  0.0000000000000000e+00  0.0000000000000000e+00  0.0000000000000000e+00  0.0000000000000000e+00  0.0000000000000000e+00  0.0000000000000000e+00  0.0000000000000000e+00  0.0000000000000000e+00  0.0000000000000000e+00  0.0000000000000000e+00  0.0000000000000000e+00  0.0000000000000000e+00  0.0000000000000000e+00  0.0000000000000000e+00  0.0000000000000000e+00  0.0000000000000000e+00  0.0000000000000000e+00  0.0000000000000000e+00  0.0000000000000000e+00  0.0000000000000000e+00  0.0000000000000000e+00  0.0000000000000000e+00  0.0000000000000000e+00  0.0000000000000000e+00  0.0000000000000000e+00  0.0000000000000000e+00  0.0000000000000000e+00  0.0000000000000000e+00  0.0000000000000000e+00  0.0000000000000000e+00  0.0000000000000000e+00  0.0000000000000000e+00  0.0000000000000000e+00  0.0000000000000000e+00  0.0000000000000000e+00  0.0000000000000000e+00  0.0000000000000000e+00  0.0000000000000000e+00  0.0000000000000000e+00  0.0000000000000000e+00  0.0000000000000000e+00  0.0000000000000000e+00  0.0000000000000000e+00  0.0000000000000000e+00  0.0000000000000000e+00  0.0000000000000000e+00  0.0000000000000000e+00  0.0000000000000000e+00  0.0000000000000000e+00  0.0000000000000000e+00  0.0000000000000000e+00  0.0000000000000000e+00  0.0000000000000000e+00  0.0000000000000000e+00  0.0000000000000000e+00  0.0000000000000000e+00  0.0000000000000000e+00  0.0000000000000000e+00  0.0000000000000000e+00  0.0000000000000000e+00  0.0000000000000000e+00  0.0000000000000000e+00  0.0000000000000000e+00  0.0000000000000000e+00  0.0000000000000000e+00  0.0000000000000000e+00  0.0000000000000000e+00  0.0000000000000000e+00  0.0000000000000000e+00  0.0000000000000000e+00  0.0000000000000000e+00  0.0000000000000000e+00  0.0000000000000000e+00  -7.6809860426066477e-04  -4.9821678025788901e-04  -1.0295861787586424e-04  -5.1966081839627926e-04  1.8055752890441053e-04  1.6706488591281476e-04  -1.5863343757888628e-04  1.9462529002411462e-04  -2.3667985069517343e-04  -4.7541131439762467e-05  2.6441426156224835e-04  3.1593577354308147e-04  -1.5897017120210011e-04  8.4673771466086689e-06  1.3017206893102011e-04  -1.4165358709672979e-04  5.5408016871830309e-04  -3.7198761127069731e-04  3.5272311769441172e-04  4.4238039733121787e-05  4.5546270833453951e-05  1.8584008484437019e-04  3.0334470697185279e-04  -2.3306523803976652e-04  7.5018215318770520e-04  -7.4945254209616207e-04  9.4377176850046719e-04  4.2587176880123332e-05  -4.5900277570107566e-04  9.7605048770783528e-04  5.8696996601180062e-04  -8.0159993866228034e-04  2.9157038197095571e-05  5.7604008778598735e-04  6.8695246251678378e-04  3.8621984809103385e-04  2.7653564848391068e-04  1.9304676702291550e-04  1.4367550619637280e-04  9.7134317176079355e-05  -5.7569863558760230e-05  -1.3940754694608516e-04  -6.3569735808069320e-04  4.5576281185541023e-05  8.1692509694449912e-04  -7.9977079930857288e-04  5.7618910262936622e-04  -3.2749239115330319e-04  5.6241444809511021e-05  8.5303897625179270e-05  2.9172482243534925e-04  -2.5057374159258490e-04  -3.0150885417917113e-05  4.2809810661930612e-05  6.1273845806944266e-05  4.6426414925824818e-05  3.6653997268814434e-05  3.6386520439856304e-05  3.3255307614080793e-05  3.0389456979229288e-05  3.1484077912012994e-05  2.9358391077743837e-05  2.6655032221195020e-05  2.4882970463558584e-05  1.9041195236103539e-05  3.7857986719626050e-05  5.1165994240961054e-05  2.0270898361445869e-05  1.2020083549535475e-05  1.8879466246976384e-05  2.0728962974562628e-05  2.0044378992758807e-05  2.0044320637421528e-05  2.1413139704378508e-05  1.8197495914547039e-05  1.4939199187186175e-05  1.5191700629469725e-05  1.5369423087795865e-05  1.3851488202485649e-05  1.2318808385499392e-05  1.3889643953156266e-05  1.2773880251714087e-05  1.1025460029707443e-05  1.4481529006965268e-05  6.3777390193619356e-06  1.0520821737832674e-05  6.5051254196007113e-06  1.3340930831113073e-05  5.2133150160394861e-06  4.3399828769579198e-06  7.8996760285791687e-06  7.8544067724253928e-06  3.0784457764172892e-06  5.4214613655647957e-06  5.6680147155645753e-06  3.2092514105350712e-06  3.3290025870439102e-06  2.0722920012286368e-06  -2.8520939834370428e-06  0.0000000000000000e+00  0.0000000000000000e+00  4.9444689193977036e-04  -5.1435771318498135e-04  -4.4530058870766555e-04  -3.3613959570573593e-04  -5.0998463617194835e-04  2.7242559151539132e-04  9.7314571668430716e-05  1.4909530840933667e-04  -4.9888051093882851e-04  -8.8879939059553005e-05  3.4283292185884723e-04  2.8710854682402454e-04  3.1248607164534173e-04  2.9893859129642188e-04  -1.0774568066154386e-03  1.0470420355892661e-03  -1.3843682710825485e-04  1.2649180745205054e-04  7.0271889463116501e-04  -8.4082793018381272e-04  1.3669482099195086e-03  -1.3301912013079253e-03  1.5975880426840569e-03  -1.2830926412386557e-03  1.2590978742476854e-03  -3.0006356069828282e-04  -2.6093302119764100e-04  1.5335808526859896e-03  -1.4735328676727393e-03  2.4318197374478075e-04  1.5663813926580271e-03  -3.8848701820648739e-04  -8.7921096314059414e-04  1.2069845001146405e-04  1.4976323644437771e-03  8.8993167012430712e-04  6.0509204070345905e-04  4.7654795157706087e-04  3.7879811712891449e-04  2.9628401139480324e-04  2.4550181770649384e-04  1.0024101141299448e-04  -1.0934342995530199e-03  -8.8574818600659988e-04  1.3664378215248699e-03  7.1145943130844198e-04  -1.3196241757945488e-03  1.1295299095694894e-03  -3.6692712581312193e-04  -2.3459785619785162e-04  7.3528650510916514e-04  3.2188256159057166e-05  -3.2170981165520810e-04  6.3574288632284182e-05  1.1479110013021959e-04  1.1239292797029772e-04  8.1218527557631946e-05  7.4124290291237551e-05  7.0547511762417790e-05  6.6279046502734084e-05  6.3214892987887542e-05  6.0695939735331801e-05  6.1782100252669988e-05  5.0064016662962338e-05  5.4070479739042636e-05  4.3105506095447290e-05  1.0121945006499259e-04  7.3890640851177042e-05  2.6275068793387377e-05  3.4390040253267002e-05  4.3153126440016374e-05  4.3261594715435004e-05  3.9956828867323147e-05  4.0693707889172191e-05  4.3777504196779120e-05  3.5250694772838812e-05  2.9485896115633381e-05  2.9875587859224120e-05  2.8397272271075473e-05  2.9491187551118156e-05  2.7311827310826782e-05  2.1702473482237755e-05  2.7069436443148245e-05  2.0833326738310936e-05  2.5118972879150818e-05  1.7251699711166776e-05  1.2044850036013192e-05  1.5651300951371689e-05  2.2065027580938164e-05  5.9972905501239743e-06  9.3248449518551697e-06  1.8508303249687151e-05  -2.3433724000244595e-06  1.9485949900596204e-05  1.3527302173602232e-06  1.0570013029155475e-05  8.0792362861339610e-06  7.9435179892419043e-06  4.7775140115373464e-06  0.0000000000000000e+00  0.0000000000000000e+00  8.2909393222818851e-05  1.6710986458648157e-04  -3.1827200717228184e-04  1.6979757546134398e-04  -1.0633429305497493e-03  4.6880003031653152e-04  4.5789557473194025e-04  -4.2154133122941553e-04  6.5520337467128145e-04  -1.0143763841949974e-03  -2.0601139782655439e-04  8.1974656022338623e-04  7.1820372770057227e-04  -4.5315555163790702e-04  3.6740612857294832e-04  -5.0578516691266915e-04  8.7697180684300608e-05  1.2874880191225074e-03  -1.2107212886685193e-03  1.4140277411309459e-03  -7.3112304030146223e-04  8.0985434910869577e-04  -4.7391299115877452e-04  1.4048415821564962e-03  -1.5708671298038683e-03  2.3626757990150948e-03  -2.2647914981669564e-03  2.0948447386187809e-03  4.8774936176634301e-04  -2.1099221966688533e-03  2.2216062746232583e-03  1.7331747332946495e-03  -2.4814923761475299e-03  -4.0735542365549516e-04  1.0064740147894204e-03  1.9024228348515477e-03  1.0489153310915514e-03  8.2714828618773344e-04  6.7531018058672508e-04  5.9316624048096100e-04  4.8395837795851474e-04  1.1991063026823098e-04  -2.8227149013078213e-05  -1.8763898943664850e-03  -2.9677988516048099e-04  2.6032245865004848e-03  -1.5653352466670730e-03  8.8127458424587654e-04  -4.0481950007404440e-04  2.1701668540470949e-04  1.0646777289123309e-05  1.0350859548512539e-03  -6.0050103625421494e-04  -1.1612220484392264e-04  1.6252648882352720e-04  2.0329610258332600e-04  1.5467623283848492e-04  1.1730306970738214e-04  1.1540094311977429e-04  1.0563047956571590e-04  9.8109377643806463e-05  1.0010250957122082e-04  9.2286981614389345e-05  8.8006954269753560e-05  7.9182730244613844e-05  7.0053649638175084e-05  1.0623061567128559e-04  1.5470759572894325e-04  6.8632596992985662e-05  3.8517012738981525e-05  6.1230565589749888e-05  6.7693654395946344e-05  6.5282102177062089e-05  6.2493347715204489e-05  6.3567537338925060e-05  5.9312608369745467e-05  5.0483739641224425e-05  4.7814374857549982e-05  4.5639814830187781e-05  4.1039061379987557e-05  3.9827481485172109e-05  4.3057674698260739e-05  3.4886761035842727e-05  3.4564117369579675e-05  3.7128033632644048e-05  2.2148198527978649e-05  3.1504519286878121e-05  1.5222367228200473e-05  3.1721917469011940e-05  1.5400210706297735e-05  7.2870213671990375e-06  1.7087890613329373e-05  2.1014851170270096e-05  -4.2186799091893752e-06  1.7034579049290704e-05  7.1292076707287062e-06  6.2300255447797345e-06  8.8579953205940815e-06  8.4106251856654094e-06  0.0000000000000000e+00  0.0000000000000000e+00  3.0458890685327136e-04  3.9879919641898370e-04  -3.7237605683447717e-04  -2.4510070198115891e-04  1.1604735338295431e-04  -9.6492284383480759e-04  9.2354091664635716e-04  5.2567401238530172e-04  8.1048645903203095e-06  -4.3718338243594224e-04  -4.2170062034616908e-04  3.0221756505024230e-04  6.8839445736935609e-04  8.4196694779231152e-04  6.1624768964990199e-05  -1.5505176756285411e-03  1.5624239901074594e-03  -5.8750757500447342e-04  8.5417984266679468e-04  3.6948831911971119e-04  -7.9479957375673516e-04  1.8922685957916063e-03  -1.9980996983495350e-03  2.3980934059968997e-03  -1.6016881845290877e-03  1.3364360934971689e-03  3.3310395785455800e-04  -1.4783098910227809e-03  3.2620640805944815e-03  -2.2559318251419332e-03  -4.6757617194773983e-04  3.2842708872975346e-03  -4.0550935425778513e-05  -2.5468537554457302e-03  -8.2115872436790897e-05  2.5649778966439999e-03  1.9025736743270563e-03  1.2794453810296251e-03  1.0650874433151905e-03  8.9720396556107289e-04  7.7668294034133486e-04  6.7274857434384877e-04  2.0776252740540842e-04  -1.6598662225842235e-03  -2.0228150043739403e-03  2.0555414872993815e-03  2.1114099701344240e-03  -2.9210756305217975e-03  2.4269853645702212e-03  -9.7163242919569162e-04  -2.0020022736563515e-04  1.1899929389961820e-03  4.1873736941129168e-04  -7.5234480703918511e-04  9.1291355549591400e-05  2.5262396016474816e-04  2.6253156118044221e-04  1.9067180321329709e-04  1.6281792322286816e-04  1.5532681491716430e-04  1.4359170412934027e-04  1.3471040988736495e-04  1.3234183153136607e-04  1.3060980131608305e-04  1.0946740824282507e-04  1.1316817412013595e-04  9.1421068758308459e-05  1.9726736997967005e-04  1.6499683269012515e-04  6.0186461181832045e-05  6.6643004005935292e-05  8.8265787496143703e-05  9.0345772692812827e-05  8.5232483292370370e-05  8.5529170275633993e-05  8.6954883184195056e-05  7.2080959224915238e-05  6.3017990325944741e-05  6.3931784172101936e-05  6.0024871891671905e-05  5.7468361677434935e-05  5.2398140026609376e-05  4.7975875228204507e-05  5.2150105121963875e-05  4.2628309620139273e-05  4.8782836332266294e-05  2.7169799156354973e-05  2.8516148558207046e-05  2.7234535709454130e-05  4.3231685265444195e-05  9.0613082694703584e-06  1.1244578906215882e-05  2.7361473368940052e-05  -2.6039257717421487e-07  2.0676505533959400e-05  -1.9407252951961049e-06  1.0933399061015744e-05  3.6887402618549648e-06  4.6860111668536548e-06  0.0000000000000000e+00  0.0000000000000000e+00  2.1079588244186920e-04  3.9149798404368463e-04  6.9163290978342023e-04  -5.3630527216083721e-04  1.7367324266070078e-04  -1.0846232906867711e-03  4.6703652589066250e-04  9.9093998166263305e-04  -1.9138848555716768e-04  9.8947456103972548e-04  -1.5076269167542263e-03  -2.6894064713935015e-04  1.2206404519109291e-03  1.0323993336157644e-03  -2.9993882410031211e-04  5.8049133209339004e-04  -1.3919170645797451e-03  8.3531486584080366e-04  1.3066789971943526e-03  -1.3269326741605410e-03  2.0194567547833081e-03  -1.4443440084899331e-03  1.8045298144252590e-03  -1.3921532941337344e-03  2.6239081944843968e-03  -2.7017088538778024e-03  3.5866522174967828e-03  -2.9486244818385634e-03  2.2527613374302060e-03  1.5575697359498817e-03  -3.6116725699216192e-03  2.8004930142478922e-03  3.3300755143517717e-03  -3.3818686230528442e-03  -1.3970012346832766e-03  1.1970813248718072e-03  3.2968140836855562e-03  1.9780422225859511e-03  1.5614637201199386e-03  1.3189467579536713e-03  1.1669540792365826e-03  9.7783568471773155e-04  4.6552322944422905e-04  7.9754135029981509e-05  -2.9889502883276098e-03  -1.0273604684236876e-03  4.1128618431580336e-03  -1.3280992765332660e-03  1.1175551239079402e-04  3.5962326120901427e-04  -1.4793428199724817e-05  -1.2796547555748495e-04  1.7555307638337132e-03  -6.1959451951308967e-04  -3.7933303485866254e-04  2.4644295340267347e-04  3.4304530644280868e-04  2.8938019496533760e-04  2.2110201935345697e-04  2.1069003928688367e-04  1.9417103833656573e-04  1.8028961394999797e-04  1.7811536854871548e-04  1.6505561271088073e-04  1.6034740339850945e-04  1.4018585930622421e-04  1.3116329004744716e-04  1.6696176723441584e-04  2.6081274720612279e-04  1.3746110664391309e-04  7.0053130125229753e-05  1.0221807352976732e-04  1.1470752560383540e-04  1.1127797426572822e-04  1.0641107773936485e-04  1.0799943611964171e-04  1.0282567887520203e-04  8.5733578484677492e-05  7.9415119460631096e-05  7.6440695128772109e-05  7.1311545963972378e-05  6.8931242242158835e-05  6.8510251213013167e-05  5.7064796965380403e-05  5.9141699683510574e-05  5.7760609228904076e-05  4.5042374124868116e-05  4.4194383666201183e-05  2.3704410150948658e-05  4.4340674262303650e-05  3.2432066297464958e-05  8.8915357085329945e-06  2.3279837899515686e-05  3.0041514526757157e-05  -1.1980231495952743e-05  2.5687631245794710e-05  -5.9109778235435681e-07  3.6316990329315679e-06  2.4481759772559243e-06  0.0000000000000000e+00  0.0000000000000000e+00  2.9326646716628128e-04  4.7296513866589322e-04  3.3922010066333096e-04  2.8411315752708882e-04  -1.5609246444724318e-04  2.2605323661484763e-04  -1.3934802803069093e-03  1.3271859947823024e-03  9.4818414708400960e-04  -3.4882259097395620e-05  -1.1403244982123511e-04  -9.1580823844893188e-04  2.5376694178515355e-04  1.2691609100121367e-03  1.3100281686860998e-03  -1.4322175840074023e-04  -1.4859938323639158e-03  1.2123350455170302e-03  -3.6396255164045023e-04  1.4156400285036696e-03  -1.1410939064350986e-04  -1.8526585617095997e-04  1.5634826684704601e-03  -1.7474142660957295e-03  2.2994757523918385e-03  -1.0695667355545564e-03  7.4624878017164140e-04  1.3721739472086392e-03  -2.5121751147351365e-03  4.5198371650593070e-03  -2.2880796066058976e-03  -1.6673801927148545e-03  4.6883505347789060e-03  7.3477036477382046e-04  -4.0588677202203294e-03  -5.0489543880637676e-04  3.2826154072833191e-03  3.2779190422679819e-03  2.2045416705965232e-03  1.8556727031829048e-03  1.5980592678325829e-03  1.4124404012644724e-03  1.1876519185143163e-03  3.8107434650213961e-04  -1.9499110126762857e-03  -3.3100445539060164e-03  2.3021381353693984e-03  3.6957880569064255e-03  -3.6662166056696125e-03  2.7586214102338991e-03  -9.9425233914156048e-04  -1.2514385524099890e-04  1.3091236459489989e-03  1.0067842972832594e-03  -1.0251471075868692e-03  3.0281994448000269e-05  3.8748808208947293e-04  4.1570921223837737e-04  3.1422073676612438e-04  2.6125547812985434e-04  2.5179145330619327e-04  2.3307106355420504e-04  2.1868942473126578e-04  2.1575502670156168e-04  2.0683632715046721e-04  1.8082263667468319e-04  1.7770877591248235e-04  1.5185149151246541e-04  2.8280134732931256e-04  2.6502456023857340e-04  1.0833935520722151e-04  1.0077792454642339e-04  1.3538863322804179e-04  1.3926489024486302e-04  1.3188913182258903e-04  1.2997140106977309e-04  1.2850872393138898e-04  1.1285381581383112e-04  9.8816270261169832e-05  9.6955872550134165e-05  8.8310752866934552e-05  8.3902927371123034e-05  7.8968415804830624e-05  7.4155405813966033e-05  7.2371610571761555e-05  6.5618056749936897e-05  6.6891881626833204e-05  4.3830748605305233e-05  4.6659065316871244e-05  3.5511198876240582e-05  5.7772387760154445e-05  1.7040639728397486e-05  1.0304666493889194e-05  3.4831784659055008e-05  8.9687396697675804e-06  1.3247722260984700e-05  4.5874675086537646e-06  7.3260716368986232e-06  4.0746521003285288e-07  0.0000000000000000e+00  0.0000000000000000e+00  1.1140482485426213e-04  3.5679702289604162e-04  6.7091203917307837e-04  6.7001020242676607e-04  -4.2976726660556657e-04  3.1748384001386090e-04  -8.3965453645386506e-04  1.4605734417195954e-04  1.5121377511970071e-03  1.4841531205593022e-04  9.9673490588625771e-04  -1.5285461390075468e-03  -5.4375889045219059e-04  1.3730605426991211e-03  1.5040041560160130e-03  9.5003593990001796e-05  4.3399289507452038e-04  -1.6894176221154183e-03  1.1500945184716935e-03  1.1723263722444985e-03  -7.9533690689011986e-04  1.8455307343371702e-03  -1.2170740753336758e-03  2.0992736062419317e-03  -1.6064487627005623e-03  3.0934634606661249e-03  -2.8762950644384598e-03  3.8127513580681460e-03  -2.7066093877612741e-03  1.8334029861965064e-03  2.7653817432998383e-03  -4.4019406547820706e-03  2.7987979483982024e-03  5.0510134114070907e-03  -3.6598840459678510e-03  -2.8159734653657501e-03  1.3064995142473197e-03  4.5019562516278120e-03  3.2461927217980451e-03  2.5279362901115725e-03  2.1657461342559862e-03  1.9225041938323311e-03  1.6441565841019794e-03  9.4142901971685166e-04  1.3291552855878688e-04  -3.7369806363105945e-03  -2.0131289571958515e-03  5.0879403366009372e-03  -5.9571560165971871e-04  -7.2651535495408311e-04  1.1891601587353637e-03  -3.8725600729689865e-04  5.0542413049009785e-06  2.2040541022886268e-03  -3.1115929120855085e-04  -7.2392935289539411e-04  3.0340481076424671e-04  5.0249951742311293e-04  4.5319213656767508e-04  3.4557638915982828e-04  3.1476228718729294e-04  2.9315284967530936e-04  2.7213742660915630e-04  2.6400928598401387e-04  2.4936306760462714e-04  2.4136321882076340e-04  2.1022572346718983e-04  1.9940079579248995e-04  2.3122261077641941e-04  3.6519322499826778e-04  2.2281455770643266e-04  1.0842310888500045e-04  1.4080023881089899e-04  1.6336340037867946e-04  1.6002741608193305e-04  1.5355500361087160e-04  1.5366496991747210e-04  1.4336976768321256e-04  1.2245797424644166e-04  1.1414363600707034e-04  1.1033048385234359e-04  9.9834347271305740e-05  9.4328391832467997e-05  9.1266532942943930e-05  8.1773689529774713e-05  7.8656210479789739e-05  7.7454329806251286e-05  6.3162000880678305e-05  5.2218845058477629e-05  3.9108245710338461e-05  5.4951982273611323e-05  5.0902987135641520e-05  1.2931862823685931e-05  2.5247635596327784e-05  3.4147116434348616e-05  -9.9776368893241564e-06  2.5086480973188045e-05  -1.0439511105649100e-06  3.8722036316233952e-06  0.0000000000000000e+00  0.0000000000000000e+00  2.5683820664415855e-04  4.7637082349206820e-04  5.1989664641219975e-04  4.8598443162698390e-04  7.1806234917837783e-04  -2.5554148624572671e-04  1.3915515265642680e-04  -1.3405055153936285e-03  1.3957478472936462e-03  1.4474769047317837e-03  1.9514197340493296e-04  -6.2344169729983647e-05  -1.2085203484493402e-03  1.8448867434749892e-04  1.68