<?xml version="1.0"?>
<VTKFile type="UnstructuredGrid"  version="0.1"  >
<UnstructuredGrid>
<Piece  NumberOfPoints="10201" NumberOfCells="20000">
<Points>
<DataArray  type="Float64"  NumberOfComponents="3"  format="ascii">0 0 0  0.01 0 0  0.02 0 0  0.03 0 0  0.04 0 0  0.05 0 0  0.06 0 0  0.07000000000000001 0 0  0.08 0 0  0.09 0 0  0.1 0 0  0.11 0 0  0.12 0 0  0.13 0 0  0.14 0 0  0.15 0 0  0.16 0 0  0.17 0 0  0.18 0 0  0.19 0 0  0.2 0 0  0.21 0 0  0.22 0 0  0.23 0 0  0.24 0 0  0.25 0 0  0.26 0 0  0.27 0 0  0.28 0 0  0.29 0 0  0.3 0 0  0.31 0 0  0.32 0 0  0.33 0 0  0.34 0 0  0.35 0 0  0.36 0 0  0.37 0 0  0.38 0 0  0.39 0 0  0.4 0 0  0.41 0 0  0.42 0 0  0.43 0 0  0.44 0 0  0.45 0 0  0.46 0 0  0.47 0 0  0.48 0 0  0.49 0 0  0.5 0 0  0.51 0 0  0.52 0 0  0.53 0 0  0.54 0 0  0.55 0 0  0.5600000000000001 0 0  0.57 0 0  0.58 0 0  0.59 0 0  0.6 0 0  0.61 0 0  0.62 0 0  0.63 0 0  0.64 0 0  0.65 0 0  0.66 0 0  0.67 0 0  0.68 0 0  0.6899999999999999 0 0  0.7 0 0  0.71 0 0  0.72 0 0  0.73 0 0  0.74 0 0  0.75 0 0  0.76 0 0  0.77 0 0  0.78 0 0  0.79 0 0  0.8 0 0  0.8100000000000001 0 0  0.82 0 0  0.83 0 0  0.84 0 0  0.85 0 0  0.86 0 0  0.87 0 0  0.88 0 0  0.89 0 0  0.9 0 0  0.91 0 0  0.92 0 0  0.93 0 0  0.9399999999999999 0 0  0.95 0 0  0.96 0 0  0.97 0 0  0.98 0 0  0.99 0 0  1 0 0  0 0.01 0  0.01 0.01 0  0.02 0.01 0  0.03 0.01 0  0.04 0.01 0  0.05 0.01 0  0.06 0.01 0  0.07000000000000001 0.01 0  0.08 0.01 0  0.09 0.01 0  0.1 0.01 0  0.11 0.01 0  0.12 0.01 0  0.13 0.01 0  0.14 0.01 0  0.15 0.01 0  0.16 0.01 0  0.17 0.01 0  0.18 0.01 0  0.19 0.01 0  0.2 0.01 0  0.21 0.01 0  0.22 0.01 0  0.23 0.01 0  0.24 0.01 0  0.25 0.01 0  0.26 0.01 0  0.27 0.01 0  0.28 0.01 0  0.29 0.01 0  0.3 0.01 0  0.31 0.01 0  0.32 0.01 0  0.33 0.01 0  0.34 0.01 0  0.35 0.01 0  0.36 0.01 0  0.37 0.01 0  0.38 0.01 0  0.39 0.01 0  0.4 0.01 0  0.41 0.01 0  0.42 0.01 0  0.43 0.01 0  0.44 0.01 0  0.45 0.01 0  0.46 0.01 0  0.47 0.01 0  0.48 0.01 0  0.49 0.01 0  0.5 0.01 0  0.51 0.01 0  0.52 0.01 0  0.53 0.01 0  0.54 0.01 0  0.55 0.01 0  0.5600000000000001 0.01 0  0.57 0.01 0  0.58 0.01 0  0.59 0.01 0  0.6 0.01 0  0.61 0.01 0  0.62 0.01 0  0.63 0.01 0  0.64 0.01 0  0.65 0.01 0  0.66 0.01 0  0.67 0.01 0  0.68 0.01 0  0.6899999999999999 0.01 0  0.7 0.01 0  0.71 0.01 0  0.72 0.01 0  0.73 0.01 0  0.74 0.01 0  0.75 0.01 0  0.76 0.01 0  0.77 0.01 0  0.78 0.01 0  0.79 0.01 0  0.8 0.01 0  0.8100000000000001 0.01 0  0.82 0.01 0  0.83 0.01 0  0.84 0.01 0  0.85 0.01 0  0.86 0.01 0  0.87 0.01 0  0.88 0.01 0  0.89 0.01 0  0.9 0.01 0  0.91 0.01 0  0.92 0.01 0  0.93 0.01 0  0.9399999999999999 0.01 0  0.95 0.01 0  0.96 0.01 0  0.97 0.01 0  0.98 0.01 0  0.99 0.01 0  1 0.01 0  0 0.02 0  0.01 0.02 0  0.02 0.02 0  0.03 0.02 0  0.04 0.02 0  0.05 0.02 0  0.06 0.02 0  0.07000000000000001 0.02 0  0.08 0.02 0  0.09 0.02 0  0.1 0.02 0  0.11 0.02 0  0.12 0.02 0  0.13 0.02 0  0.14 0.02 0  0.15 0.02 0  0.16 0.02 0  0.17 0.02 0  0.18 0.02 0  0.19 0.02 0  0.2 0.02 0  0.21 0.02 0  0.22 0.02 0  0.23 0.02 0  0.24 0.02 0  0.25 0.02 0  0.26 0.02 0  0.27 0.02 0  0.28 0.02 0  0.29 0.02 0  0.3 0.02 0  0.31 0.02 0  0.32 0.02 0  0.33 0.02 0  0.34 0.02 0  0.35 0.02 0  0.36 0.02 0  0.37 0.02 0  0.38 0.02 0  0.39 0.02 0  0.4 0.02 0  0.41 0.02 0  0.42 0.02 0  0.43 0.02 0  0.44 0.02 0  0.45 0.02 0  0.46 0.02 0  0.47 0.02 0  0.48 0.02 0  0.49 0.02 0  0.5 0.02 0  0.51 0.02 0  0.52 0.02 0  0.53 0.02 0  0.54 0.02 0  0.55 0.02 0  0.5600000000000001 0.02 0  0.57 0.02 0  0.58 0.02 0  0.59 0.02 0  0.6 0.02 0  0.61 0.02 0  0.62 0.02 0  0.63 0.02 0  0.64 0.02 0  0.65 0.02 0  0.66 0.02 0  0.67 0.02 0  0.68 0.02 0  0.6899999999999999 0.02 0  0.7 0.02 0  0.71 0.02 0  0.72 0.02 0  0.73 0.02 0  0.74 0.02 0  0.75 0.02 0  0.76 0.02 0  0.77 0.02 0  0.78 0.02 0  0.79 0.02 0  0.8 0.02 0  0.8100000000000001 0.02 0  0.82 0.02 0  0.83 0.02 0  0.84 0.02 0  0.85 0.02 0  0.86 0.02 0  0.87 0.02 0  0.88 0.02 0  0.89 0.02 0  0.9 0.02 0  0.91 0.02 0  0.92 0.02 0  0.93 0.02 0  0.9399999999999999 0.02 0  0.95 0.02 0  0.96 0.02 0  0.97 0.02 0  0.98 0.02 0  0.99 0.02 0  1 0.02 0  0 0.03 0  0.01 0.03 0  0.02 0.03 0  0.03 0.03 0  0.04 0.03 0  0.05 0.03 0  0.06 0.03 0  0.07000000000000001 0.03 0  0.08 0.03 0  0.09 0.03 0  0.1 0.03 0  0.11 0.03 0  0.12 0.03 0  0.13 0.03 0  0.14 0.03 0  0.15 0.03 0  0.16 0.03 0  0.17 0.03 0  0.18 0.03 0  0.19 0.03 0  0.2 0.03 0  0.21 0.03 0  0.22 0.03 0  0.23 0.03 0  0.24 0.03 0  0.25 0.03 0  0.26 0.03 0  0.27 0.03 0  0.28 0.03 0  0.29 0.03 0  0.3 0.03 0  0.31 0.03 0  0.32 0.03 0  0.33 0.03 0  0.34 0.03 0  0.35 0.03 0  0.36 0.03 0  0.37 0.03 0  0.38 0.03 0  0.39 0.03 0  0.4 0.03 0  0.41 0.03 0  0.42 0.03 0  0.43 0.03 0  0.44 0.03 0  0.45 0.03 0  0.46 0.03 0  0.47 0.03 0  0.48 0.03 0  0.49 0.03 0  0.5 0.03 0  0.51 0.03 0  0.52 0.03 0  0.53 0.03 0  0.54 0.03 0  0.55 0.03 0  0.5600000000000001 0.03 0  0.57 0.03 0  0.58 0.03 0  0.59 0.03 0  0.6 0.03 0  0.61 0.03 0  0.62 0.03 0  0.63 0.03 0  0.64 0.03 0  0.65 0.03 0  0.66 0.03 0  0.67 0.03 0  0.68 0.03 0  0.6899999999999999 0.03 0  0.7 0.03 0  0.71 0.03 0  0.72 0.03 0  0.73 0.03 0  0.74 0.03 0  0.75 0.03 0  0.76 0.03 0  0.77 0.03 0  0.78 0.03 0  0.79 0.03 0  0.8 0.03 0  0.8100000000000001 0.03 0  0.82 0.03 0  0.83 0.03 0  0.84 0.03 0  0.85 0.03 0  0.86 0.03 0  0.87 0.03 0  0.88 0.03 0  0.89 0.03 0  0.9 0.03 0  0.91 0.03 0  0.92 0.03 0  0.93 0.03 0  0.9399999999999999 0.03 0  0.95 0.03 0  0.96 0.03 0  0.97 0.03 0  0.98 0.03 0  0.99 0.03 0  1 0.03 0  0 0.04 0  0.01 0.04 0  0.02 0.04 0  0.03 0.04 0  0.04 0.04 0  0.05 0.04 0  0.06 0.04 0  0.07000000000000001 0.04 0  0.08 0.04 0  0.09 0.04 0  0.1 0.04 0  0.11 0.04 0  0.12 0.04 0  0.13 0.04 0  0.14 0.04 0  0.15 0.04 0  0.16 0.04 0  0.17 0.04 0  0.18 0.04 0  0.19 0.04 0  0.2 0.04 0  0.21 0.04 0  0.22 0.04 0  0.23 0.04 0  0.24 0.04 0  0.25 0.04 0  0.26 0.04 0  0.27 0.04 0  0.28 0.04 0  0.29 0.04 0  0.3 0.04 0  0.31 0.04 0  0.32 0.04 0  0.33 0.04 0  0.34 0.04 0  0.35 0.04 0  0.36 0.04 0  0.37 0.04 0  0.38 0.04 0  0.39 0.04 0  0.4 0.04 0  0.41 0.04 0  0.42 0.04 0  0.43 0.04 0  0.44 0.04 0  0.45 0.04 0  0.46 0.04 0  0.47 0.04 0  0.48 0.04 0  0.49 0.04 0  0.5 0.04 0  0.51 0.04 0  0.52 0.04 0  0.53 0.04 0  0.54 0.04 0  0.55 0.04 0  0.5600000000000001 0.04 0  0.57 0.04 0  0.58 0.04 0  0.59 0.04 0  0.6 0.04 0  0.61 0.04 0  0.62 0.04 0  0.63 0.04 0  0.64 0.04 0  0.65 0.04 0  0.66 0.04 0  0.67 0.04 0  0.68 0.04 0  0.6899999999999999 0.04 0  0.7 0.04 0  0.71 0.04 0  0.72 0.04 0  0.73 0.04 0  0.74 0.04 0  0.75 0.04 0  0.76 0.04 0  0.77 0.04 0  0.78 0.04 0  0.79 0.04 0  0.8 0.04 0  0.8100000000000001 0.04 0  0.82 0.04 0  0.83 0.04 0  0.84 0.04 0  0.85 0.04 0  0.86 0.04 0  0.87 0.04 0  0.88 0.04 0  0.89 0.04 0  0.9 0.04 0  0.91 0.04 0  0.92 0.04 0  0.93 0.04 0  0.9399999999999999 0.04 0  0.95 0.04 0  0.96 0.04 0  0.97 0.04 0  0.98 0.04 0  0.99 0.04 0  1 0.04 0  0 0.05 0  0.01 0.05 0  0.02 0.05 0  0.03 0.05 0  0.04 0.05 0  0.05 0.05 0  0.06 0.05 0  0.07000000000000001 0.05 0  0.08 0.05 0  0.09 0.05 0  0.1 0.05 0  0.11 0.05 0  0.12 0.05 0  0.13 0.05 0  0.14 0.05 0  0.15 0.05 0  0.16 0.05 0  0.17 0.05 0  0.18 0.05 0  0.19 0.05 0  0.2 0.05 0  0.21 0.05 0  0.22 0.05 0  0.23 0.05 0  0.24 0.05 0  0.25 0.05 0  0.26 0.05 0  0.27 0.05 0  0.28 0.05 0  0.29 0.05 0  0.3 0.05 0  0.31 0.05 0  0.32 0.05 0  0.33 0.05 0  0.34 0.05 0  0.35 0.05 0  0.36 0.05 0  0.37 0.05 0  0.38 0.05 0  0.39 0.05 0  0.4 0.05 0  0.41 0.05 0  0.42 0.05 0  0.43 0.05 0  0.44 0.05 0  0.45 0.05 0  0.46 0.05 0  0.47 0.05 0  0.48 0.05 0  0.49 0.05 0  0.5 0.05 0  0.51 0.05 0  0.52 0.05 0  0.53 0.05 0  0.54 0.05 0  0.55 0.05 0  0.5600000000000001 0.05 0  0.57 0.05 0  0.58 0.05 0  0.59 0.05 0  0.6 0.05 0  0.61 0.05 0  0.62 0.05 0  0.63 0.05 0  0.64 0.05 0  0.65 0.05 0  0.66 0.05 0  0.67 0.05 0  0.68 0.05 0  0.6899999999999999 0.05 0  0.7 0.05 0  0.71 0.05 0  0.72 0.05 0  0.73 0.05 0  0.74 0.05 0  0.75 0.05 0  0.76 0.05 0  0.77 0.05 0  0.78 0.05 0  0.79 0.05 0  0.8 0.05 0  0.8100000000000001 0.05 0  0.82 0.05 0  0.83 0.05 0  0.84 0.05 0  0.85 0.05 0  0.86 0.05 0  0.87 0.05 0  0.88 0.05 0  0.89 0.05 0  0.9 0.05 0  0.91 0.05 0  0.92 0.05 0  0.93 0.05 0  0.9399999999999999 0.05 0  0.95 0.05 0  0.96 0.05 0  0.97 0.05 0  0.98 0.05 0  0.99 0.05 0  1 0.05 0  0 0.06 0  0.01 0.06 0  0.02 0.06 0  0.03 0.06 0  0.04 0.06 0  0.05 0.06 0  0.06 0.06 0  0.07000000000000001 0.06 0  0.08 0.06 0  0.09 0.06 0  0.1 0.06 0  0.11 0.06 0  0.12 0.06 0  0.13 0.06 0  0.14 0.06 0  0.15 0.06 0  0.16 0.06 0  0.17 0.06 0  0.18 0.06 0  0.19 0.06 0  0.2 0.06 0  0.21 0.06 0  0.22 0.06 0  0.23 0.06 0  0.24 0.06 0  0.25 0.06 0  0.26 0.06 0  0.27 0.06 0  0.28 0.06 0  0.29 0.06 0  0.3 0.06 0  0.31 0.06 0  0.32 0.06 0  0.33 0.06 0  0.34 0.06 0  0.35 0.06 0  0.36 0.06 0  0.37 0.06 0  0.38 0.06 0  0.39 0.06 0  0.4 0.06 0  0.41 0.06 0  0.42 0.06 0  0.43 0.06 0  0.44 0.06 0  0.45 0.06 0  0.46 0.06 0  0.47 0.06 0  0.48 0.06 0  0.49 0.06 0  0.5 0.06 0  0.51 0.06 0  0.52 0.06 0  0.53 0.06 0  0.54 0.06 0  0.55 0.06 0  0.5600000000000001 0.06 0  0.57 0.06 0  0.58 0.06 0  0.59 0.06 0  0.6 0.06 0  0.61 0.06 0  0.62 0.06 0  0.63 0.06 0  0.64 0.06 0  0.65 0.06 0  0.66 0.06 0  0.67 0.06 0  0.68 0.06 0  0.6899999999999999 0.06 0  0.7 0.06 0  0.71 0.06 0  0.72 0.06 0  0.73 0.06 0  0.74 0.06 0  0.75 0.06 0  0.76 0.06 0  0.77 0.06 0  0.78 0.06 0  0.79 0.06 0  0.8 0.06 0  0.8100000000000001 0.06 0  0.82 0.06 0  0.83 0.06 0  0.84 0.06 0  0.85 0.06 0  0.86 0.06 0  0.87 0.06 0  0.88 0.06 0  0.89 0.06 0  0.9 0.06 0  0.91 0.06 0  0.92 0.06 0  0.93 0.06 0  0.9399999999999999 0.06 0  0.95 0.06 0  0.96 0.06 0  0.97 0.06 0  0.98 0.06 0  0.99 0.06 0  1 0.06 0  0 0.07000000000000001 0  0.01 0.07000000000000001 0  0.02 0.07000000000000001 0  0.03 0.07000000000000001 0  0.04 0.07000000000000001 0  0.05 0.07000000000000001 0  0.06 0.07000000000000001 0  0.07000000000000001 0.07000000000000001 0  0.08 0.07000000000000001 0  0.09 0.07000000000000001 0  0.1 0.07000000000000001 0  0.11 0.07000000000000001 0  0.12 0.07000000000000001 0  0.13 0.07000000000000001 0  0.14 0.07000000000000001 0  0.15 0.07000000000000001 0  0.16 0.07000000000000001 0  0.17 0.0700
[...]
<PointData  Scalars="Indicator Function"> 
<DataArray  type="Float64"  Name="Indicator Function"  format="ascii">-1.2037062152420224e-35  -6.2349257855902505e-20  2.8770001988056305e-20  2.3231930256004870e-19  3.3927846592690724e-19  -3.3450677109425406e-20  -2.8946820926490575e-20  6.5404083163964426e-19  8.8093432584496886e-19  -1.5046327690525280e-36  4.6462209535244367e-18  2.2556035295118061e-18  -3.7382250447667990e-20  -3.4980303636522308e-20  8.0844507684866065e-18  -9.0106573121958660e-21  -2.4433673082948687e-21  2.0759308162388181e-18  -3.5296968601645704e-20  -3.0092655381050560e-35  6.0580247031693982e-18  6.0185310762101120e-36  -3.7719350115381531e-20  1.1755688014327139e-17  -5.0570918720264295e-20  -2.5285459360132154e-20  -1.8979213051658755e-20  -4.4404000080591173e-20  4.1293144872797500e-17  -1.7107183484110995e-20  -7.9186761667843059e-20  -2.8573663874620009e-20  -4.6973527799131486e-20  -1.9996646139599667e-20  1.5380085600638000e-17  -8.8147977132464946e-20  -1.1990286767343487e-19  -1.3740418536953279e-19  -1.4300722909942070e-19  -1.3973404698171376e-19  9.0505026819098264e-18  -7.6729542031916958e-20  -2.4650975043004942e-20  -3.1965851311917552e-20  -2.3086083424076953e-20  -2.1735836844317963e-20  2.5403499719367517e-17  -1.4875775782552488e-20  -9.1219943226778728e-21  -4.0066508659040845e-21  -2.3104509181450871e-20  -1.1552254590725438e-20  -8.5566777986566945e-21  -1.0792055810677671e-20  -9.4031586265097144e-21  -4.5153159920806579e-21  2.9333051989562703e-19  -1.4364752300029953e-22  -1.8807909613156600e-37  -1.1126290347546442e-22  -5.5150348795799421e-22  -2.3152208390162212e-22  -1.0942441195882531e-21  -3.6135264117226881e-22  -2.5226199589259859e-21  -2.2550294447198173e-21  -4.4603794276191609e-22  4.2552895499766808e-36  6.2198718615168046e-20  1.6456920911512025e-37  6.4652189295225813e-38  1.1754943508222875e-37  -5.4639245565829036e-23  -6.6032437406716434e-23  -1.1142577795602753e-22  -1.0298226439191955e-22  -2.6754509398108779e-23  -3.0293781226620094e-22  -4.0654121460291005e-22  -5.9014850465989909e-22  -7.5687042860613898e-22  8.6554011731617228e-20  -3.1888972337349547e-22  -3.2854531770789856e-22  -3.8019491219530602e-22  -1.5441258653362112e-22  -3.9248978044709970e-23  -4.1562408421262110e-23  -2.0812688291944719e-22  -1.0678688233946370e-22  -3.1810179924271313e-22  -3.7089144035834992e-22  -2.6317779343688384e-22  1.1546414779579063e-19  -5.6645775344468266e-23  -2.3509887016445750e-38  -4.3231517016526102e-24  -2.6476169606152142e-23  -2.3554173270407141e-23  -4.4081038155835782e-39  5.8774717541114375e-39  -3.2900898137371543e-20  5.2296376011217414e-04  2.2658296725124253e-04  1.4113366109573378e-04  3.4925128519388535e-04  2.6468861586633770e-04  4.7024951992802728e-04  2.8633480778840080e-04  6.8451375954271386e-04  7.4355790377079258e-05  1.4111288220917076e-05  4.2592330516042751e-04  7.2420016578440111e-04  3.1131867385335185e-04  4.7448979276431701e-04  2.3199744157072815e-04  4.6322850868910067e-05  7.5002287646657622e-04  1.3074333887319251e-04  6.3585365856671865e-04  1.7624162854761665e-04  3.1846874882299545e-04  2.0829654580447539e-04  5.7534313159492481e-04  2.2725857726935231e-04  9.1100468281746358e-04  6.8379821461788488e-04  8.7988892997699331e-04  3.5996688787834032e-04  6.1635124131520719e-04  7.9405429106621940e-04  1.0294747358267876e-03  6.4602067941198107e-04  5.2318950946379393e-04  9.8632797679940506e-05  7.5232261593857091e-04  1.2117714798996430e-03  1.5540923007491185e-03  1.6982076017429382e-03  1.7270854138622838e-03  1.6536821007401281e-03  1.3145611249271486e-03  7.2495598514942569e-04  4.4407248807198571e-04  3.5380934019173732e-04  7.8311605370128597e-04  6.0865463038225467e-04  5.3595630616920336e-04  3.2865448185990273e-04  6.9414064221296463e-05  7.2177405386757336e-05  4.1621383576064138e-04  8.0550376178228805e-05  1.1386821569312431e-04  1.3747828626355595e-04  1.0065310361404127e-04  6.9904909345771439e-05  4.1760406173858822e-05  2.1822706349204115e-05  1.1664407665635065e-05  6.7314525650028880e-06  8.2514309460619720e-06  1.3386097351715736e-05  1.3019100961062188e-05  2.1279004846802952e-05  3.4803978804664312e-05  2.3221009665466490e-05  1.2680545531692576e-05  2.9836425364837861e-06  5.7110191712146896e-07  4.5743772731724016e-07  2.9818208208701258e-08  6.4469853206756140e-08  2.3790692839940320e-06  2.3353956378590238e-07  2.0072683683289354e-06  8.5152936600040989e-07  2.7488295190767525e-06  4.1671265248050052e-06  5.2400321879831543e-06  8.0111542487267319e-06  9.6289883965900900e-06  7.3182361148047838e-06  2.0854885000262228e-06  6.0940124314733088e-06  3.8019764438271010e-06  8.8066164678297056e-07  7.0704673158731440e-07  5.2509961830456394e-06  1.1237825179244009e-06  2.3003502690159508e-06  4.5802374436334944e-06  4.3912674885543369e-06  2.5453559055410036e-06  2.2530575726021285e-06  4.3951207570042500e-07  3.5873544270053731e-07  7.7878977570515390e-08  4.3801278150460174e-07  2.0530787310220177e-07  5.6984381963721008e-24  -1.3460023587428303e-20  5.9268989036648418e-04  1.5296529128191937e-04  9.9337710157767838e-05  5.0264957444888099e-06  3.6202641287143560e-04  5.1884932018297989e-04  6.3449276969134794e-04  7.5541755172624638e-04  2.4551360222605426e-05  2.6761150690096652e-04  4.4658563557635174e-04  5.9408401820636809e-04  9.8722900802646735e-04  8.5010719955155140e-04  5.7661777791493047e-04  1.2087012853426696e-03  1.0551997789594644e-05  5.1791254427106684e-04  9.2128509672985881e-04  4.3559146376884921e-04  1.5564148300999995e-03  1.0127237767149375e-03  1.6834456991848437e-03  9.5000473803448146e-04  1.1962778770274367e-03  1.0643737976009210e-05  3.4669063668217397e-04  1.6903651035230362e-03  1.1850599157977909e-03  1.0117082050413752e-04  1.6745716764518998e-03  1.5787850017560137e-04  1.1660569535281396e-03  6.2464056347124382e-04  8.9939272054705209e-04  1.5112516614702862e-03  2.0125769818296795e-03  2.3443658056945967e-03  2.4515052817186945e-03  2.3868398122034980e-03  2.1780016443738309e-03  1.6116321379079669e-03  2.9181539185734861e-04  1.0514694698460076e-03  9.1613541506875280e-04  8.2150941295468791e-04  1.1905837661090300e-03  9.8482424707872578e-04  2.7739401528737107e-04  3.9089497714994692e-04  5.9349765939300831e-04  2.9190540821369100e-04  3.3451775342458790e-04  1.5008359014170969e-04  1.4568208805860382e-04  9.1170959348250047e-05  7.9312061747283030e-05  4.3552447423436258e-05  2.2262720502906260e-05  1.5709842399218630e-05  1.1637225123928304e-05  9.2531084940854598e-06  2.4805260660100557e-05  3.1682839242731325e-07  5.1816314405612764e-05  4.3153094036624907e-05  1.6316848268314204e-05  9.7918552976377389e-06  4.0603799513244186e-06  1.5080029122737949e-06  6.0116055007110461e-07  2.8014700603427095e-06  2.7541291686331254e-07  3.1683753006432582e-06  1.6890420264348155e-06  3.9108459920659321e-06  4.6695689196150497e-08  6.5737770607317482e-06  8.1170698649991504e-06  8.4249925117115545e-06  1.1712598381909151e-05  1.2725751172066646e-05  4.8271002031105106e-06  7.6901304170858747e-07  1.3313783043610778e-05  1.4264136202368244e-06  7.9007182845513382e-06  8.0177042206352340e-06  5.8176043656528494e-06  4.7147995808300219e-06  6.3022504410984556e-06  4.5574832406123796e-06  5.3313262775837425e-06  3.8212309284985978e-06  2.0312225065464970e-06  9.8277942441854888e-07  2.1244957541442963e-07  4.1904052180064599e-07  5.5247067699183052e-07  1.3800727485598080e-22  -2.3183509968197023e-20  2.4247422885096163e-04  4.5224230862848377e-04  6.5455732351802685e-05  4.9156811147808355e-04  7.1084470944326073e-04  6.1781935744229107e-04  8.3104148435621022e-04  2.0534408487150969e-04  1.3298684360482764e-03  4.8895820196306428e-04  4.0641700213996348e-06  1.0399711466927402e-03  1.1846054396490093e-03  1.8584509103471286e-04  1.0630024582275216e-03  2.5996899248673756e-04  4.0101659756653160e-04  1.4459895090270813e-03  7.8474964081303399e-04  1.7268772584042840e-03  4.8852418611852917e-04  1.1406933934856049e-03  3.6733809052297295e-04  1.6882034495196031e-03  1.4410698845141365e-03  2.3970677170481220e-03  2.0049358833585146e-03  1.8924040414935702e-03  8.1090307039259418e-04  2.0851901468264974e-03  1.8228376951338744e-03  2.0539507595469103e-03  2.1186242252278845e-03  9.7791153387964767e-04  7.0317471755990146e-05  1.8126532670962759e-03  2.1098099448018845e-03  2.5611844158262122e-03  2.7810303890064346e-03  2.8304319748933713e-03  2.6714724569783348e-03  2.0082085308636816e-03  1.1062628321863942e-03  1.2723087168057632e-03  6.7760503569200877e-04  2.2553260917131759e-03  1.4128543018898797e-03  8.8914819008022671e-04  5.9488580989207373e-04  3.4759354452882442e-04  3.4522388082851838e-04  1.0502886665994199e-03  3.7124684420574843e-04  3.0771376415203542e-04  1.4248770256159929e-04  8.0351923798809046e-05  7.6418182044112870e-05  6.7852491583621452e-05  3.7198000853278384e-05  2.0433082470210588e-05  1.4184087630491456e-05  1.4983651366957076e-05  1.7023029760424471e-05  2.1092307653456663e-05  3.6801465329708246e-05  5.8236449452329944e-05  3.2489937631808594e-05  1.2144371076351591e-05  3.1509644722423339e-06  3.4571079964257167e-06  2.1226736668364031e-06  1.5889019105849585e-06  1.4732218020054232e-06  3.5471639566864552e-06  1.4838597096916256e-06  5.8507245318821144e-06  1.9303036852527225e-06  3.1727839087694087e-06  1.0282633857918799e-05  1.0693347195014538e-05  1.1161532112493676e-05  1.3999411346706844e-05  1.0859139883562887e-05  2.7962478969596422e-07  8.9248019825683941e-06  5.9697924051603301e-06  2.2288682814572678e-06  8.6726235864218415e-06  1.5609196615445746e-05  1.3846290595171432e-06  8.4196087888402321e-06  6.8508631453440338e-06  5.2094565102347754e-06  3.6710480266358253e-06  3.9259658081292384e-06  1.2238935464115963e-06  1.0380799435155248e-06  1.0438236112919966e-07  7.3771286486541898e-07  -2.7183306862765399e-37  -1.8868369606675698e-20  4.1763698741564983e-04  5.7164640752174008e-04  3.2600927006458696e-05  1.4872894551231267e-04  4.8009574711468586e-04  7.0978046271888483e-04  1.1361490988235164e-03  1.0270098964206180e-03  6.4671845309636794e-04  1.6974711569529708e-04  1.4306952398040587e-04  3.7613632534763436e-04  9.2486521370280120e-04  1.5122623304436634e-03  6.0102192732055788e-04  8.2876774204129690e-04  1.6988789214604936e-03  4.0043070694918166e-04  1.2121236900980506e-03  5.9343946702522131e-04  3.4138674236627560e-04  2.0052970290197155e-03  1.5834111380128660e-03  2.3728679448239429e-03  1.2012048032429359e-03  1.2170602395601368e-03  5.8961224036400885e-04  1.4788588981673816e-03  3.1874596813622155e-03  1.8592548028457119e-03  7.8613509473727378e-04  3.0954944712728838e-03  4.4490279253290888e-04  2.6116854775533192e-03  7.6194559902848132e-04  1.5278528793991352e-03  2.3190662438157825e-03  2.6250496696194115e-03  2.9772853073056116e-03  3.0874306911921217e-03  3.0090736047152576e-03  2.7522826142079167e-03  1.8775308986972651e-03  6.7509087814801323e-04  1.8670701681144902e-03  1.5005071549119243e-03  1.9093832265050931e-03  2.6968593449335494e-03  2.1269658433015039e-03  9.2799507023991667e-04  3.4453288064876906e-04  8.0556096984425892e-04  6.1982521485960771e-04  7.6517661168743194e-04  2.0074430235432611e-04  1.0334627490342448e-04  3.2906894067565011e-05  7.3188589498266016e-05  4.9649042294361988e-05  2.6482879632575104e-05  1.8372231457195345e-05  1.4583205412603882e-05  1.3226149426249962e-05  3.0365408732344623e-05  1.5046308900935059e-06  6.9905789680956872e-05  5.0689253576515412e-05  1.6996176674240858e-05  8.8613723454246010e-06  8.9098486291862138e-07  1.1779806122211770e-06  9.2983444347558399e-07  5.4717979249380995e-06  2.2292478479121764e-07  4.5125012772591894e-06  1.3883660654233561e-06  8.7628445362399729e-06  2.1834387972383319e-07  7.4577780004227785e-06  1.2662476970111167e-05  1.3250845652685659e-05  1.3734958142967411e-05  1.4238094781848731e-05  5.0262790561746403e-06  1.5893545212111622e-06  1.5765217338094034e-05  9.2718005452317345e-07  1.2124323644763397e-05  3.8123718419959548e-06  1.3990639043461206e-05  8.4811527902233485e-06  1.1287909782543696e-05  5.8069130602446940e-06  4.4621575956362698e-06  4.0961024136242817e-06  2.6433858975513028e-06  1.2185117948792637e-06  2.2932342621824821e-07  1.4277668565577511e-07  -1.0454771405465609e-23  -2.1041945877050941e-20  3.3990232931885333e-04  5.7501301829623061e-04  9.2140553886632800e-04  1.2498507981353725e-04  5.1698817758363282e-04  6.5743465420592092e-04  6.2207909541390550e-04  1.2722369925732412e-03  4.0193484981195188e-04  1.6625440901028566e-03  9.1474425118734468e-04  8.6019160798648882e-05  1.3508341544621386e-03  1.3381849228986829e-03  3.2766527476234822e-04  1.2867076662714816e-03  9.8478785967706845e-04  1.1002399404767434e-03  1.3530209732828349e-03  8.7204879454853650e-04  2.2365143860907464e-03  1.1448666987249271e-03  2.0334530457618602e-03  1.2066006139599831e-03  2.7617221481671256e-03  2.4817632188823169e-03  3.4368135969143621e-03  2.6267422086176991e-03  1.9705684519846977e-03  1.7180285726012840e-03  3.4280442166223996e-03  2.2354472795436623e-03  3.3676420082572266e-03  2.8747588065800088e-03  1.7883514893263488e-03  1.5943561541639672e-04  2.6792746220718052e-03  2.7435275891810012e-03  3.0983293896725763e-03  3.3165797183562604e-03  3.3593542670301200e-03  3.1573956969136257e-03  2.3701941491639836e-03  1.2656545101618515e-03  2.0805687929555984e-03  1.2255088529051017e-03  3.4917792675884522e-03  1.4185260789740923e-03  2.2010145486357690e-04  5.1611031956690052e-05  1.7557024894622784e-04  6.3377867150732163e-04  1.5474690971551026e-03  4.0247138104218961e-04  6.2727475831299956e-04  1.2924999426459368e-04  2.7960780126020464e-05  3.5322126723540520e-05  6.9213845999843425e-05  3.8004670514113556e-05  2.0748250416713633e-05  1.2908355251625809e-05  1.2345520559742924e-05  1.9858992099819379e-05  3.1243166727793944e-05  4.4276180947845874e-05  7.5888353199932872e-05  3.3575075727272790e-05  1.0122100132206177e-05  5.3468497546680643e-06  5.1381872921654347e-07  1.6232445572375194e-06  1.7660559068233834e-06  3.6442050454443219e-06  3.4202115825729045e-06  2.4465158499317769e-06  3.8935166570458514e-06  5.1531041954026743e-06  2.1946321405804402e-06  1.1638011394476696e-05  1.3440107748769925e-05  1.3966525059918395e-05  1.5273097167522175e-05  1.1278582981448260e-05  7.0307865345208780e-07  1.2319473900038813e-05  6.3312438687682309e-06  6.1574885832557299e-06  1.2767502867242438e-05  1.7377998032677447e-05  1.5295700847868225e-06  1.2979625806948614e-05  9.2661418971674482e-06  5.5367850590782059e-06  3.4529819482288662e-06  3.9293230104772794e-06  2.2007961814508962e-06  1.4921047829956272e-06  5.5851790869811003e-07  2.3509887016445750e-38  -1.0456771706651172e-20  3.7905799844414716e-04  6.2750706845294906e-04  5.2072506185206176e-04  6.0953955332967264e-04  2.3498349720644580e-04  5.7349772211284756e-04  1.0583344964938115e-03  1.4759099103297734e-03  1.3299708972626569e-03  5.7711033457074669e-04  5.1789907465303109e-04  2.5544518628848776e-04  3.3909462305767052e-04  1.3957391469399650e-03  1.8392897239859426e-03  3.5459160371810325e-04  6.6688302465902000e-04  1.3868079375377856e-03  1.9268736722602439e-04  1.6351172767260127e-03  1.2923008044490462e-04  1.9382996123316684e-04  1.6500184224470958e-03  1.3698699352167501e-03  2.2445311091371955e-03  7.4296507766075093e-04  6.3480154302843314e-04  1.4537616034855608e-03  2.4302867891199125e-03  4.2396502088859764e-03  1.9381567773205841e-03  1.8791551442473076e-03  4.2255042260397526e-03  1.0293368020380131e-03  3.9133021382010344e-03  1.0729248694692367e-03  1.9026981268764030e-03  3.2217556884531926e-03  3.2274515124120578e-03  3.5295071087317561e-03  3.6325204204143030e-03  3.5486564958564421e-03  3.2265597602054523e-03  2.0561185501715967e-03  8.6380366461362890e-04  2.8215492623772554e-03  1.7488317715338487e-03  3.1088187986906420e-03  3.5110642731080214e-03  2.4226696026721510e-03  1.1417641967579560e-03  1.9723776608419671e-04  6.8610403257849328e-04  1.0485157955418469e-03  1.0339882446167982e-03  3.4945724020939031e-04  5.3129758430284991e-05  3.0017450134158206e-05  5.3888446500589136e-05  5.7752825929658642e-05  2.9650293999716376e-05  1.9847980899316468e-05  1.4679425055365279e-05  8.7442841039282709e-06  3.1149361412419038e-05  3.4491005854226521e-06  7.8723148406541530e-05  6.3250142845245688e-05  1.7692338244599988e-05  5.4946491883576368e-06  4.5521796619067768e-06  1.1486991391457156e-06  1.9184739159097882e-06  1.3583459881288208e-07  1.3151743224967689e-06  5.0891833569757791e-06  1.4938665925737358e-06  6.1533882793548684e-06  1.9075470429375398e-06  6.1162532081202896e-06  1.3621098121609732e-05  1.4498583415769526e-05  1.5237037928058231e-05  1.4572411949729036e-05  3.8114550809129765e-06  5.6531754520129239e-06  1.7744189100962592e-05  4.7780980002867458e-07  1.5216823527548922e-05  1.1306590837484543e-06  2.1228773975902144e-05  1.0059458740909972e-05  1.4658268715583858e-05  7.2797728047320984e-06  4.3994092915743168e-06  3.5440083370909577e-06  2.6871441566474882e-06  1.4651169157482554e-06  9.2043369346952322e-07  9.4039548065783001e-38  -2.0016026457564008e-20  1.8837245264629037e-04  4.9397126169578988e-04  8.2163635914958165e-04  8.6181908349703535e-04  6.0011280788654120e-05  6.5263969137666663e-04  4.1411116859295009e-04  3.3442321748280063e-04  1.6842909435821685e-03  6.3638881568221534e-04  1.6216024364148426e-03  8.9825217581255754e-04  4.2063614759863912e-05  1.4079348208027179e-03  1.6535496840556459e-03  6.3734740446581243e-04  1.0951317291501613e-03  1.1397908097269581e-03  1.3606412569737885e-03  1.1811465002595147e-03  4.3674292651610971e-04  2.0072094133571279e-03  9.4849591065074160e-04  2.2459884080125382e-03  1.4066086624701824e-03  3.1187686552284202e-03  2.6476839003553554e-03  3.5737552162422364e-03  2.4674736359641043e-03  1.5519119938619524e-03  2.6915039956181136e-03  4.1736308514573961e-03  2.1741572425727647e-03  4.7751236992068296e-03  3.1865775996626111e-03  3.0108631965946480e-03  2.1445994627070582e-04  3.3514460940521095e-03  3.5941473711758659e-03  3.7455009526306993e-03  3.9256433592137147e-03  3.9542088477686676e-03  3.7159754434803725e-03  2.7765241479989823e-03  1.3081107556456187e-03  2.6690524423693359e-03  1.9088274199503682e-03  4.3039517177894714e-03  1.0123025374479736e-03  6.0394405283492483e-04  6.2283833928114367e-04  3.0367817353580106e-04  5.4366122852375404e-04  1.7309589178206427e-03  1.9920331971433612e-04  9.8778157506977573e-04  1.6283070153321185e-04  3.1738437195805654e-05  2.8410560506355062e-05  5.9951972350350440e-05  4.2302090883880116e-05  2.4330453170776569e-05  1.5710193256538316e-05  1.5242366170948922e-05  2.0306339768894702e-05  3.2005193054641429e-05  5.0146945384795415e-05  8.5445928741044661e-05  3.9601059589461779e-05  1.0655273781538737e-05  2.6191637961769081e-06  3.6957585998732504e-06  3.2288880322111508e-06  3.2032942050152923e-06  2.8656503527139540e-08  2.6687221750036010e-07  4.1560869702577418e-06  3.9677744699554353e-06  4.0843140655595793e-06  1.4904844562387569e-06  1.1159440833077164e-05  1.5452695061948322e-05  1.4549494140295790e-05  1.6330414681898877e-05  1.2398734266899084e-05  1.9042991100362728e-06  1.8974816587701797e-05  5.5295230263902302e-06  7.4092276722936068e-06  1.2635174081559018e-05  1.1627754067881701e-05  1.2485990486948568e-05  1.7779602788801059e-05  1.1924741677889026e-05  4.7524979428485214e-06  3.0326125015289953e-06  3.6234496382358853e-06  1.8680557201655128e-06  1.4756520578069161e-06  1.8917796619281057e-23  -1.1657002324812188e-20  3.6057667718289411e-04  6.0093008468086546e-04  6.7334254887838486e-04  6.2718304785341547e-04  9.5345516902382496e-04  1.1629196983074089e-04  4.6700161635571482e-04  9.7372013423345841e-04  1.5149160317620414e-03  1.6995450625125644e-03  7.3553168661525466e-04  5.4623878648776326e-04  5.2364902821765949e-04  3.7547085282612307e-04  1.6845605596476308e-03  2.0616103832549518e-03  4