<?xml version="1.0"?>
<VTKFile type="UnstructuredGrid"  version="0.1"  >
<UnstructuredGrid>
<Piece  NumberOfPoints="10201" NumberOfCells="20000">
<Points>
<DataArray  type="Float64"  NumberOfComponents="3"  format="ascii">0 0 0  0.01 0 0  0.02 0 0  0.03 0 0  0.04 0 0  0.05 0 0  0.06 0 0  0.07000000000000001 0 0  0.08 0 0  0.09 0 0  0.1 0 0  0.11 0 0  0.12 0 0  0.13 0 0  0.14 0 0  0.15 0 0  0.16 0 0  0.17 0 0  0.18 0 0  0.19 0 0  0.2 0 0  0.21 0 0  0.22 0 0  0.23 0 0  0.24 0 0  0.25 0 0  0.26 0 0  0.27 0 0  0.28 0 0  0.29 0 0  0.3 0 0  0.31 0 0  0.32 0 0  0.33 0 0  0.34 0 0  0.35 0 0  0.36 0 0  0.37 0 0  0.38 0 0  0.39 0 0  0.4 0 0  0.41 0 0  0.42 0 0  0.43 0 0  0.44 0 0  0.45 0 0  0.46 0 0  0.47 0 0  0.48 0 0  0.49 0 0  0.5 0 0  0.51 0 0  0.52 0 0  0.53 0 0  0.54 0 0  0.55 0 0  0.5600000000000001 0 0  0.57 0 0  0.58 0 0  0.59 0 0  0.6 0 0  0.61 0 0  0.62 0 0  0.63 0 0  0.64 0 0  0.65 0 0  0.66 0 0  0.67 0 0  0.68 0 0  0.6899999999999999 0 0  0.7 0 0  0.71 0 0  0.72 0 0  0.73 0 0  0.74 0 0  0.75 0 0  0.76 0 0  0.77 0 0  0.78 0 0  0.79 0 0  0.8 0 0  0.8100000000000001 0 0  0.82 0 0  0.83 0 0  0.84 0 0  0.85 0 0  0.86 0 0  0.87 0 0  0.88 0 0  0.89 0 0  0.9 0 0  0.91 0 0  0.92 0 0  0.93 0 0  0.9399999999999999 0 0  0.95 0 0  0.96 0 0  0.97 0 0  0.98 0 0  0.99 0 0  1 0 0  0 0.01 0  0.01 0.01 0  0.02 0.01 0  0.03 0.01 0  0.04 0.01 0  0.05 0.01 0  0.06 0.01 0  0.07000000000000001 0.01 0  0.08 0.01 0  0.09 0.01 0  0.1 0.01 0  0.11 0.01 0  0.12 0.01 0  0.13 0.01 0  0.14 0.01 0  0.15 0.01 0  0.16 0.01 0  0.17 0.01 0  0.18 0.01 0  0.19 0.01 0  0.2 0.01 0  0.21 0.01 0  0.22 0.01 0  0.23 0.01 0  0.24 0.01 0  0.25 0.01 0  0.26 0.01 0  0.27 0.01 0  0.28 0.01 0  0.29 0.01 0  0.3 0.01 0  0.31 0.01 0  0.32 0.01 0  0.33 0.01 0  0.34 0.01 0  0.35 0.01 0  0.36 0.01 0  0.37 0.01 0  0.38 0.01 0  0.39 0.01 0  0.4 0.01 0  0.41 0.01 0  0.42 0.01 0  0.43 0.01 0  0.44 0.01 0  0.45 0.01 0  0.46 0.01 0  0.47 0.01 0  0.48 0.01 0  0.49 0.01 0  0.5 0.01 0  0.51 0.01 0  0.52 0.01 0  0.53 0.01 0  0.54 0.01 0  0.55 0.01 0  0.5600000000000001 0.01 0  0.57 0.01 0  0.58 0.01 0  0.59 0.01 0  0.6 0.01 0  0.61 0.01 0  0.62 0.01 0  0.63 0.01 0  0.64 0.01 0  0.65 0.01 0  0.66 0.01 0  0.67 0.01 0  0.68 0.01 0  0.6899999999999999 0.01 0  0.7 0.01 0  0.71 0.01 0  0.72 0.01 0  0.73 0.01 0  0.74 0.01 0  0.75 0.01 0  0.76 0.01 0  0.77 0.01 0  0.78 0.01 0  0.79 0.01 0  0.8 0.01 0  0.8100000000000001 0.01 0  0.82 0.01 0  0.83 0.01 0  0.84 0.01 0  0.85 0.01 0  0.86 0.01 0  0.87 0.01 0  0.88 0.01 0  0.89 0.01 0  0.9 0.01 0  0.91 0.01 0  0.92 0.01 0  0.93 0.01 0  0.9399999999999999 0.01 0  0.95 0.01 0  0.96 0.01 0  0.97 0.01 0  0.98 0.01 0  0.99 0.01 0  1 0.01 0  0 0.02 0  0.01 0.02 0  0.02 0.02 0  0.03 0.02 0  0.04 0.02 0  0.05 0.02 0  0.06 0.02 0  0.07000000000000001 0.02 0  0.08 0.02 0  0.09 0.02 0  0.1 0.02 0  0.11 0.02 0  0.12 0.02 0  0.13 0.02 0  0.14 0.02 0  0.15 0.02 0  0.16 0.02 0  0.17 0.02 0  0.18 0.02 0  0.19 0.02 0  0.2 0.02 0  0.21 0.02 0  0.22 0.02 0  0.23 0.02 0  0.24 0.02 0  0.25 0.02 0  0.26 0.02 0  0.27 0.02 0  0.28 0.02 0  0.29 0.02 0  0.3 0.02 0  0.31 0.02 0  0.32 0.02 0  0.33 0.02 0  0.34 0.02 0  0.35 0.02 0  0.36 0.02 0  0.37 0.02 0  0.38 0.02 0  0.39 0.02 0  0.4 0.02 0  0.41 0.02 0  0.42 0.02 0  0.43 0.02 0  0.44 0.02 0  0.45 0.02 0  0.46 0.02 0  0.47 0.02 0  0.48 0.02 0  0.49 0.02 0  0.5 0.02 0  0.51 0.02 0  0.52 0.02 0  0.53 0.02 0  0.54 0.02 0  0.55 0.02 0  0.5600000000000001 0.02 0  0.57 0.02 0  0.58 0.02 0  0.59 0.02 0  0.6 0.02 0  0.61 0.02 0  0.62 0.02 0  0.63 0.02 0  0.64 0.02 0  0.65 0.02 0  0.66 0.02 0  0.67 0.02 0  0.68 0.02 0  0.6899999999999999 0.02 0  0.7 0.02 0  0.71 0.02 0  0.72 0.02 0  0.73 0.02 0  0.74 0.02 0  0.75 0.02 0  0.76 0.02 0  0.77 0.02 0  0.78 0.02 0  0.79 0.02 0  0.8 0.02 0  0.8100000000000001 0.02 0  0.82 0.02 0  0.83 0.02 0  0.84 0.02 0  0.85 0.02 0  0.86 0.02 0  0.87 0.02 0  0.88 0.02 0  0.89 0.02 0  0.9 0.02 0  0.91 0.02 0  0.92 0.02 0  0.93 0.02 0  0.9399999999999999 0.02 0  0.95 0.02 0  0.96 0.02 0  0.97 0.02 0  0.98 0.02 0  0.99 0.02 0  1 0.02 0  0 0.03 0  0.01 0.03 0  0.02 0.03 0  0.03 0.03 0  0.04 0.03 0  0.05 0.03 0  0.06 0.03 0  0.07000000000000001 0.03 0  0.08 0.03 0  0.09 0.03 0  0.1 0.03 0  0.11 0.03 0  0.12 0.03 0  0.13 0.03 0  0.14 0.03 0  0.15 0.03 0  0.16 0.03 0  0.17 0.03 0  0.18 0.03 0  0.19 0.03 0  0.2 0.03 0  0.21 0.03 0  0.22 0.03 0  0.23 0.03 0  0.24 0.03 0  0.25 0.03 0  0.26 0.03 0  0.27 0.03 0  0.28 0.03 0  0.29 0.03 0  0.3 0.03 0  0.31 0.03 0  0.32 0.03 0  0.33 0.03 0  0.34 0.03 0  0.35 0.03 0  0.36 0.03 0  0.37 0.03 0  0.38 0.03 0  0.39 0.03 0  0.4 0.03 0  0.41 0.03 0  0.42 0.03 0  0.43 0.03 0  0.44 0.03 0  0.45 0.03 0  0.46 0.03 0  0.47 0.03 0  0.48 0.03 0  0.49 0.03 0  0.5 0.03 0  0.51 0.03 0  0.52 0.03 0  0.53 0.03 0  0.54 0.03 0  0.55 0.03 0  0.5600000000000001 0.03 0  0.57 0.03 0  0.58 0.03 0  0.59 0.03 0  0.6 0.03 0  0.61 0.03 0  0.62 0.03 0  0.63 0.03 0  0.64 0.03 0  0.65 0.03 0  0.66 0.03 0  0.67 0.03 0  0.68 0.03 0  0.6899999999999999 0.03 0  0.7 0.03 0  0.71 0.03 0  0.72 0.03 0  0.73 0.03 0  0.74 0.03 0  0.75 0.03 0  0.76 0.03 0  0.77 0.03 0  0.78 0.03 0  0.79 0.03 0  0.8 0.03 0  0.8100000000000001 0.03 0  0.82 0.03 0  0.83 0.03 0  0.84 0.03 0  0.85 0.03 0  0.86 0.03 0  0.87 0.03 0  0.88 0.03 0  0.89 0.03 0  0.9 0.03 0  0.91 0.03 0  0.92 0.03 0  0.93 0.03 0  0.9399999999999999 0.03 0  0.95 0.03 0  0.96 0.03 0  0.97 0.03 0  0.98 0.03 0  0.99 0.03 0  1 0.03 0  0 0.04 0  0.01 0.04 0  0.02 0.04 0  0.03 0.04 0  0.04 0.04 0  0.05 0.04 0  0.06 0.04 0  0.07000000000000001 0.04 0  0.08 0.04 0  0.09 0.04 0  0.1 0.04 0  0.11 0.04 0  0.12 0.04 0  0.13 0.04 0  0.14 0.04 0  0.15 0.04 0  0.16 0.04 0  0.17 0.04 0  0.18 0.04 0  0.19 0.04 0  0.2 0.04 0  0.21 0.04 0  0.22 0.04 0  0.23 0.04 0  0.24 0.04 0  0.25 0.04 0  0.26 0.04 0  0.27 0.04 0  0.28 0.04 0  0.29 0.04 0  0.3 0.04 0  0.31 0.04 0  0.32 0.04 0  0.33 0.04 0  0.34 0.04 0  0.35 0.04 0  0.36 0.04 0  0.37 0.04 0  0.38 0.04 0  0.39 0.04 0  0.4 0.04 0  0.41 0.04 0  0.42 0.04 0  0.43 0.04 0  0.44 0.04 0  0.45 0.04 0  0.46 0.04 0  0.47 0.04 0  0.48 0.04 0  0.49 0.04 0  0.5 0.04 0  0.51 0.04 0  0.52 0.04 0  0.53 0.04 0  0.54 0.04 0  0.55 0.04 0  0.5600000000000001 0.04 0  0.57 0.04 0  0.58 0.04 0  0.59 0.04 0  0.6 0.04 0  0.61 0.04 0  0.62 0.04 0  0.63 0.04 0  0.64 0.04 0  0.65 0.04 0  0.66 0.04 0  0.67 0.04 0  0.68 0.04 0  0.6899999999999999 0.04 0  0.7 0.04 0  0.71 0.04 0  0.72 0.04 0  0.73 0.04 0  0.74 0.04 0  0.75 0.04 0  0.76 0.04 0  0.77 0.04 0  0.78 0.04 0  0.79 0.04 0  0.8 0.04 0  0.8100000000000001 0.04 0  0.82 0.04 0  0.83 0.04 0  0.84 0.04 0  0.85 0.04 0  0.86 0.04 0  0.87 0.04 0  0.88 0.04 0  0.89 0.04 0  0.9 0.04 0  0.91 0.04 0  0.92 0.04 0  0.93 0.04 0  0.9399999999999999 0.04 0  0.95 0.04 0  0.96 0.04 0  0.97 0.04 0  0.98 0.04 0  0.99 0.04 0  1 0.04 0  0 0.05 0  0.01 0.05 0  0.02 0.05 0  0.03 0.05 0  0.04 0.05 0  0.05 0.05 0  0.06 0.05 0  0.07000000000000001 0.05 0  0.08 0.05 0  0.09 0.05 0  0.1 0.05 0  0.11 0.05 0  0.12 0.05 0  0.13 0.05 0  0.14 0.05 0  0.15 0.05 0  0.16 0.05 0  0.17 0.05 0  0.18 0.05 0  0.19 0.05 0  0.2 0.05 0  0.21 0.05 0  0.22 0.05 0  0.23 0.05 0  0.24 0.05 0  0.25 0.05 0  0.26 0.05 0  0.27 0.05 0  0.28 0.05 0  0.29 0.05 0  0.3 0.05 0  0.31 0.05 0  0.32 0.05 0  0.33 0.05 0  0.34 0.05 0  0.35 0.05 0  0.36 0.05 0  0.37 0.05 0  0.38 0.05 0  0.39 0.05 0  0.4 0.05 0  0.41 0.05 0  0.42 0.05 0  0.43 0.05 0  0.44 0.05 0  0.45 0.05 0  0.46 0.05 0  0.47 0.05 0  0.48 0.05 0  0.49 0.05 0  0.5 0.05 0  0.51 0.05 0  0.52 0.05 0  0.53 0.05 0  0.54 0.05 0  0.55 0.05 0  0.5600000000000001 0.05 0  0.57 0.05 0  0.58 0.05 0  0.59 0.05 0  0.6 0.05 0  0.61 0.05 0  0.62 0.05 0  0.63 0.05 0  0.64 0.05 0  0.65 0.05 0  0.66 0.05 0  0.67 0.05 0  0.68 0.05 0  0.6899999999999999 0.05 0  0.7 0.05 0  0.71 0.05 0  0.72 0.05 0  0.73 0.05 0  0.74 0.05 0  0.75 0.05 0  0.76 0.05 0  0.77 0.05 0  0.78 0.05 0  0.79 0.05 0  0.8 0.05 0  0.8100000000000001 0.05 0  0.82 0.05 0  0.83 0.05 0  0.84 0.05 0  0.85 0.05 0  0.86 0.05 0  0.87 0.05 0  0.88 0.05 0  0.89 0.05 0  0.9 0.05 0  0.91 0.05 0  0.92 0.05 0  0.93 0.05 0  0.9399999999999999 0.05 0  0.95 0.05 0  0.96 0.05 0  0.97 0.05 0  0.98 0.05 0  0.99 0.05 0  1 0.05 0  0 0.06 0  0.01 0.06 0  0.02 0.06 0  0.03 0.06 0  0.04 0.06 0  0.05 0.06 0  0.06 0.06 0  0.07000000000000001 0.06 0  0.08 0.06 0  0.09 0.06 0  0.1 0.06 0  0.11 0.06 0  0.12 0.06 0  0.13 0.06 0  0.14 0.06 0  0.15 0.06 0  0.16 0.06 0  0.17 0.06 0  0.18 0.06 0  0.19 0.06 0  0.2 0.06 0  0.21 0.06 0  0.22 0.06 0  0.23 0.06 0  0.24 0.06 0  0.25 0.06 0  0.26 0.06 0  0.27 0.06 0  0.28 0.06 0  0.29 0.06 0  0.3 0.06 0  0.31 0.06 0  0.32 0.06 0  0.33 0.06 0  0.34 0.06 0  0.35 0.06 0  0.36 0.06 0  0.37 0.06 0  0.38 0.06 0  0.39 0.06 0  0.4 0.06 0  0.41 0.06 0  0.42 0.06 0  0.43 0.06 0  0.44 0.06 0  0.45 0.06 0  0.46 0.06 0  0.47 0.06 0  0.48 0.06 0  0.49 0.06 0  0.5 0.06 0  0.51 0.06 0  0.52 0.06 0  0.53 0.06 0  0.54 0.06 0  0.55 0.06 0  0.5600000000000001 0.06 0  0.57 0.06 0  0.58 0.06 0  0.59 0.06 0  0.6 0.06 0  0.61 0.06 0  0.62 0.06 0  0.63 0.06 0  0.64 0.06 0  0.65 0.06 0  0.66 0.06 0  0.67 0.06 0  0.68 0.06 0  0.6899999999999999 0.06 0  0.7 0.06 0  0.71 0.06 0  0.72 0.06 0  0.73 0.06 0  0.74 0.06 0  0.75 0.06 0  0.76 0.06 0  0.77 0.06 0  0.78 0.06 0  0.79 0.06 0  0.8 0.06 0  0.8100000000000001 0.06 0  0.82 0.06 0  0.83 0.06 0  0.84 0.06 0  0.85 0.06 0  0.86 0.06 0  0.87 0.06 0  0.88 0.06 0  0.89 0.06 0  0.9 0.06 0  0.91 0.06 0  0.92 0.06 0  0.93 0.06 0  0.9399999999999999 0.06 0  0.95 0.06 0  0.96 0.06 0  0.97 0.06 0  0.98 0.06 0  0.99 0.06 0  1 0.06 0  0 0.07000000000000001 0  0.01 0.07000000000000001 0  0.02 0.07000000000000001 0  0.03 0.07000000000000001 0  0.04 0.07000000000000001 0  0.05 0.07000000000000001 0  0.06 0.07000000000000001 0  0.07000000000000001 0.07000000000000001 0  0.08 0.07000000000000001 0  0.09 0.07000000000000001 0  0.1 0.07000000000000001 0  0.11 0.07000000000000001 0  0.12 0.07000000000000001 0  0.13 0.07000000000000001 0  0.14 0.07000000000000001 0  0.15 0.07000000000000001 0  0.16 0.07000000000000001 0  0.17 0.0700
[...]
<PointData  Scalars="u"> 
<DataArray  type="Float64"  Name="u"  format="ascii">0.0000000000000000e+00  0.0000000000000000e+00  0.0000000000000000e+00  0.0000000000000000e+00  0.0000000000000000e+00  0.0000000000000000e+00  0.0000000000000000e+00  0.0000000000000000e+00  0.0000000000000000e+00  0.0000000000000000e+00  0.0000000000000000e+00  0.0000000000000000e+00  0.0000000000000000e+00  0.0000000000000000e+00  0.0000000000000000e+00  0.0000000000000000e+00  0.0000000000000000e+00  0.0000000000000000e+00  0.0000000000000000e+00  0.0000000000000000e+00  0.0000000000000000e+00  0.0000000000000000e+00  0.0000000000000000e+00  0.0000000000000000e+00  0.0000000000000000e+00  0.0000000000000000e+00  0.0000000000000000e+00  0.0000000000000000e+00  0.0000000000000000e+00  0.0000000000000000e+00  0.0000000000000000e+00  0.0000000000000000e+00  0.0000000000000000e+00  0.0000000000000000e+00  0.0000000000000000e+00  0.0000000000000000e+00  0.0000000000000000e+00  0.0000000000000000e+00  0.0000000000000000e+00  0.0000000000000000e+00  0.0000000000000000e+00  0.0000000000000000e+00  0.0000000000000000e+00  0.0000000000000000e+00  0.0000000000000000e+00  0.0000000000000000e+00  0.0000000000000000e+00  0.0000000000000000e+00  0.0000000000000000e+00  0.0000000000000000e+00  0.0000000000000000e+00  0.0000000000000000e+00  0.0000000000000000e+00  0.0000000000000000e+00  0.0000000000000000e+00  0.0000000000000000e+00  0.0000000000000000e+00  0.0000000000000000e+00  0.0000000000000000e+00  0.0000000000000000e+00  0.0000000000000000e+00  0.0000000000000000e+00  0.0000000000000000e+00  0.0000000000000000e+00  0.0000000000000000e+00  0.0000000000000000e+00  0.0000000000000000e+00  0.0000000000000000e+00  0.0000000000000000e+00  0.0000000000000000e+00  0.0000000000000000e+00  0.0000000000000000e+00  0.0000000000000000e+00  0.0000000000000000e+00  0.0000000000000000e+00  0.0000000000000000e+00  0.0000000000000000e+00  0.0000000000000000e+00  0.0000000000000000e+00  0.0000000000000000e+00  0.0000000000000000e+00  0.0000000000000000e+00  0.0000000000000000e+00  0.0000000000000000e+00  0.0000000000000000e+00  0.0000000000000000e+00  0.0000000000000000e+00  0.0000000000000000e+00  0.0000000000000000e+00  0.0000000000000000e+00  0.0000000000000000e+00  0.0000000000000000e+00  0.0000000000000000e+00  0.0000000000000000e+00  0.0000000000000000e+00  0.0000000000000000e+00  0.0000000000000000e+00  0.0000000000000000e+00  0.0000000000000000e+00  0.0000000000000000e+00  0.0000000000000000e+00  0.0000000000000000e+00  -6.8513448354583066e-04  -4.5895029258584917e-04  -9.4033209163698933e-05  -4.8727537210175502e-04  1.7600601321119617e-04  1.5972045063918392e-04  -1.6105969597208169e-04  1.9422752881047403e-04  -2.0145209800710414e-04  -8.9172432278033294e-05  2.4334621544163819e-04  3.0277288048745268e-04  -2.0235635631771879e-04  6.2050054360288274e-05  7.1450025869723412e-05  -1.1455293069398809e-04  5.1475374827424656e-04  -3.6720908918680970e-04  3.5150816195693457e-04  -7.6623269146357316e-06  6.0662388563655491e-05  1.2498896961418398e-04  3.1497206844364155e-04  -2.6711457508667169e-04  7.0835216575759362e-04  -7.2506154146633004e-04  8.5210613696186008e-04  5.2012375315698688e-05  -4.7167107468570316e-04  8.7796687185184462e-04  5.4687786666850658e-04  -7.7067174596804310e-04  1.0301719394112797e-05  4.1118933196900563e-04  6.4931796643176800e-04  3.7935969944856429e-04  2.5137315067267767e-04  1.6853809125232818e-04  1.2118837574531455e-04  8.3992866746162220e-05  -5.7585420652136508e-05  -2.1742630442394357e-04  -5.4851076488432698e-04  5.9040533372987315e-05  7.4935824397313780e-04  -7.9524655978311168e-04  5.7228082750795050e-04  -3.8030837323452379e-04  1.3065581567647130e-04  -1.6371158482503569e-05  3.1119672128285784e-04  -2.2798704492049942e-04  -7.3951271781527253e-05  2.7211237396417527e-05  6.6857877906702820e-05  3.8070133791515538e-05  2.5390626533532513e-05  2.3834095913691332e-05  1.9385389172261255e-05  1.8630422328105677e-05  2.0093397194629579e-05  1.4007991874085234e-05  2.2042186986009907e-05  2.8228373961675897e-05  2.0681712491504452e-05  1.4652429876230037e-05  1.5814648466152864e-05  1.7592565481564003e-05  1.0189667189991707e-05  1.2477304747668818e-05  1.7455941859408670e-05  7.6454119530534403e-06  1.1656975333173737e-05  1.2098602744713720e-05  1.0074370364691846e-05  7.5581574241119791e-06  1.1998866155754073e-05  7.5791914984434587e-06  4.6306144170644121e-06  6.8699481634307836e-06  7.7630852457429529e-06  8.1259685684662985e-06  9.9140800623911043e-06  8.1926837444046266e-06  5.6164131429241931e-06  3.4613077794142556e-06  2.2249756678658390e-06  6.6193831782687731e-06  7.8700052787354202e-06  6.5687983464882250e-07  2.2064243028900597e-06  3.5884101029200343e-06  2.7072264682073418e-06  1.9985227423953290e-06  1.9285784948207959e-06  1.4921392150954502e-06  1.5136171684666226e-06  8.9942710103088575e-07  6.6732712850244363e-07  0.0000000000000000e+00  0.0000000000000000e+00  4.2771000287897059e-04  -4.5951765405591278e-04  -4.1303505216225983e-04  -2.8272817848051113e-04  -5.1365102197426654e-04  2.7379336151163545e-04  1.0933460501372602e-04  1.5155826673460604e-04  -5.3867407736281217e-04  2.2033242183862378e-05  2.6603434312462003e-04  1.9632477654525141e-04  3.4466123207086411e-04  2.1943060659163771e-04  -9.6637381305085665e-04  9.9200304071521200e-04  -2.3983775797334204e-04  1.7046039912009894e-04  5.9207452903590357e-04  -7.7415848515216491e-04  1.2568479581231513e-03  -1.2465211884409163e-03  1.4752853060119727e-03  -1.1915608742976962e-03  1.1101023096385639e-03  -2.3037087947290423e-04  -3.1776990491804314e-04  1.4444108597813656e-03  -1.3671472922998956e-03  1.1660155179265205e-04  1.4758407295955198e-03  -3.1250518754779661e-04  -9.0594140879344848e-04  1.3027174622459720e-04  1.1657636081615452e-03  8.9802660101966981e-04  5.6359262204273342e-04  4.2376692388758298e-04  3.3323270585743433e-04  2.5164613300503348e-04  1.8684502814701634e-04  4.5739520602573871e-05  -1.0351960545026925e-03  -8.0662389330432029e-04  1.2722301152810471e-03  5.8133675783973650e-04  -1.1876380791984802e-03  9.4189927956548161e-04  -2.3771339793749932e-04  -3.2084767815936100e-04  6.0543237813384014e-04  1.3873960108597844e-04  -4.1977176172367946e-04  2.4315365608972929e-06  9.9403205134093194e-05  1.1461766480535560e-04  5.2183709820801554e-05  4.6152843609495819e-05  4.3709594297754303e-05  4.1254900755170331e-05  3.7753687431332970e-05  3.3799929507140073e-05  4.0292257715897207e-05  5.0130088845795598e-05  4.7409114638439522e-05  4.1006582976148238e-05  3.3749921082121048e-05  2.7480102172341057e-05  3.2681465590540332e-05  3.1576644052678265e-05  1.9802813764982019e-05  2.9162090188310778e-05  2.5749426307320737e-05  1.7529056800095471e-05  2.4328240764431471e-05  1.8699243677366024e-05  1.9702238623420057e-05  1.7799324780140892e-05  1.1381191845968431e-05  1.2147883519541441e-05  1.3760598735383008e-05  1.3812930766665080e-05  1.7937898407645933e-05  1.8428743306265968e-05  1.2082383095433610e-05  8.2667998355660024e-06  7.1424261029610008e-06  2.7181538361488803e-06  2.1454179409014759e-05  3.9420538941227501e-06  2.9689697198924278e-06  5.2080357765683923e-06  4.9039379110992991e-06  4.9924931951435255e-06  3.4783617291839137e-06  3.3530694316114166e-06  2.5551613261352468e-06  2.0330128125637971e-06  1.5690293592134358e-06  0.0000000000000000e+00  0.0000000000000000e+00  1.0877975113902172e-04  1.8916074690099213e-04  -2.9250386110619958e-04  1.5300804831326704e-04  -9.6785371334549993e-04  4.3531548277426623e-04  4.3650503575172651e-04  -4.0299851003139446e-04  6.7271185833213333e-04  -9.7151563459441971e-04  -2.3823112055603910e-04  7.7689364095552505e-04  6.3597746659496625e-04  -5.1762382949189145e-04  4.7244729589923494e-04  -5.9025594273971250e-04  1.7849228156457405e-04  1.1206344892781828e-03  -1.1398124742857288e-03  1.3485645558157929e-03  -8.0391761141881133e-04  8.1183184911037105e-04  -5.5563095056189676e-04  1.4044873023967906e-03  -1.5819457263675334e-03  2.2050067076923906e-03  -2.1275253295715067e-03  1.8636193818968969e-03  5.1400006402968707e-04  -2.0361059921043907e-03  1.9511089334693574e-03  1.6290971932413265e-03  -2.3073361841992115e-03  -4.3304498869347035e-04  6.9800587266407850e-04  1.7449892337443552e-03  1.0452417887391132e-03  7.4378273665823356e-04  5.8518638951625119e-04  5.0908127038488428e-04  4.2126686762839171e-04  6.4816704690320525e-05  -2.7971808514244733e-04  -1.6064676655115819e-03  -2.2824960425790489e-04  2.3724609482877945e-03  -1.6259052487714108e-03  9.5702558148656530e-04  -6.3765216867849419e-04  4.7853781185840918e-04  -2.9979430172022588e-04  1.0250563717843961e-03  -4.9725851279398652e-04  -2.8599025535573804e-04  9.4901961355380019e-05  2.0501155849909390e-04  1.2707885154426347e-04  7.2365180138681982e-05  6.8915845945808547e-05  6.0830159270010712e-05  6.0997123009279085e-05  5.9881917743423376e-05  4.7262201887930726e-05  7.1600915319960403e-05  8.0174537869199587e-05  6.3583256100295245e-05  5.3874793551686527e-05  5.1312722501480687e-05  4.9606783568710803e-05  4.1985147531335617e-05  4.6693838095196638e-05  4.1765881295871787e-05  3.4707691717488726e-05  4.0982071482279265e-05  3.0604771939862299e-05  3.5058984902903153e-05  2.5764554111548610e-05  3.3205503508719871e-05  2.3387504219869235e-05  1.5247520778146733e-05  1.9140059755415747e-05  2.1455547169182038e-05  2.2681084632048526e-05  2.7654693551458881e-05  2.2921299817136551e-05  1.4309412557435962e-05  9.0141882122377148e-06  8.0843464395270623e-06  1.3054716378415973e-05  2.4970639908159647e-05  2.2196636672590550e-06  4.8074028096740699e-06  7.3945102140056922e-06  6.1070516391158190e-06  5.1500551753362151e-06  4.2441989942626254e-06  3.0484795754761026e-06  2.6717095877275093e-06  1.0847015638393400e-06  0.0000000000000000e+00  0.0000000000000000e+00  2.8070330926900617e-04  3.5467087807102509e-04  -2.8801943376717852e-04  -2.1232198780932762e-04  1.5489066579861842e-04  -9.4717119362830958e-04  9.0914074082582355e-04  5.2215578515692575e-04  3.3892210076870900e-06  -4.6907974212195055e-04  -2.0884172663298246e-04  1.4056195785210610e-04  5.5635042446119194e-04  8.8378587446220750e-04  -1.1441135961657794e-04  -1.3020371744235453e-03  1.4110248746493225e-03  -6.6018289460753306e-04  8.7772757253828503e-04  2.2149101019998103e-04  -6.8572468278077416e-04  1.6705652723006258e-03  -1.8369313493751972e-03  2.1486874080726692e-03  -1.4269920702695163e-03  1.0921012653031085e-03  4.0250637999972012e-04  -1.5020861007671808e-03  3.0275696522211576e-03  -2.0605670573029030e-03  -6.3041583838467793e-04  3.0481281508073855e-03  3.8213357461687422e-05  -2.5049304972470615e-03  -4.2004581914084200e-05  1.8903382603326982e-03  1.8979834109106981e-03  1.2070880982431777e-03  9.3791721041344147e-04  7.7381527972372093e-04  6.5178304285320586e-04  5.4095221184842653e-04  1.0227563350739968e-04  -1.6901191293705888e-03  -1.7905384025896480e-03  1.9355803290464610e-03  1.8139442933757725e-03  -2.7154212886696585e-03  2.1500383865966782e-03  -8.7499927450671131e-04  -2.2094782278689613e-04  8.6138227952737624e-04  5.9054870533908714e-04  -8.6135704817520719e-04  -6.2656939210439393e-05  2.0147340257683810e-04  2.6520698577565103e-04  1.2765475590363761e-04  1.0023626396859140e-04  9.2085739720553037e-05  8.3363733640158126e-05  8.2019524394756773e-05  7.5135746838146439e-05  7.6192357231264553e-05  1.0513862291473356e-04  9.8704854993687037e-05  7.7974100006015184e-05  7.2829961221182338e-05  6.5100680638829732e-05  6.4808513378085289e-05  6.3018380380948567e-05  5.6971370983411465e-05  5.5976063686768513e-05  5.0860739046057097e-05  4.9713316130539745e-05  4.4763885179612129e-05  4.1646366118387344e-05  4.1040064288612723e-05  4.1081741386576502e-05  2.5507333872535831e-05  2.2804144317754325e-05  2.7953040772423410e-05  2.8031597832974223e-05  3.4087658234559999e-05  3.6767379668851881e-05  2.5257240109958018e-05  1.5337089531172419e-05  1.1267447564149252e-05  7.7743072945474897e-06  2.9734455461349602e-05  1.6002899204430392e-05  3.2495613785181898e-06  8.4247083901266138e-06  8.7900482429477926e-06  7.1844021034862629e-06  5.3803832631435485e-06  4.0842156876547620e-06  2.3480241301639113e-06  1.5716320804025893e-06  0.0000000000000000e+00  0.0000000000000000e+00  2.1538106856284844e-04  3.7932509347752923e-04  6.5801174215463919e-04  -4.8688648363885397e-04  1.5877805560811847e-04  -9.4679031194395155e-04  4.0734579351138847e-04  9.5410177074171476e-04  -1.5733170789534865e-04  9.9614030890633515e-04  -1.4918698112220464e-03  -1.9416835835645675e-04  1.1122518764207806e-03  8.5609866993793392e-04  -3.3270681777915244e-04  6.5012866358516927e-04  -1.3967178231393475e-03  8.9339479707979783e-04  1.0400942204210725e-03  -1.1940870062584240e-03  1.8672807777006715e-03  -1.4793298739131087e-03  1.7319997497419900e-03  -1.4331240081134459e-03  2.5386817625170999e-03  -2.6596350872657533e-03  3.2800402103300543e-03  -2.7210907702549694e-03  1.9261915981330789e-03  1.5368028169727745e-03  -3.4304936780007161e-03  2.3697576642643416e-03  3.1086305429957341e-03  -3.0844819936956393e-03  -1.4138157183694179e-03  8.3264477022977667e-04  2.8127242772945813e-03  1.9479624057044435e-03  1.4034878503013043e-03  1.1365402812989300e-03  9.9617574556223713e-04  8.3279960947859656e-04  3.1760279081487539e-04  -2.9979860111140381e-04  -2.6426863735528028e-03  -8.6568445418183865e-04  3.7457495757685193e-03  -1.5023047935191071e-03  2.7811360550721281e-04  -3.0162384878157699e-05  3.5469020321376825e-04  -5.5472250003459804e-04  1.6292096717129946e-03  -4.3250232123794789e-04  -6.4982854452854213e-04  1.1234965850228602e-04  3.2883729582287705e-04  2.5249684480238934e-04  1.3662415915864656e-04  1.2709778811326731e-04  1.1486786146284637e-04  1.0681049141564373e-04  1.0573687766736370e-04  9.2417960747102296e-05  1.1445235601993954e-04  1.3186378395878989e-04  1.1543624992030686e-04  8.9902386854322306e-05  8.7092447674591718e-05  8.8198247714200143e-05  7.6922151673624608e-05  7.5947262576156141e-05  7.5807841122393403e-05  6.7989335560985536e-05  6.1933862338838728e-05  6.0540216707374830e-05  5.8732935064155438e-05  4.7623658346852356e-05  5.3986349254895100e-05  4.5230629577672695e-05  2.8239869592581759e-05  2.9176459065009456e-05  3.5486668366538782e-05  3.8400346140312957e-05  4.5736682130556579e-05  3.9325772672940049e-05  2.5537847811380978e-05  1.5920043922416509e-05  1.1121112771899001e-05  2.0825493979373958e-05  3.1679734350660318e-05  1.0846546020187512e-05  5.4606047815293814e-06  1.0305564412192792e-05  9.2650199004941827e-06  7.1966283345650476e-06  5.7280212106003978e-06  3.5463771518241989e-06  1.8383840205764585e-06  0.0000000000000000e+00  0.0000000000000000e+00  2.4195944477911155e-04  4.4229974634612385e-04  2.9456824543034916e-04  3.1698378135781402e-04  -1.3590295585957598e-04  2.3819516740834968e-04  -1.3338689974301753e-03  1.2777413798051756e-03  9.1743274918278822e-04  -3.3409506094351416e-05  -1.1554095509284408e-04  -7.0178755114799979e-04  8.0462897348225785e-05  1.1078760662786768e-03  1.2906349178797452e-03  -3.5664881475466824e-04  -1.1601105654870643e-03  1.0367521138223198e-03  -3.9925104423053237e-04  1.3426426781430610e-03  -2.3468056103774686e-04  -9.7037039406001736e-05  1.2936632457762626e-03  -1.5685515999062281e-03  1.9878295772110749e-03  -8.7133867206109963e-04  4.6272025044834285e-04  1.3651857451065150e-03  -2.4853096764765703e-03  4.1232163377747108e-03  -2.0458571718686321e-03  -1.8085833908704180e-03  4.2618022262130304e-03  7.8303905679380297e-04  -3.8953840033038654e-03  -4.5938412588569577e-04  2.3911914042446841e-03  3.0995336574230598e-03  2.0752157440120005e-03  1.6206974681939276e-03  1.3616999304071247e-03  1.1812355435260108e-03  9.6827753599067201e-04  1.9227796064458079e-04  -2.0661339866727881e-03  -2.9118130137198400e-03  2.1648974748822735e-03  3.2106087325163707e-03  -3.4982182688647967e-03  2.4918775390885637e-03  -1.0461371829836958e-03  7.6770759282863290e-06  7.7943917560539702e-04  1.1674228174257204e-03  -1.0830315389476651e-03  -2.5326381996560712e-04  2.8146807038248803e-04  4.1107671948899997e-04  2.2426214635689541e-04  1.5841372402705781e-04  1.4862041283895819e-04  1.3754625144380279e-04  1.3357985334462932e-04  1.1859469146195678e-04  1.2628326464967076e-04  1.5771251803309126e-04  1.4389773231180769e-04  1.2728733986123981e-04  1.1181237845357537e-04  1.0046742707678890e-04  1.0068438479255031e-04  9.8909670465213118e-05  8.9615823446143332e-05  8.4013073910547262e-05  8.5269673446944572e-05  7.2359499841648164e-05  7.1384976265084906e-05  6.6504698906063271e-05  6.1002931012731667e-05  6.1896402309641376e-05  4.4375593076812156e-05  3.2786708883689746e-05  3.8580326123819390e-05  4.1357094841057659e-05  4.9333821763064270e-05  5.4514785604496522e-05  3.8155198958352746e-05  2.2822046325303015e-05  1.7131187323515964e-05  1.1598337778227751e-05  3.5028808279266920e-05  2.3175468837569835e-05  8.1535546486912365e-06  8.2691154903010230e-06  1.1617717696547883e-05  9.4435728966945387e-06  6.0328779328875663e-06  4.8945682246164812e-06  1.5130231010603443e-06  0.0000000000000000e+00  0.0000000000000000e+00  6.0693184227501144e-05  3.1051547030937194e-04  6.0630005032099904e-04  6.1634331807793280e-04  -3.9168835211995955e-04  2.8822088311626458e-04  -7.1013967538165190e-04  8.2850408768956490e-05  1.4402607194169063e-03  1.6887772510751245e-04  9.7152119880527859e-04  -1.4981619366450654e-03  -3.7585109468714448e-04  1.1736419634352849e-03  1.2635509744159410e-03  6.9532490754475602e-05  4.4006903060086669e-04  -1.5885626069707260e-03  1.1412749129667758e-03  9.0670496261674634e-04  -6.8235390456427409e-04  1.6463921723824982e-03  -1.2469093002727004e-03  1.9519608611639886e-03  -1.6167756883217477e-03  2.9279052151553247e-03  -2.7840086164555708e-03  3.4019004079741981e-03  -2.4499653085926407e-03  1.4626971511073981e-03  2.6476421606820297e-03  -4.1362253038552503e-03  2.2416599443673391e-03  4.6462904280194714e-03  -3.2901004720158255e-03  -2.7685789296569467e-03  8.6947234156467806e-04  3.6739296029913572e-03  3.1326927952202302e-03  2.2785713618604401e-03  1.8534462680406484e-03  1.6240936745097420e-03  1.3770283999862106e-03  6.7851713294692832e-04  -3.5809441002922687e-04  -3.4202560895810813e-03  -1.6818206608452107e-03  4.6213668107101197e-03  -8.8024310680394173e-04  -5.5806601501640985e-04  7.5070405423394875e-04  -9.9228882698075555e-05  -3.9472556116521766e-04  1.8830373221989521e-03  -8.7661722791016397e-05  -1.0062136488420796e-03  6.6381418741252271e-05  4.4740062144574743e-04  4.0895431483593217e-04  2.1980084065951105e-04  1.8925858043109737e-04  1.7200418153438267e-04  1.6013131226267179e-04  1.5943482868128106e-04  1.3897983438089195e-04  1.6619971288192299e-04  1.8710717258214603e-04  1.5854768752489708e-04  1.3756727335335450e-04  1.2939063330617888e-04  1.2187520789252106e-04  1.1494996020721391e-04  1.0997074756677517e-04  1.0840546517135549e-04  9.6687015769003376e-05  9.4200259066433602e-05  8.6084562392085644e-05  8.1562948259908966e-05  7.5742574976234438e-05  7.1124677877628262e-05  6.5857584263317336e-05  4.5258837778357605e-05  3.8339875263526777e-05  4.6460589298528343e-05  5.0619911824808229e-05  6.1689693083457730e-05  5.6628814643669580e-05  3.5768041915331619e-05  2.0756742043367574e-05  1.4031993936670122e-05  2.6781579911625098e-05  3.2491226991181207e-05  1.7710853082240094e-05  8.6678305952944138e-06  9.6618785515190317e-06  1.0573870237537065e-05  8.6349762035539186e-06  5.0760977629332682e-06  2.9921301129458801e-06  0.0000000000000000e+00  0.0000000000000000e+00  2.4093695790775276e-04  4.2264475820776666e-04  4.7497295010360424e-04  4.0005828944757443e-04  6.9428506924066268e-04  -2.3888340474849615e-04  1.3213451344964961e-04  -1.2635957864357711e-03  1.3105546903570187e-03  1.3855462772298498e-03  1.9356421756211662e-04  -6.2687299729707191e-05  -1.0404500009540303e-03  9.6171019066568146e-05  1.44596