<?xml version="1.0"?>
<VTKFile type="UnstructuredGrid"  version="0.1"  >
<UnstructuredGrid>
<Piece  NumberOfPoints="10201" NumberOfCells="20000">
<Points>
<DataArray  type="Float64"  NumberOfComponents="3"  format="ascii">0 0 0  0.01 0 0  0.02 0 0  0.03 0 0  0.04 0 0  0.05 0 0  0.06 0 0  0.07000000000000001 0 0  0.08 0 0  0.09 0 0  0.1 0 0  0.11 0 0  0.12 0 0  0.13 0 0  0.14 0 0  0.15 0 0  0.16 0 0  0.17 0 0  0.18 0 0  0.19 0 0  0.2 0 0  0.21 0 0  0.22 0 0  0.23 0 0  0.24 0 0  0.25 0 0  0.26 0 0  0.27 0 0  0.28 0 0  0.29 0 0  0.3 0 0  0.31 0 0  0.32 0 0  0.33 0 0  0.34 0 0  0.35 0 0  0.36 0 0  0.37 0 0  0.38 0 0  0.39 0 0  0.4 0 0  0.41 0 0  0.42 0 0  0.43 0 0  0.44 0 0  0.45 0 0  0.46 0 0  0.47 0 0  0.48 0 0  0.49 0 0  0.5 0 0  0.51 0 0  0.52 0 0  0.53 0 0  0.54 0 0  0.55 0 0  0.5600000000000001 0 0  0.57 0 0  0.58 0 0  0.59 0 0  0.6 0 0  0.61 0 0  0.62 0 0  0.63 0 0  0.64 0 0  0.65 0 0  0.66 0 0  0.67 0 0  0.68 0 0  0.6899999999999999 0 0  0.7 0 0  0.71 0 0  0.72 0 0  0.73 0 0  0.74 0 0  0.75 0 0  0.76 0 0  0.77 0 0  0.78 0 0  0.79 0 0  0.8 0 0  0.8100000000000001 0 0  0.82 0 0  0.83 0 0  0.84 0 0  0.85 0 0  0.86 0 0  0.87 0 0  0.88 0 0  0.89 0 0  0.9 0 0  0.91 0 0  0.92 0 0  0.93 0 0  0.9399999999999999 0 0  0.95 0 0  0.96 0 0  0.97 0 0  0.98 0 0  0.99 0 0  1 0 0  0 0.01 0  0.01 0.01 0  0.02 0.01 0  0.03 0.01 0  0.04 0.01 0  0.05 0.01 0  0.06 0.01 0  0.07000000000000001 0.01 0  0.08 0.01 0  0.09 0.01 0  0.1 0.01 0  0.11 0.01 0  0.12 0.01 0  0.13 0.01 0  0.14 0.01 0  0.15 0.01 0  0.16 0.01 0  0.17 0.01 0  0.18 0.01 0  0.19 0.01 0  0.2 0.01 0  0.21 0.01 0  0.22 0.01 0  0.23 0.01 0  0.24 0.01 0  0.25 0.01 0  0.26 0.01 0  0.27 0.01 0  0.28 0.01 0  0.29 0.01 0  0.3 0.01 0  0.31 0.01 0  0.32 0.01 0  0.33 0.01 0  0.34 0.01 0  0.35 0.01 0  0.36 0.01 0  0.37 0.01 0  0.38 0.01 0  0.39 0.01 0  0.4 0.01 0  0.41 0.01 0  0.42 0.01 0  0.43 0.01 0  0.44 0.01 0  0.45 0.01 0  0.46 0.01 0  0.47 0.01 0  0.48 0.01 0  0.49 0.01 0  0.5 0.01 0  0.51 0.01 0  0.52 0.01 0  0.53 0.01 0  0.54 0.01 0  0.55 0.01 0  0.5600000000000001 0.01 0  0.57 0.01 0  0.58 0.01 0  0.59 0.01 0  0.6 0.01 0  0.61 0.01 0  0.62 0.01 0  0.63 0.01 0  0.64 0.01 0  0.65 0.01 0  0.66 0.01 0  0.67 0.01 0  0.68 0.01 0  0.6899999999999999 0.01 0  0.7 0.01 0  0.71 0.01 0  0.72 0.01 0  0.73 0.01 0  0.74 0.01 0  0.75 0.01 0  0.76 0.01 0  0.77 0.01 0  0.78 0.01 0  0.79 0.01 0  0.8 0.01 0  0.8100000000000001 0.01 0  0.82 0.01 0  0.83 0.01 0  0.84 0.01 0  0.85 0.01 0  0.86 0.01 0  0.87 0.01 0  0.88 0.01 0  0.89 0.01 0  0.9 0.01 0  0.91 0.01 0  0.92 0.01 0  0.93 0.01 0  0.9399999999999999 0.01 0  0.95 0.01 0  0.96 0.01 0  0.97 0.01 0  0.98 0.01 0  0.99 0.01 0  1 0.01 0  0 0.02 0  0.01 0.02 0  0.02 0.02 0  0.03 0.02 0  0.04 0.02 0  0.05 0.02 0  0.06 0.02 0  0.07000000000000001 0.02 0  0.08 0.02 0  0.09 0.02 0  0.1 0.02 0  0.11 0.02 0  0.12 0.02 0  0.13 0.02 0  0.14 0.02 0  0.15 0.02 0  0.16 0.02 0  0.17 0.02 0  0.18 0.02 0  0.19 0.02 0  0.2 0.02 0  0.21 0.02 0  0.22 0.02 0  0.23 0.02 0  0.24 0.02 0  0.25 0.02 0  0.26 0.02 0  0.27 0.02 0  0.28 0.02 0  0.29 0.02 0  0.3 0.02 0  0.31 0.02 0  0.32 0.02 0  0.33 0.02 0  0.34 0.02 0  0.35 0.02 0  0.36 0.02 0  0.37 0.02 0  0.38 0.02 0  0.39 0.02 0  0.4 0.02 0  0.41 0.02 0  0.42 0.02 0  0.43 0.02 0  0.44 0.02 0  0.45 0.02 0  0.46 0.02 0  0.47 0.02 0  0.48 0.02 0  0.49 0.02 0  0.5 0.02 0  0.51 0.02 0  0.52 0.02 0  0.53 0.02 0  0.54 0.02 0  0.55 0.02 0  0.5600000000000001 0.02 0  0.57 0.02 0  0.58 0.02 0  0.59 0.02 0  0.6 0.02 0  0.61 0.02 0  0.62 0.02 0  0.63 0.02 0  0.64 0.02 0  0.65 0.02 0  0.66 0.02 0  0.67 0.02 0  0.68 0.02 0  0.6899999999999999 0.02 0  0.7 0.02 0  0.71 0.02 0  0.72 0.02 0  0.73 0.02 0  0.74 0.02 0  0.75 0.02 0  0.76 0.02 0  0.77 0.02 0  0.78 0.02 0  0.79 0.02 0  0.8 0.02 0  0.8100000000000001 0.02 0  0.82 0.02 0  0.83 0.02 0  0.84 0.02 0  0.85 0.02 0  0.86 0.02 0  0.87 0.02 0  0.88 0.02 0  0.89 0.02 0  0.9 0.02 0  0.91 0.02 0  0.92 0.02 0  0.93 0.02 0  0.9399999999999999 0.02 0  0.95 0.02 0  0.96 0.02 0  0.97 0.02 0  0.98 0.02 0  0.99 0.02 0  1 0.02 0  0 0.03 0  0.01 0.03 0  0.02 0.03 0  0.03 0.03 0  0.04 0.03 0  0.05 0.03 0  0.06 0.03 0  0.07000000000000001 0.03 0  0.08 0.03 0  0.09 0.03 0  0.1 0.03 0  0.11 0.03 0  0.12 0.03 0  0.13 0.03 0  0.14 0.03 0  0.15 0.03 0  0.16 0.03 0  0.17 0.03 0  0.18 0.03 0  0.19 0.03 0  0.2 0.03 0  0.21 0.03 0  0.22 0.03 0  0.23 0.03 0  0.24 0.03 0  0.25 0.03 0  0.26 0.03 0  0.27 0.03 0  0.28 0.03 0  0.29 0.03 0  0.3 0.03 0  0.31 0.03 0  0.32 0.03 0  0.33 0.03 0  0.34 0.03 0  0.35 0.03 0  0.36 0.03 0  0.37 0.03 0  0.38 0.03 0  0.39 0.03 0  0.4 0.03 0  0.41 0.03 0  0.42 0.03 0  0.43 0.03 0  0.44 0.03 0  0.45 0.03 0  0.46 0.03 0  0.47 0.03 0  0.48 0.03 0  0.49 0.03 0  0.5 0.03 0  0.51 0.03 0  0.52 0.03 0  0.53 0.03 0  0.54 0.03 0  0.55 0.03 0  0.5600000000000001 0.03 0  0.57 0.03 0  0.58 0.03 0  0.59 0.03 0  0.6 0.03 0  0.61 0.03 0  0.62 0.03 0  0.63 0.03 0  0.64 0.03 0  0.65 0.03 0  0.66 0.03 0  0.67 0.03 0  0.68 0.03 0  0.6899999999999999 0.03 0  0.7 0.03 0  0.71 0.03 0  0.72 0.03 0  0.73 0.03 0  0.74 0.03 0  0.75 0.03 0  0.76 0.03 0  0.77 0.03 0  0.78 0.03 0  0.79 0.03 0  0.8 0.03 0  0.8100000000000001 0.03 0  0.82 0.03 0  0.83 0.03 0  0.84 0.03 0  0.85 0.03 0  0.86 0.03 0  0.87 0.03 0  0.88 0.03 0  0.89 0.03 0  0.9 0.03 0  0.91 0.03 0  0.92 0.03 0  0.93 0.03 0  0.9399999999999999 0.03 0  0.95 0.03 0  0.96 0.03 0  0.97 0.03 0  0.98 0.03 0  0.99 0.03 0  1 0.03 0  0 0.04 0  0.01 0.04 0  0.02 0.04 0  0.03 0.04 0  0.04 0.04 0  0.05 0.04 0  0.06 0.04 0  0.07000000000000001 0.04 0  0.08 0.04 0  0.09 0.04 0  0.1 0.04 0  0.11 0.04 0  0.12 0.04 0  0.13 0.04 0  0.14 0.04 0  0.15 0.04 0  0.16 0.04 0  0.17 0.04 0  0.18 0.04 0  0.19 0.04 0  0.2 0.04 0  0.21 0.04 0  0.22 0.04 0  0.23 0.04 0  0.24 0.04 0  0.25 0.04 0  0.26 0.04 0  0.27 0.04 0  0.28 0.04 0  0.29 0.04 0  0.3 0.04 0  0.31 0.04 0  0.32 0.04 0  0.33 0.04 0  0.34 0.04 0  0.35 0.04 0  0.36 0.04 0  0.37 0.04 0  0.38 0.04 0  0.39 0.04 0  0.4 0.04 0  0.41 0.04 0  0.42 0.04 0  0.43 0.04 0  0.44 0.04 0  0.45 0.04 0  0.46 0.04 0  0.47 0.04 0  0.48 0.04 0  0.49 0.04 0  0.5 0.04 0  0.51 0.04 0  0.52 0.04 0  0.53 0.04 0  0.54 0.04 0  0.55 0.04 0  0.5600000000000001 0.04 0  0.57 0.04 0  0.58 0.04 0  0.59 0.04 0  0.6 0.04 0  0.61 0.04 0  0.62 0.04 0  0.63 0.04 0  0.64 0.04 0  0.65 0.04 0  0.66 0.04 0  0.67 0.04 0  0.68 0.04 0  0.6899999999999999 0.04 0  0.7 0.04 0  0.71 0.04 0  0.72 0.04 0  0.73 0.04 0  0.74 0.04 0  0.75 0.04 0  0.76 0.04 0  0.77 0.04 0  0.78 0.04 0  0.79 0.04 0  0.8 0.04 0  0.8100000000000001 0.04 0  0.82 0.04 0  0.83 0.04 0  0.84 0.04 0  0.85 0.04 0  0.86 0.04 0  0.87 0.04 0  0.88 0.04 0  0.89 0.04 0  0.9 0.04 0  0.91 0.04 0  0.92 0.04 0  0.93 0.04 0  0.9399999999999999 0.04 0  0.95 0.04 0  0.96 0.04 0  0.97 0.04 0  0.98 0.04 0  0.99 0.04 0  1 0.04 0  0 0.05 0  0.01 0.05 0  0.02 0.05 0  0.03 0.05 0  0.04 0.05 0  0.05 0.05 0  0.06 0.05 0  0.07000000000000001 0.05 0  0.08 0.05 0  0.09 0.05 0  0.1 0.05 0  0.11 0.05 0  0.12 0.05 0  0.13 0.05 0  0.14 0.05 0  0.15 0.05 0  0.16 0.05 0  0.17 0.05 0  0.18 0.05 0  0.19 0.05 0  0.2 0.05 0  0.21 0.05 0  0.22 0.05 0  0.23 0.05 0  0.24 0.05 0  0.25 0.05 0  0.26 0.05 0  0.27 0.05 0  0.28 0.05 0  0.29 0.05 0  0.3 0.05 0  0.31 0.05 0  0.32 0.05 0  0.33 0.05 0  0.34 0.05 0  0.35 0.05 0  0.36 0.05 0  0.37 0.05 0  0.38 0.05 0  0.39 0.05 0  0.4 0.05 0  0.41 0.05 0  0.42 0.05 0  0.43 0.05 0  0.44 0.05 0  0.45 0.05 0  0.46 0.05 0  0.47 0.05 0  0.48 0.05 0  0.49 0.05 0  0.5 0.05 0  0.51 0.05 0  0.52 0.05 0  0.53 0.05 0  0.54 0.05 0  0.55 0.05 0  0.5600000000000001 0.05 0  0.57 0.05 0  0.58 0.05 0  0.59 0.05 0  0.6 0.05 0  0.61 0.05 0  0.62 0.05 0  0.63 0.05 0  0.64 0.05 0  0.65 0.05 0  0.66 0.05 0  0.67 0.05 0  0.68 0.05 0  0.6899999999999999 0.05 0  0.7 0.05 0  0.71 0.05 0  0.72 0.05 0  0.73 0.05 0  0.74 0.05 0  0.75 0.05 0  0.76 0.05 0  0.77 0.05 0  0.78 0.05 0  0.79 0.05 0  0.8 0.05 0  0.8100000000000001 0.05 0  0.82 0.05 0  0.83 0.05 0  0.84 0.05 0  0.85 0.05 0  0.86 0.05 0  0.87 0.05 0  0.88 0.05 0  0.89 0.05 0  0.9 0.05 0  0.91 0.05 0  0.92 0.05 0  0.93 0.05 0  0.9399999999999999 0.05 0  0.95 0.05 0  0.96 0.05 0  0.97 0.05 0  0.98 0.05 0  0.99 0.05 0  1 0.05 0  0 0.06 0  0.01 0.06 0  0.02 0.06 0  0.03 0.06 0  0.04 0.06 0  0.05 0.06 0  0.06 0.06 0  0.07000000000000001 0.06 0  0.08 0.06 0  0.09 0.06 0  0.1 0.06 0  0.11 0.06 0  0.12 0.06 0  0.13 0.06 0  0.14 0.06 0  0.15 0.06 0  0.16 0.06 0  0.17 0.06 0  0.18 0.06 0  0.19 0.06 0  0.2 0.06 0  0.21 0.06 0  0.22 0.06 0  0.23 0.06 0  0.24 0.06 0  0.25 0.06 0  0.26 0.06 0  0.27 0.06 0  0.28 0.06 0  0.29 0.06 0  0.3 0.06 0  0.31 0.06 0  0.32 0.06 0  0.33 0.06 0  0.34 0.06 0  0.35 0.06 0  0.36 0.06 0  0.37 0.06 0  0.38 0.06 0  0.39 0.06 0  0.4 0.06 0  0.41 0.06 0  0.42 0.06 0  0.43 0.06 0  0.44 0.06 0  0.45 0.06 0  0.46 0.06 0  0.47 0.06 0  0.48 0.06 0  0.49 0.06 0  0.5 0.06 0  0.51 0.06 0  0.52 0.06 0  0.53 0.06 0  0.54 0.06 0  0.55 0.06 0  0.5600000000000001 0.06 0  0.57 0.06 0  0.58 0.06 0  0.59 0.06 0  0.6 0.06 0  0.61 0.06 0  0.62 0.06 0  0.63 0.06 0  0.64 0.06 0  0.65 0.06 0  0.66 0.06 0  0.67 0.06 0  0.68 0.06 0  0.6899999999999999 0.06 0  0.7 0.06 0  0.71 0.06 0  0.72 0.06 0  0.73 0.06 0  0.74 0.06 0  0.75 0.06 0  0.76 0.06 0  0.77 0.06 0  0.78 0.06 0  0.79 0.06 0  0.8 0.06 0  0.8100000000000001 0.06 0  0.82 0.06 0  0.83 0.06 0  0.84 0.06 0  0.85 0.06 0  0.86 0.06 0  0.87 0.06 0  0.88 0.06 0  0.89 0.06 0  0.9 0.06 0  0.91 0.06 0  0.92 0.06 0  0.93 0.06 0  0.9399999999999999 0.06 0  0.95 0.06 0  0.96 0.06 0  0.97 0.06 0  0.98 0.06 0  0.99 0.06 0  1 0.06 0  0 0.07000000000000001 0  0.01 0.07000000000000001 0  0.02 0.07000000000000001 0  0.03 0.07000000000000001 0  0.04 0.07000000000000001 0  0.05 0.07000000000000001 0  0.06 0.07000000000000001 0  0.07000000000000001 0.07000000000000001 0  0.08 0.07000000000000001 0  0.09 0.07000000000000001 0  0.1 0.07000000000000001 0  0.11 0.07000000000000001 0  0.12 0.07000000000000001 0  0.13 0.07000000000000001 0  0.14 0.07000000000000001 0  0.15 0.07000000000000001 0  0.16 0.07000000000000001 0  0.17 0.0700
[...]
<PointData  Scalars="u"> 
<DataArray  type="Float64"  Name="u"  format="ascii">0.0000000000000000e+00  0.0000000000000000e+00  0.0000000000000000e+00  0.0000000000000000e+00  0.0000000000000000e+00  0.0000000000000000e+00  0.0000000000000000e+00  0.0000000000000000e+00  0.0000000000000000e+00  0.0000000000000000e+00  0.0000000000000000e+00  0.0000000000000000e+00  0.0000000000000000e+00  0.0000000000000000e+00  0.0000000000000000e+00  0.0000000000000000e+00  0.0000000000000000e+00  0.0000000000000000e+00  0.0000000000000000e+00  0.0000000000000000e+00  0.0000000000000000e+00  0.0000000000000000e+00  0.0000000000000000e+00  0.0000000000000000e+00  0.0000000000000000e+00  0.0000000000000000e+00  0.0000000000000000e+00  0.0000000000000000e+00  0.0000000000000000e+00  0.0000000000000000e+00  0.0000000000000000e+00  0.0000000000000000e+00  0.0000000000000000e+00  0.0000000000000000e+00  0.0000000000000000e+00  0.0000000000000000e+00  0.0000000000000000e+00  0.0000000000000000e+00  0.0000000000000000e+00  0.0000000000000000e+00  0.0000000000000000e+00  0.0000000000000000e+00  0.0000000000000000e+00  0.0000000000000000e+00  0.0000000000000000e+00  0.0000000000000000e+00  0.0000000000000000e+00  0.0000000000000000e+00  0.0000000000000000e+00  0.0000000000000000e+00  0.0000000000000000e+00  0.0000000000000000e+00  0.0000000000000000e+00  0.0000000000000000e+00  0.0000000000000000e+00  0.0000000000000000e+00  0.0000000000000000e+00  0.0000000000000000e+00  0.0000000000000000e+00  0.0000000000000000e+00  0.0000000000000000e+00  0.0000000000000000e+00  0.0000000000000000e+00  0.0000000000000000e+00  0.0000000000000000e+00  0.0000000000000000e+00  0.0000000000000000e+00  0.0000000000000000e+00  0.0000000000000000e+00  0.0000000000000000e+00  0.0000000000000000e+00  0.0000000000000000e+00  0.0000000000000000e+00  0.0000000000000000e+00  0.0000000000000000e+00  0.0000000000000000e+00  0.0000000000000000e+00  0.0000000000000000e+00  0.0000000000000000e+00  0.0000000000000000e+00  0.0000000000000000e+00  0.0000000000000000e+00  0.0000000000000000e+00  0.0000000000000000e+00  0.0000000000000000e+00  0.0000000000000000e+00  0.0000000000000000e+00  0.0000000000000000e+00  0.0000000000000000e+00  0.0000000000000000e+00  0.0000000000000000e+00  0.0000000000000000e+00  0.0000000000000000e+00  0.0000000000000000e+00  0.0000000000000000e+00  0.0000000000000000e+00  0.0000000000000000e+00  0.0000000000000000e+00  0.0000000000000000e+00  0.0000000000000000e+00  0.0000000000000000e+00  0.0000000000000000e+00  4.2261126782619815e-07  8.5647721687249594e-07  1.3018656206126109e-06  1.7589387599831993e-06  2.2278329391827353e-06  2.7086596378741308e-06  3.2015019034681606e-06  3.7064103099246231e-06  4.2233985793346586e-06  4.7524388612828775e-06  5.2934566687906969e-06  5.8463254749585526e-06  6.4108609812975776e-06  6.9868150770085137e-06  7.5738695182408345e-06  8.1716293677259548e-06  8.7796162482376980e-06  9.3972614780057599e-06  1.0023899172629185e-05  1.0658759415858233e-05  1.1300961620862569e-05  1.1949508223716509e-05  1.2603278871502882e-05  1.3261025287915944e-05  1.3921367018819405e-05  1.4582788277798300e-05  1.5243636126299066e-05  1.5902120233030486e-05  1.6556314461597145e-05  1.7204160532189236e-05  1.7843473991141450e-05  1.8471952699807953e-05  1.9087188020297223e-05  1.9686678829173426e-05  2.0267848431043494e-05  2.0828064372009535e-05  2.1364661069493987e-05  2.1874965081578638e-05  2.2356322738688822e-05  2.2806129756816912e-05  2.3221862349001933e-05  2.3601109255787068e-05  2.3941604031247803e-05  2.4241256854773267e-05  2.4498185095170336e-05  2.4710741837469612e-05  2.4877541597243760e-05  2.4997482494002347e-05  2.5069764234117708e-05  2.5093901362530904e-05  2.5069731377081372e-05  2.4997417453682897e-05  2.4877445697449917e-05  2.4710617005946863e-05  2.4498033797534627e-05  2.4241082011949133e-05  2.3941408924613013e-05  2.3600897424655609e-05  2.3221637485207637e-05  2.2805895600966458e-05  2.2356082982216731e-05  2.1874723278078303e-05  2.1364420558015517e-05  2.0827828214131082e-05  2.0267619362694965e-05  1.9686459227340624e-05  1.9086979884075488e-05  1.8471757644679020e-05  1.7843293254910716e-05  1.7203994990786741e-05  1.6556164652753924e-05  1.5901986385890348e-05  1.5243518195052950e-05  1.4582685977623185e-05  1.3921279862618190e-05  1.3260952622577022e-05  1.2603219912658072e-05  1.1949462088231821e-05  1.1300927356496936e-05  1.0658736027773719e-05  1.0023885646555812e-05  9.3972568000575404e-06  8.7796194214618632e-06  8.1716394255628712e-06  7.5738855351234290e-06  6.9868361763899847e-06  6.4108863413780624e-06  5.8463543324339557e-06  5.2934883208939698e-06  4.7524726664073301e-06  4.2234339564944089e-06  3.7064467372773243e-06  3.2015389160708991e-06  2.7086968245675645e-06  2.2278699365849238e-06  1.7589752276501791e-06  1.3019010764220815e-06  8.5650980041219096e-07  4.2263072203773780e-07  0.0000000000000000e+00  0.0000000000000000e+00  8.5643412685921073e-07  1.7368328970951905e-06  2.6416262011088568e-06  3.5712434803122824e-06  4.5260557911816860e-06  5.5063815370882309e-06  6.5124843826440587e-06  7.5445650944718960e-06  8.6027522144624306e-06  9.6870919146752852e-06  1.0797537026187747e-05  1.1933935236054620e-05  1.3096016460341917e-05  1.4283379418345536e-05  1.5495477453890846e-05  1.6731603674355190e-05  1.7990875506925352e-05  1.9272218804938572e-05  2.0574351674820578e-05  2.1895768236236686e-05  2.3234722574054316e-05  2.4589213190155411e-05  2.5956968314959963e-05  2.7335432491413439e-05  2.8721754896452679e-05  3.0112779914123940e-05  3.1505040518127594e-05  3.2894755056035301e-05  3.4277828049345872e-05  3.5649855628841267e-05  3.7006136209153180e-05  3.8341686966132930e-05  3.9651266611699755e-05  4.0929404860327975e-05  4.2170438847480644e-05  4.3368556592530721e-05  4.4517847398863957e-05  4.5612358855593159e-05  4.6646159855109856e-05  4.7613408777550763e-05  4.8508425728409161e-05  4.9325767462653690e-05  5.0060303402336659e-05  5.0707290970457100e-05  5.1262448336084984e-05  5.1722022607552261e-05  5.2082851531331247e-05  5.2342416859665779e-05  5.2498887740392357e-05  5.2551152752580386e-05  5.2498839550867253e-05  5.2342321474148220e-05  5.2082710900638528e-05  5.1721839569345064e-05  5.1262226514182172e-05  5.0707034649422492e-05  5.0060017384001036e-05  4.9325456911863684e-05  4.8508096015443016e-05  4.7613065324229180e-05  4.6645807990894608e-05  4.5612003688806953e-05  4.4517493706912288e-05  4.3368208733564242e-05  4.2170100694615573e-05  4.0929079758292561e-05  3.9650957354710760e-05  3.8341395795006379e-05  3.7005864825048985e-05  3.5649605220717208e-05  3.4277599332065805e-05  3.2894548316140993e-05  3.1504855664467797e-05  3.0112616530853065e-05  2.8721612296264379e-05  2.7335309767275045e-05  2.5956864388979746e-05  2.4589126858643911e-05  2.3234652548089143e-05  2.1895713177418105e-05  2.0574310226085048e-05  1.9272189616516659e-05  1.7990857257665644e-05  1.6731595088748620e-05  1.5495477315182980e-05  1.4283386578173903e-05  1.3096029845344733e-05  1.1933953851881927e-05  1.0797559959339971e-05  9.6871183325519809e-06  8.6027813639757475e-06  7.5445962995354917e-06  6.5125170407659294e-06  5.5064151150285757e-06  4.5260898175834968e-06  3.5712775256130381e-06  2.6416600787681249e-06  1.7368712975572477e-06  8.5649498114651423e-07  0.0000000000000000e+00  0.0000000000000000e+00  1.3018283129860575e-06  2.6416398043042176e-06  4.0201951924626854e-06  5.4383027121039519e-06  6.8966550651243820e-06  8.3958920031363904e-06  9.9365736895662920e-06  1.1519170005224448e-05  1.3144046248946138e-05  1.4811446919583748e-05  1.6521477996092346e-05  1.8274087709801016e-05  2.0069045793721598e-05  2.1905921219112516e-05  2.3784058461937763e-05  2.5702552381307642e-05  2.7660221839291612e-05  2.9655582247089555e-05  3.1686817286858519e-05  3.3751750131721695e-05  3.5847814568257895e-05  3.7972026515552464e-05  4.0120956531193007e-05  4.2290703995631657e-05  4.4476873768909012e-05  4.6674556214475717e-05  4.8878311578447649e-05  5.1082159793551590e-05  5.3279576838274652e-05  5.5463498815417168e-05  5.7626334912409973e-05  5.9759990359309950e-05  6.1855900401879137e-05  6.3905076148567817e-05  6.5898162927094408e-05  6.7825511495460118e-05  6.9677262095001237e-05  7.1443440914989876e-05  7.3114068069949110e-05  7.4679275688244905e-05  7.6129434195393468e-05  7.7455284373520604e-05  7.8648072319831570e-05  7.9699684042324110e-05  8.0602776151977228e-05  8.1350898963932034e-05  8.1938608328086351e-05  8.2361562684631493e-05  8.2616602185525887e-05  8.2701807229505252e-05  8.2616534405508733e-05  8.2361428595885541e-05  8.1938410816450330e-05  8.1350642219697004e-05  8.0602465513000162e-05  7.9699325799409502e-05  7.8647673495276240e-05  7.7454852484682313e-05  7.6128977015172894e-05  7.4678801013656912e-05  7.3113583508445056e-05  7.1442953696379652e-05  6.9676778914441628e-05  6.7825038390830251e-05  6.5897705191738835e-05  6.3904638278561356e-05  6.1855486075285772e-05  5.9759602443750778e-05  5.7625975496491179e-05  5.5463169259167331e-05  5.3279277837672136e-05  5.1081891454551068e-05  4.8878073496197323e-05  4.6674347554150221e-05  4.4476693345077538e-05  4.2290550347829087e-05  4.0120827993931951e-05  3.7971921281597898e-05  3.5847730744526959e-05  3.3751685787486175e-05  3.1686770494392932e-05  2.9655551115031628e-05  2.7660204539254982e-05  2.5702547168351802e-05  2.3784063689591776e-05  2.1905935349645438e-05  2.0069067404380960e-05  1.8274115495661298e-05  1.6521510770150110e-05  1.4811483610649737e-05  1.3144085897831313e-05  1.1519211759654795e-05  9.9366167981934081e-06  8.3959358093397180e-06  6.8966990290067620e-06  5.4383469371514084e-06  4.0202435285289022e-06  2.6416869687001640e-06  1.3019090139276131e-06  0.0000000000000000e+00  0.0000000000000000e+00  1.7589089728872623e-06  3.5712429316739627e-06  5.4383283336185147e-06  7.3613181483066551e-06  9.3414328889550736e-06  1.1379746827828643e-05  1.3477251535298868e-05  1.5634827350793249e-05  1.7853222359883341e-05  2.0133029793701176e-05  2.2474662808423542e-05  2.4878326823599025e-05  2.7343989394019325e-05  2.9871347582628511e-05  3.2459792843134782e-05  3.5108373475635743e-05  3.7815754785726958e-05  4.0580177158597723e-05  4.3399412355579806e-05  4.6270718452128467e-05  4.9190793963816081e-05  5.2155731849835777e-05  5.5160974240736933e-05  5.8201268905937665e-05  6.1270628653236795e-05  6.4362295031542699e-05  6.7468707882003081e-05  7.0581482442457763e-05  7.3691395844041664e-05  7.6788384934266344e-05  7.9861557402726298e-05  8.2899218158121756e-05  8.5888912793831922e-05  8.8817489767450066e-05  9.1671182597164748e-05  9.4435712935611168e-05  9.7096414818525931e-05  9.9638379706416534e-05  1.0204662115833987e-04  1.0430625712222567e-04  1.0640270693145242e-04  1.0832189920869798e-04  1.1005048604687086e-04  1.1157605812168614e-04  1.1288735484830183e-04  1.1397446337865389e-04  1.1482900018990684e-04  1.1544426926550550e-04  1.1581539142760778e-04  1.1593940023014375e-04  1.1581530092950121e-04  1.1544409035868954e-04  1.1482873696756162e-04  1.1397412177198413e-04  1.1288694239106368e-04  1.1157558365944863e-04  1.1004995940825380e-04  1.0832133085710034e-04  1.0640210761564585e-04  1.0430563754278848e-04  1.0204599166432808e-04  9.9637750033417923e-05  9.7095793875613256e-05  9.4435108644968686e-05  9.1670601786954885e-05  8.8816938115336523e-05  8.5888394816428101e-05  8.2898737240038188e-05  7.9861115857866337e-05  7.6787984091777016e-05  7.3691036151445630e-05  7.0581163579202356e-05  6.7468428877250010e-05  6.4362054381300425e-05  6.1270424432778787e-05  5.8201098874495384e-05  5.5160835936475701e-05  5.2155622673869793e-05  4.9190711252738314e-05  4.6270659539092417e-05  4.3399374620378835e-05  4.0580158067497616e-05  3.7815751921988035e-05  3.5108384561793193e-05  3.2459815756122214e-05  2.9871380362831911e-05  2.7344030249281915e-05  2.4878374129132410e-05  2.2474715103477121e-05  2.0133085775751985e-05  1.7853280877000823e-05  1.5634887392804397e-05  1.3477312226601256e-05  1.1379807467540606e-05  9.3414933535781773e-06  7.3613790175925605e-06  5.4383809558100955e-06  3.5713379508070808e-06  1.7590121803776229e-06  0.0000000000000000e+00  0.0000000000000000e+00  2.2278099653657235e-06  4.5260694586629199e-06  6.8966769511622681e-06  9.3414588531049812e-06  1.1862154219590055e-05  1.4460472963074077e-05  1.7137994498110062e-05  1.9896173993511707e-05  2.2736316029513997e-05  2.5659543296769609e-05  2.8666763169643708e-05  3.1758630710317669e-05  3.4935507948732497e-05  3.8197419349730546e-05  4.1544003401662734e-05  4.4974460325513276e-05  4.8487495990450695e-05  5.2081262229723069e-05  5.5753293882227520e-05  5.9500443041763544e-05  6.3318811179304072e-05  6.7203680014189449e-05  7.1149442247113882e-05  7.5149533528834348e-05  7.9196367319273460e-05  8.3281274584838487e-05  8.7394450577707154e-05  9.1524911225777749e-05  9.5660461918996030e-05  9.9787681686618325e-05  1.0389192589599503e-04  1.0795735064239687e-04  1.1196696190696629e-04  1.1590269232353074e-04  1.1974550796677118e-04  1.2347554696335797e-04  1.2707229089895064e-04  1.3051476896852289e-04  1.3378179360125608e-04  1.3685222492808633e-04  1.3970525999846615e-04  1.4232074116914847e-04  1.4467947666965615e-04  1.4676356509443691e-04  1.4855671458375246e-04  1.5004454683054677e-04  1.5121487586987480e-04  1.5205795192778723e-04  1.5256666144770190e-04  1.5273667576054450e-04  1.5256654265997997e-04  1.5205771729127958e-04  1.5121453113390432e-04  1.5004410030649738e-04  1.4855617679361769e-04  1.4676294833917893e-04  1.4467879454463359e-04  1.4232000805524116e-04  1.3970449055732728e-04  1.3685143362703056e-04  1.3378099428885254e-04  1.3051397451644734e-04  1.2707151291977697e-04  1.2347479560837366e-04  1.1974479180260789e-04  1.1590201828186703e-04  1.1196633529906083e-04  1.0795677522730144e-04  1.0389140399132481e-04  9.9787214309048804e-05  9.5660048945230873e-05  9.1524551562044843e-05  8.7394142331181560e-05  8.3281015229407624e-05  7.9196153850837457e-05  7.5149362606601343e-05  7.1149310318790933e-05  6.7203583424050106e-05  6.3318746259033375e-05  5.9500406184762314e-05  5.5753281602437115e-05  5.2081271206458737e-05  4.8487523100845597e-05  4.4974502666268134e-05  4.1544058301763673e-05  3.8197484375718002e-05  3.4935580903953917e-05  3.1758709629499243e-05  2.8666846309890999e-05  2.5659629126006373e-05  2.2736403213370394e-05  1.9896261385366301e-05  1.7138081169989317e-05  1.4460558319910204e-05  1.1862236979312819e-05  9.3415366833620604e-06  6.8967761845943077e-06  4.5261926529318692e-06  2.2279438732217639e-06  0.0000000000000000e+00  0.0000000000000000e+00  2.7086446251488688e-06  5.5064074622921439e-06  8.3959196009412301e-06  1.1379790986111253e-05  1.4460497156763279e-05  1.7640523970132030e-05  2.0922224899453577e-05  2.4307829802585507e-05  2.7799404208160320e-05  3.1398815853461456e-05  3.5107691920621643e-05  3.8927371767644103e-05  4.2858854531485363e-05  4.6902741223001182e-05  5.1059171114695398e-05  5.5327752294063206e-05  5.9707486356013063e-05  6.4196687341435863e-05  6.8792895197167061e-05  7.3492784239150813e-05  7.8292067348780743e-05  8.3185396924937428e-05  8.8166263951912054e-05  9.3226896925113382e-05  9.8358162798119274e-05  1.0354947256836222e-04  1.0878869459212545e-04  1.1406207919444845e-04  1.1935419859398328e-04  1.2464790656086509e-04  1.2992432254121602e-04  1.3516284516015286e-04  1.4034120002064357e-04  1.4543552648667123e-04  1.5042050766427603e-04  1.5526954696620617e-04  1.5995499353204911e-04  1.6444841727840457e-04  1.6872093254676978e-04  1.7274356722326160e-04  1.7648767191095558e-04  1.7992536133904039e-04  1.8302997786323795e-04  1.8577656478049710e-04  1.8814233545147302e-04  1.9010712304778609e-04  1.9165379527457511e-04  1.9276861877154638e-04  1.9344155911083725e-04  1.9366650437355499e-04  1.9344140311176509e-04  1.9276831092522088e-04  1.9165334369008346e-04  1.9010653941659537e-04  1.8814163451900498e-04  1.8577576370140792e-04  1.8302909548307609e-04  1.7992441744735054e-04  1.7648668651051806e-04  1.7274255985356832e-04  1.6871992169164172e-04  1.6444741988042643e-04  1.5995402462402606e-04  1.5526861942506963e-04  1.5041963208032685e-04  1.4543471113799634e-04  1.4034045093774995e-04  1.3516216626338989e-04  1.2992371582876998e-04  1.2464737233633573e-04  1.1935373571021087e-04  1.1406168530436069e-04  1.0878836639407195e-04  1.0354920603748229e-04  9.8357953397003022e-05  9.3226739791134417e-05  8.8166154058659827e-05  8.3185329217704920e-05  7.8292036854963473e-05  7.3492786155231036e-05  6.8792924954534976e-05  6.4196740653551965e-05  5.9707559249557982e-05  5.5327841126623187e-05  5.1059272581453713e-05  4.6902852354636950e-05  4.2858972685283442e-05  3.8927494613531259e-05  3.5107817423619902e-05  3.1398942254136634e-05  2.7799530005995790e-05  2.4307953756671421e-05  2.0922345945375750e-05  1.7640640631332058e-05  1.4460611146688160e-05  1.1379903447539403e-05  8.3960652424131707e-06  5.5065692381502377e-06  2.7088156412577332e-06  0.0000000000000000e+00  0.0000000000000000e+00  3.2014954554096064e-06  6.5125231760695720e-06  9.9366204968006025e-06  1.3477295502994017e-05  1.7138050776035934e-05  2.0922250308384619e-05  2.4833284288142239e-05  2.8874368223944800e-05  3.3048573827232312e-05  3.7358770178690155e-05  4.1807574579500957e-05  4.6397294918091667e-05  5.1129864635487148e-05  5.6006770168890989e-05  6.1028970366779001e-05  6.6196807517789793e-05  7.1509909758405202e-05  7.6967084777180498e-05  8.2566204934754085e-05  8.8304084175775359e-05  9.4176347427642131e-05  1.0017729356769068e-04  1.0629975349954328e-04  1.1253494541300282e-04  1.1887232990734454e-04  1.2529946832974572e-04  1.3180188840360363e-04  1.3836296197460815e-04  1.4496380045607692e-04  1.5158317426525341e-04  1.5819746314897141e-04  1.6478064475585895e-04  1.7130432904797723e-04  1.7773784597961584e-04  1.8404839349380446e-04  1.9020125180783739e-04  1.9616006855694082e-04  2.0188721725737798e-04  2.0734422899014102e-04  2.1249229402769263e-04  2.1729282665448969e-04  2.2170808266899970e-04  2.2570181524259823e-04  2.2923995134873981e-04  2.3229126795240134e-04  2.3482804503984679e-04  2.3682667152993080e-04  2.3826818037586206e-04  2.3913869088510283e-04  2.3942973935508674e-04  2.3913848350602204e-04  2.3826777156336671e-04  2.3682607287583223e-04  2.3482727320719467e-04  2.3229034386811111e-04  2.2923889922757661e-04  2.2570066150457210e-04  2.2170685483105212e-04  2.1729155226256507e-04  2.1249099968467041e-04  2.0734293952948962e-04  2.0188595507945146e-04  1.9615885315904378e-04  1.9020009949548465e-04  1.8404731725908707e-04  1.7773685554027128e-04  1.7130343100318026e-04  1.6477984284032749e-04  1.5819675854471875e-04  1.5158256596584362e-04  1.4496328562772109e-04  1.3836253632710613e-04  1.3180154653893444e-04  1.2529920405973842e-04  1.1887213653717115e-04  1.1253481598553954e-04  1.0629968099966589e-04  1.0017727108814083e-04  9.4176368299030624e-05  8.8304142064119190e-05  8.2566293910680118e-05  7.6967199360831822e-05  7.1510044944159056e-05  6.6196958782584536e-05  6.1029133665509008e-05  5.6006941919919319e-05  5.1130041698937787e-05  4.6397474569134529e-05  4.1807754478875190e-05  3.7358948344076374e-05  3.3048748601163656e-05  2.8874538156399677e-05  2.4833448212065120e-05  2.0922409478336601e-05  1.7138197286398993e-05  1.3477471081485174e-05  9.9368084955791447e-06  6.5127321191486827e-06  3.2017112189175853e-06  0.0000000000000000e+00  0.0000000000000000e+00  3.7064131551141040e-06  7.5446183490296242e-06  1.1519233678822180e-05  1.5634890798531367e-05  1.9896238618380321e-05  2.4307889779256469e-05  2.8874396797206693e-05  3.3600276301954342e-05  3.8489879723146533e-05  4.3547380223380350e-05  4.8776708249769178e-05  5.4181482570779765e-05  5.9764932707634589e-05  6.5529810841918608e-05  7.1478292798376022e-05  7.7611867416819063e-05  8.3931213723206742e-05  9.0436065481260252e-05  9.7125062931325030e-05  1.0399559182320893e-04  1.1104361023757140e-04  1