<?xml version="1.0"?>
<VTKFile type="UnstructuredGrid"  version="0.1"  >
<UnstructuredGrid>
<Piece  NumberOfPoints="10201" NumberOfCells="20000">
<Points>
<DataArray  type="Float64"  NumberOfComponents="3"  format="ascii">0 0 0  0.01 0 0  0.02 0 0  0.03 0 0  0.04 0 0  0.05 0 0  0.06 0 0  0.07000000000000001 0 0  0.08 0 0  0.09 0 0  0.1 0 0  0.11 0 0  0.12 0 0  0.13 0 0  0.14 0 0  0.15 0 0  0.16 0 0  0.17 0 0  0.18 0 0  0.19 0 0  0.2 0 0  0.21 0 0  0.22 0 0  0.23 0 0  0.24 0 0  0.25 0 0  0.26 0 0  0.27 0 0  0.28 0 0  0.29 0 0  0.3 0 0  0.31 0 0  0.32 0 0  0.33 0 0  0.34 0 0  0.35 0 0  0.36 0 0  0.37 0 0  0.38 0 0  0.39 0 0  0.4 0 0  0.41 0 0  0.42 0 0  0.43 0 0  0.44 0 0  0.45 0 0  0.46 0 0  0.47 0 0  0.48 0 0  0.49 0 0  0.5 0 0  0.51 0 0  0.52 0 0  0.53 0 0  0.54 0 0  0.55 0 0  0.5600000000000001 0 0  0.57 0 0  0.58 0 0  0.59 0 0  0.6 0 0  0.61 0 0  0.62 0 0  0.63 0 0  0.64 0 0  0.65 0 0  0.66 0 0  0.67 0 0  0.68 0 0  0.6899999999999999 0 0  0.7 0 0  0.71 0 0  0.72 0 0  0.73 0 0  0.74 0 0  0.75 0 0  0.76 0 0  0.77 0 0  0.78 0 0  0.79 0 0  0.8 0 0  0.8100000000000001 0 0  0.82 0 0  0.83 0 0  0.84 0 0  0.85 0 0  0.86 0 0  0.87 0 0  0.88 0 0  0.89 0 0  0.9 0 0  0.91 0 0  0.92 0 0  0.93 0 0  0.9399999999999999 0 0  0.95 0 0  0.96 0 0  0.97 0 0  0.98 0 0  0.99 0 0  1 0 0  0 0.01 0  0.01 0.01 0  0.02 0.01 0  0.03 0.01 0  0.04 0.01 0  0.05 0.01 0  0.06 0.01 0  0.07000000000000001 0.01 0  0.08 0.01 0  0.09 0.01 0  0.1 0.01 0  0.11 0.01 0  0.12 0.01 0  0.13 0.01 0  0.14 0.01 0  0.15 0.01 0  0.16 0.01 0  0.17 0.01 0  0.18 0.01 0  0.19 0.01 0  0.2 0.01 0  0.21 0.01 0  0.22 0.01 0  0.23 0.01 0  0.24 0.01 0  0.25 0.01 0  0.26 0.01 0  0.27 0.01 0  0.28 0.01 0  0.29 0.01 0  0.3 0.01 0  0.31 0.01 0  0.32 0.01 0  0.33 0.01 0  0.34 0.01 0  0.35 0.01 0  0.36 0.01 0  0.37 0.01 0  0.38 0.01 0  0.39 0.01 0  0.4 0.01 0  0.41 0.01 0  0.42 0.01 0  0.43 0.01 0  0.44 0.01 0  0.45 0.01 0  0.46 0.01 0  0.47 0.01 0  0.48 0.01 0  0.49 0.01 0  0.5 0.01 0  0.51 0.01 0  0.52 0.01 0  0.53 0.01 0  0.54 0.01 0  0.55 0.01 0  0.5600000000000001 0.01 0  0.57 0.01 0  0.58 0.01 0  0.59 0.01 0  0.6 0.01 0  0.61 0.01 0  0.62 0.01 0  0.63 0.01 0  0.64 0.01 0  0.65 0.01 0  0.66 0.01 0  0.67 0.01 0  0.68 0.01 0  0.6899999999999999 0.01 0  0.7 0.01 0  0.71 0.01 0  0.72 0.01 0  0.73 0.01 0  0.74 0.01 0  0.75 0.01 0  0.76 0.01 0  0.77 0.01 0  0.78 0.01 0  0.79 0.01 0  0.8 0.01 0  0.8100000000000001 0.01 0  0.82 0.01 0  0.83 0.01 0  0.84 0.01 0  0.85 0.01 0  0.86 0.01 0  0.87 0.01 0  0.88 0.01 0  0.89 0.01 0  0.9 0.01 0  0.91 0.01 0  0.92 0.01 0  0.93 0.01 0  0.9399999999999999 0.01 0  0.95 0.01 0  0.96 0.01 0  0.97 0.01 0  0.98 0.01 0  0.99 0.01 0  1 0.01 0  0 0.02 0  0.01 0.02 0  0.02 0.02 0  0.03 0.02 0  0.04 0.02 0  0.05 0.02 0  0.06 0.02 0  0.07000000000000001 0.02 0  0.08 0.02 0  0.09 0.02 0  0.1 0.02 0  0.11 0.02 0  0.12 0.02 0  0.13 0.02 0  0.14 0.02 0  0.15 0.02 0  0.16 0.02 0  0.17 0.02 0  0.18 0.02 0  0.19 0.02 0  0.2 0.02 0  0.21 0.02 0  0.22 0.02 0  0.23 0.02 0  0.24 0.02 0  0.25 0.02 0  0.26 0.02 0  0.27 0.02 0  0.28 0.02 0  0.29 0.02 0  0.3 0.02 0  0.31 0.02 0  0.32 0.02 0  0.33 0.02 0  0.34 0.02 0  0.35 0.02 0  0.36 0.02 0  0.37 0.02 0  0.38 0.02 0  0.39 0.02 0  0.4 0.02 0  0.41 0.02 0  0.42 0.02 0  0.43 0.02 0  0.44 0.02 0  0.45 0.02 0  0.46 0.02 0  0.47 0.02 0  0.48 0.02 0  0.49 0.02 0  0.5 0.02 0  0.51 0.02 0  0.52 0.02 0  0.53 0.02 0  0.54 0.02 0  0.55 0.02 0  0.5600000000000001 0.02 0  0.57 0.02 0  0.58 0.02 0  0.59 0.02 0  0.6 0.02 0  0.61 0.02 0  0.62 0.02 0  0.63 0.02 0  0.64 0.02 0  0.65 0.02 0  0.66 0.02 0  0.67 0.02 0  0.68 0.02 0  0.6899999999999999 0.02 0  0.7 0.02 0  0.71 0.02 0  0.72 0.02 0  0.73 0.02 0  0.74 0.02 0  0.75 0.02 0  0.76 0.02 0  0.77 0.02 0  0.78 0.02 0  0.79 0.02 0  0.8 0.02 0  0.8100000000000001 0.02 0  0.82 0.02 0  0.83 0.02 0  0.84 0.02 0  0.85 0.02 0  0.86 0.02 0  0.87 0.02 0  0.88 0.02 0  0.89 0.02 0  0.9 0.02 0  0.91 0.02 0  0.92 0.02 0  0.93 0.02 0  0.9399999999999999 0.02 0  0.95 0.02 0  0.96 0.02 0  0.97 0.02 0  0.98 0.02 0  0.99 0.02 0  1 0.02 0  0 0.03 0  0.01 0.03 0  0.02 0.03 0  0.03 0.03 0  0.04 0.03 0  0.05 0.03 0  0.06 0.03 0  0.07000000000000001 0.03 0  0.08 0.03 0  0.09 0.03 0  0.1 0.03 0  0.11 0.03 0  0.12 0.03 0  0.13 0.03 0  0.14 0.03 0  0.15 0.03 0  0.16 0.03 0  0.17 0.03 0  0.18 0.03 0  0.19 0.03 0  0.2 0.03 0  0.21 0.03 0  0.22 0.03 0  0.23 0.03 0  0.24 0.03 0  0.25 0.03 0  0.26 0.03 0  0.27 0.03 0  0.28 0.03 0  0.29 0.03 0  0.3 0.03 0  0.31 0.03 0  0.32 0.03 0  0.33 0.03 0  0.34 0.03 0  0.35 0.03 0  0.36 0.03 0  0.37 0.03 0  0.38 0.03 0  0.39 0.03 0  0.4 0.03 0  0.41 0.03 0  0.42 0.03 0  0.43 0.03 0  0.44 0.03 0  0.45 0.03 0  0.46 0.03 0  0.47 0.03 0  0.48 0.03 0  0.49 0.03 0  0.5 0.03 0  0.51 0.03 0  0.52 0.03 0  0.53 0.03 0  0.54 0.03 0  0.55 0.03 0  0.5600000000000001 0.03 0  0.57 0.03 0  0.58 0.03 0  0.59 0.03 0  0.6 0.03 0  0.61 0.03 0  0.62 0.03 0  0.63 0.03 0  0.64 0.03 0  0.65 0.03 0  0.66 0.03 0  0.67 0.03 0  0.68 0.03 0  0.6899999999999999 0.03 0  0.7 0.03 0  0.71 0.03 0  0.72 0.03 0  0.73 0.03 0  0.74 0.03 0  0.75 0.03 0  0.76 0.03 0  0.77 0.03 0  0.78 0.03 0  0.79 0.03 0  0.8 0.03 0  0.8100000000000001 0.03 0  0.82 0.03 0  0.83 0.03 0  0.84 0.03 0  0.85 0.03 0  0.86 0.03 0  0.87 0.03 0  0.88 0.03 0  0.89 0.03 0  0.9 0.03 0  0.91 0.03 0  0.92 0.03 0  0.93 0.03 0  0.9399999999999999 0.03 0  0.95 0.03 0  0.96 0.03 0  0.97 0.03 0  0.98 0.03 0  0.99 0.03 0  1 0.03 0  0 0.04 0  0.01 0.04 0  0.02 0.04 0  0.03 0.04 0  0.04 0.04 0  0.05 0.04 0  0.06 0.04 0  0.07000000000000001 0.04 0  0.08 0.04 0  0.09 0.04 0  0.1 0.04 0  0.11 0.04 0  0.12 0.04 0  0.13 0.04 0  0.14 0.04 0  0.15 0.04 0  0.16 0.04 0  0.17 0.04 0  0.18 0.04 0  0.19 0.04 0  0.2 0.04 0  0.21 0.04 0  0.22 0.04 0  0.23 0.04 0  0.24 0.04 0  0.25 0.04 0  0.26 0.04 0  0.27 0.04 0  0.28 0.04 0  0.29 0.04 0  0.3 0.04 0  0.31 0.04 0  0.32 0.04 0  0.33 0.04 0  0.34 0.04 0  0.35 0.04 0  0.36 0.04 0  0.37 0.04 0  0.38 0.04 0  0.39 0.04 0  0.4 0.04 0  0.41 0.04 0  0.42 0.04 0  0.43 0.04 0  0.44 0.04 0  0.45 0.04 0  0.46 0.04 0  0.47 0.04 0  0.48 0.04 0  0.49 0.04 0  0.5 0.04 0  0.51 0.04 0  0.52 0.04 0  0.53 0.04 0  0.54 0.04 0  0.55 0.04 0  0.5600000000000001 0.04 0  0.57 0.04 0  0.58 0.04 0  0.59 0.04 0  0.6 0.04 0  0.61 0.04 0  0.62 0.04 0  0.63 0.04 0  0.64 0.04 0  0.65 0.04 0  0.66 0.04 0  0.67 0.04 0  0.68 0.04 0  0.6899999999999999 0.04 0  0.7 0.04 0  0.71 0.04 0  0.72 0.04 0  0.73 0.04 0  0.74 0.04 0  0.75 0.04 0  0.76 0.04 0  0.77 0.04 0  0.78 0.04 0  0.79 0.04 0  0.8 0.04 0  0.8100000000000001 0.04 0  0.82 0.04 0  0.83 0.04 0  0.84 0.04 0  0.85 0.04 0  0.86 0.04 0  0.87 0.04 0  0.88 0.04 0  0.89 0.04 0  0.9 0.04 0  0.91 0.04 0  0.92 0.04 0  0.93 0.04 0  0.9399999999999999 0.04 0  0.95 0.04 0  0.96 0.04 0  0.97 0.04 0  0.98 0.04 0  0.99 0.04 0  1 0.04 0  0 0.05 0  0.01 0.05 0  0.02 0.05 0  0.03 0.05 0  0.04 0.05 0  0.05 0.05 0  0.06 0.05 0  0.07000000000000001 0.05 0  0.08 0.05 0  0.09 0.05 0  0.1 0.05 0  0.11 0.05 0  0.12 0.05 0  0.13 0.05 0  0.14 0.05 0  0.15 0.05 0  0.16 0.05 0  0.17 0.05 0  0.18 0.05 0  0.19 0.05 0  0.2 0.05 0  0.21 0.05 0  0.22 0.05 0  0.23 0.05 0  0.24 0.05 0  0.25 0.05 0  0.26 0.05 0  0.27 0.05 0  0.28 0.05 0  0.29 0.05 0  0.3 0.05 0  0.31 0.05 0  0.32 0.05 0  0.33 0.05 0  0.34 0.05 0  0.35 0.05 0  0.36 0.05 0  0.37 0.05 0  0.38 0.05 0  0.39 0.05 0  0.4 0.05 0  0.41 0.05 0  0.42 0.05 0  0.43 0.05 0  0.44 0.05 0  0.45 0.05 0  0.46 0.05 0  0.47 0.05 0  0.48 0.05 0  0.49 0.05 0  0.5 0.05 0  0.51 0.05 0  0.52 0.05 0  0.53 0.05 0  0.54 0.05 0  0.55 0.05 0  0.5600000000000001 0.05 0  0.57 0.05 0  0.58 0.05 0  0.59 0.05 0  0.6 0.05 0  0.61 0.05 0  0.62 0.05 0  0.63 0.05 0  0.64 0.05 0  0.65 0.05 0  0.66 0.05 0  0.67 0.05 0  0.68 0.05 0  0.6899999999999999 0.05 0  0.7 0.05 0  0.71 0.05 0  0.72 0.05 0  0.73 0.05 0  0.74 0.05 0  0.75 0.05 0  0.76 0.05 0  0.77 0.05 0  0.78 0.05 0  0.79 0.05 0  0.8 0.05 0  0.8100000000000001 0.05 0  0.82 0.05 0  0.83 0.05 0  0.84 0.05 0  0.85 0.05 0  0.86 0.05 0  0.87 0.05 0  0.88 0.05 0  0.89 0.05 0  0.9 0.05 0  0.91 0.05 0  0.92 0.05 0  0.93 0.05 0  0.9399999999999999 0.05 0  0.95 0.05 0  0.96 0.05 0  0.97 0.05 0  0.98 0.05 0  0.99 0.05 0  1 0.05 0  0 0.06 0  0.01 0.06 0  0.02 0.06 0  0.03 0.06 0  0.04 0.06 0  0.05 0.06 0  0.06 0.06 0  0.07000000000000001 0.06 0  0.08 0.06 0  0.09 0.06 0  0.1 0.06 0  0.11 0.06 0  0.12 0.06 0  0.13 0.06 0  0.14 0.06 0  0.15 0.06 0  0.16 0.06 0  0.17 0.06 0  0.18 0.06 0  0.19 0.06 0  0.2 0.06 0  0.21 0.06 0  0.22 0.06 0  0.23 0.06 0  0.24 0.06 0  0.25 0.06 0  0.26 0.06 0  0.27 0.06 0  0.28 0.06 0  0.29 0.06 0  0.3 0.06 0  0.31 0.06 0  0.32 0.06 0  0.33 0.06 0  0.34 0.06 0  0.35 0.06 0  0.36 0.06 0  0.37 0.06 0  0.38 0.06 0  0.39 0.06 0  0.4 0.06 0  0.41 0.06 0  0.42 0.06 0  0.43 0.06 0  0.44 0.06 0  0.45 0.06 0  0.46 0.06 0  0.47 0.06 0  0.48 0.06 0  0.49 0.06 0  0.5 0.06 0  0.51 0.06 0  0.52 0.06 0  0.53 0.06 0  0.54 0.06 0  0.55 0.06 0  0.5600000000000001 0.06 0  0.57 0.06 0  0.58 0.06 0  0.59 0.06 0  0.6 0.06 0  0.61 0.06 0  0.62 0.06 0  0.63 0.06 0  0.64 0.06 0  0.65 0.06 0  0.66 0.06 0  0.67 0.06 0  0.68 0.06 0  0.6899999999999999 0.06 0  0.7 0.06 0  0.71 0.06 0  0.72 0.06 0  0.73 0.06 0  0.74 0.06 0  0.75 0.06 0  0.76 0.06 0  0.77 0.06 0  0.78 0.06 0  0.79 0.06 0  0.8 0.06 0  0.8100000000000001 0.06 0  0.82 0.06 0  0.83 0.06 0  0.84 0.06 0  0.85 0.06 0  0.86 0.06 0  0.87 0.06 0  0.88 0.06 0  0.89 0.06 0  0.9 0.06 0  0.91 0.06 0  0.92 0.06 0  0.93 0.06 0  0.9399999999999999 0.06 0  0.95 0.06 0  0.96 0.06 0  0.97 0.06 0  0.98 0.06 0  0.99 0.06 0  1 0.06 0  0 0.07000000000000001 0  0.01 0.07000000000000001 0  0.02 0.07000000000000001 0  0.03 0.07000000000000001 0  0.04 0.07000000000000001 0  0.05 0.07000000000000001 0  0.06 0.07000000000000001 0  0.07000000000000001 0.07000000000000001 0  0.08 0.07000000000000001 0  0.09 0.07000000000000001 0  0.1 0.07000000000000001 0  0.11 0.07000000000000001 0  0.12 0.07000000000000001 0  0.13 0.07000000000000001 0  0.14 0.07000000000000001 0  0.15 0.07000000000000001 0  0.16 0.07000000000000001 0  0.17 0.0700
[...]
<PointData  Scalars="Indicator Function"> 
<DataArray  type="Float64"  Name="Indicator Function"  format="ascii">-1.8055593228630336e-35  -5.0506812021249337e-20  -1.6519912047170324e-20  -2.7072549345197195e-20  3.1615851191717315e-19  -2.9403559627281458e-20  -2.4017713142688040e-20  6.6556489235755047e-19  8.1086551038616343e-19  -2.4691972827904842e-21  3.9137453535199533e-18  8.2852092705070237e-19  -2.8543447514707563e-20  -3.1607487422805023e-20  8.0966586962598515e-18  -7.9053309152894754e-21  2.4600745774008833e-34  1.9098635005956773e-18  -3.4115014096973207e-20  3.0092655381050560e-36  7.1115731773952001e-18  0.0000000000000000e+00  -3.5176697376145464e-20  9.3312482177612301e-18  -4.0548446674493292e-20  -2.3088988762671925e-20  -1.7529878534497056e-20  -4.1154661335707361e-20  4.0668584714256694e-17  -1.6327544003564550e-20  -6.9219333853964126e-20  -2.5539586458703020e-20  -4.3171943184680621e-20  -2.8974155504360985e-20  1.5361187350117864e-18  -7.2136782602571658e-20  -1.0296097106250115e-19  -1.2045198254591378e-19  -1.2682824278655371e-19  -1.2459093998277493e-19  8.6880100785840986e-18  -5.9191730843685975e-20  -2.2720511856112207e-20  -2.9062117502396259e-20  -2.6406096206240438e-20  -1.9812967380555784e-20  1.6685703359631161e-17  -1.4907228632541077e-20  -1.0126923035189443e-20  -9.2394008736988959e-21  -1.3508323456750727e-20  -1.1216238643968398e-20  -8.2714816837644747e-21  -1.1788551271946034e-20  -7.9369921103779077e-21  -1.2413220344683356e-35  3.4666738998970245e-33  -9.4039548065783001e-38  4.7019774032891500e-38  -4.5851134187338144e-23  -1.4756668535077548e-22  -6.3195262009562354e-23  -6.1432638226902385e-23  -7.7435270765805363e-23  -1.1267060832161913e-22  -1.6352287575527368e-22  -4.7806121271701580e-22  -2.7510430516324196e-22  5.6225114597599055e-20  -3.0896894998372203e-22  -1.5448447499186111e-22  -5.2816440684267628e-22  -4.4710836805699860e-23  -6.1267044170568214e-22  -1.6812823048921211e-21  -1.2181320816022038e-21  -6.0396537808588190e-22  -8.9018110284936124e-25  -4.4509055142465711e-25  -3.3877402065216718e-22  5.5483333358811970e-36  9.9054591689156877e-19  -2.6110161781816600e-22  -4.9489063635406485e-22  -1.0114430390395980e-21  -1.0462919432018413e-21  -2.7028521184102128e-22  -5.0212354074141872e-23  -1.0113010822530343e-22  -1.4526139800573261e-22  -1.2164953452565375e-22  -5.6820832798266289e-23  -1.5732405594781064e-23  7.0109976031502261e-21  -6.6121557233753672e-39  5.5101297694794727e-39  -4.9177577736319088e-25  -3.6428297019587942e-25  -8.3825602931474718e-25  -4.8759157724373851e-25  -1.4693679385278594e-39  -2.5369002322463222e-20  4.1466119920885523e-04  2.1394747682237938e-04  1.1989755561080618e-04  3.2545173861947129e-04  2.2783082626241021e-04  4.1577202759195857e-04  2.2477864204282694e-04  6.4227214672618702e-04  8.8962207701435376e-05  5.1360750653199941e-06  4.1012016687991124e-04  6.5719962480114758e-04  1.8559322596385126e-04  4.7659326133592131e-04  1.5040521976028982e-04  6.7207171577207597e-05  6.8715742167692459e-04  1.4382735800888780e-04  6.1456145909947102e-04  9.5935905193382634e-05  3.2063993923089044e-04  1.2297370821977386e-04  5.7220019067145121e-04  2.5635539329095400e-04  8.3186848950344639e-04  6.3158043548648755e-04  7.6773990469554843e-04  3.5750651747642510e-04  5.8826176872262882e-04  6.5356817627458996e-04  9.2016057646889188e-04  5.7794763934533729e-04  4.8874276928488278e-04  2.7758059908881570e-04  5.5284150865617609e-04  1.0230799946665044e-03  1.3432399663098856e-03  1.4982500316843160e-03  1.5356094919721545e-03  1.4766260975345824e-03  1.1785991273057985e-03  4.7700386423125604e-04  4.0929635491541544e-04  3.1888838875984964e-04  7.1383738009743220e-04  6.1224252527274190e-04  5.3708951451711027e-04  3.6486085446151088e-04  1.7638602002241778e-04  1.6644224932766788e-04  4.0410758541979702e-04  6.1831677710873202e-06  1.4591418342967057e-04  1.3940656874746122e-04  7.3276854469231408e-05  5.5920816972203409e-05  2.7205839206270954e-05  1.0769004426806096e-05  3.0005604327533504e-06  8.2598060336244292e-07  2.5985718054867294e-06  3.0620339485540188e-06  3.2933247793289479e-06  2.9326033780871498e-06  3.3651027063146991e-06  4.8562260794101618e-06  9.9116771697691711e-06  2.1902975656059944e-06  7.5326161502599316e-06  5.5658897920629767e-06  1.5807372879135137e-05  1.6108776638205709e-06  2.2073778983733018e-05  1.5543528027664243e-05  2.2515525433434938e-05  1.0686154038449452e-05  5.5369959875443055e-06  1.6036077132337175e-08  3.6021522287685692e-06  4.3017340983033340e-06  6.0209476092374018e-06  6.2612279791097800e-06  1.7830314283786510e-05  2.6271360019848903e-07  1.8220537974900855e-05  9.7380510346478286e-06  1.3838997913200899e-06  2.1259546073075828e-07  1.7155003405122780e-06  1.7590465414635993e-06  1.3151201741878194e-06  7.8557711157833475e-07  3.7964848678712649e-07  1.7436324319994606e-07  6.3030546052093279e-08  8.1864887046777162e-09  8.8590448307308561e-09  2.1328161799608607e-09  1.7567337964671149e-08  -7.1303602280680363e-24  -1.5349185079185481e-20  4.5700731762482623e-04  1.3849448271380159e-04  8.9655419644366072e-05  5.0204073470808921e-05  4.2769687310263948e-04  4.8608783087634517e-04  5.7908751149431613e-04  6.9949635825442978e-04  5.9436817829092322e-05  4.0962921980324646e-04  3.7966359730679422e-04  4.4300187448939273e-04  9.7018370092544627e-04  6.2599376717537470e-04  4.6230412448456249e-04  1.1064036313283758e-03  9.1772830235476019e-05  5.4905207386040983e-04  7.5878094239486876e-04  3.6849617282009694e-04  1.3904050522911709e-03  9.1429861790163830e-04  1.5111848042136246e-03  8.2154085976693348e-04  1.0111671545334014e-03  8.9745690893285496e-05  4.0077633992782524e-04  1.5740003507383679e-03  1.0102772138284753e-03  2.4771587095076856e-04  1.5546949923676663e-03  2.0143638241334168e-04  1.1272864373056389e-03  4.8279728792511174e-04  3.0413484626371135e-04  1.3224342546082441e-03  1.7195202481326726e-03  2.0436565431495458e-03  2.1780059365568471e-03  2.1307636081981025e-03  1.9002934574074073e-03  1.3189335436275781e-03  3.0566322564548728e-04  9.7419570485422693e-04  8.2966199831307596e-04  6.7352675001378819e-04  9.8755407778590844e-04  7.4922254771419942e-04  9.8757303625363665e-05  3.8272436507370545e-04  4.2477610755475604e-04  4.2142018734538621e-04  3.6412197483869823e-04  1.9734289527630132e-04  1.0948549303902001e-04  6.2821606576572432e-05  6.5157809843934751e-05  2.6347321237319667e-05  1.0609080307350526e-05  2.2717136654440478e-06  1.0993572891882397e-06  2.2270758730350518e-06  1.9463142898366902e-06  1.6859079108031940e-06  1.6605562461264107e-06  2.4668199697694237e-06  6.9442216375073710e-06  7.0899516271783299e-06  1.9194653549791640e-05  2.6880135114128514e-06  4.6457204327872788e-06  3.4633154984705163e-05  2.0631652007290771e-05  1.5175749091469323e-05  3.0976939318089574e-05  2.1674441045915467e-05  6.5238596852236596e-06  8.5138384580566361e-06  7.8536406785061666e-07  1.2313208855519793e-05  5.4309014162524802e-06  1.9224520436626213e-05  2.0075976872371674e-05  1.9331949744547827e-05  3.0303795750543219e-06  2.2329513112923013e-05  7.2242451116733642e-06  2.9414578059159072e-06  1.3882154981297801e-06  2.3928697364905158e-06  1.7718679110493819e-06  1.2900711202207857e-06  5.7332369135664962e-07  2.6695810456768504e-07  6.0763162982079107e-08  1.1533480572160079e-08  4.6393621956794580e-08  4.2621315786238686e-08  8.4606756442115113e-09  -2.6121371190667934e-23  -1.8622279905974256e-20  2.7650633681224269e-04  4.3593000901417613e-04  2.8225693749359485e-06  4.3700155185950906e-04  6.0163329867101377e-04  5.0669287118216774e-04  7.4999482275741529e-04  1.4292245347785328e-04  1.3092864278710164e-03  4.8098245606341427e-04  1.1845098999457171e-05  1.0076387910002260e-03  9.9653361636508090e-04  2.9519938730674949e-05  1.1043286907866899e-03  3.6169172119520298e-04  4.7178804499332835e-04  1.2499376709868453e-03  7.2389248593178500e-04  1.6339424405348239e-03  5.8883620187171934e-04  1.1424482181971807e-03  4.8107225794848270e-04  1.6749055396604667e-03  1.4188996218287013e-03  2.1833848424147313e-03  1.7840363481383085e-03  1.6166138258595965e-03  8.4058854971886881e-04  1.9238278673495090e-03  1.4607152026284897e-03  1.9137101940539341e-03  1.8575227115471818e-03  9.6029309568713462e-04  1.9530273970047089e-04  1.3589777234185600e-03  1.8803600164760219e-03  2.1961941130344636e-03  2.4246189385589896e-03  2.4961223506344233e-03  2.3751325027913466e-03  1.7834377512295303e-03  5.8568198412401232e-04  1.0182546704621325e-03  5.8656585360096535e-04  2.0207974332229848e-03  1.4468321232370223e-03  1.0105854774069755e-03  7.7729716687093486e-04  6.5066967364112171e-04  6.0931261986142877e-04  1.0067842085586323e-03  1.4444043218207736e-04  4.4199354244390030e-04  1.5711760741411786e-04  1.0684022518293724e-05  7.1386112938282868e-05  5.4455889955546722e-05  2.1728117168143226e-05  8.2607282446932515e-06  7.6223724856832872e-07  2.0297314780606076e-06  2.8814291605904958e-06  3.2815862815458985e-06  3.0395711949803072e-06  3.4778173321002143e-06  4.9152251779018361e-06  1.4147399939947727e-05  6.1574756702384889e-06  1.9896681953578301e-05  9.2243394894433662e-06  2.8010318815669100e-05  2.4611478772597880e-05  3.5457597507908395e-05  1.4471949880880997e-05  3.7573572472583201e-05  4.9916358123138059e-06  1.6144757671226056e-05  9.7953597693306346e-06  1.5877273250698643e-05  1.0077690392138656e-05  1.1070863139600233e-06  1.4222811703887554e-05  4.4310105026386724e-05  1.2625947931541735e-05  2.9971709909759979e-07  1.4271340699936536e-05  3.6960776076360924e-06  2.2814027575330150e-06  2.0179038900497078e-06  1.6913667446957646e-06  1.2989113651836111e-06  6.4047455306951627e-07  2.5980319671924165e-07  3.1770766881872139e-08  4.0418996361633873e-08  7.0887191379681496e-08  6.3902248542351198e-08  3.5123551330209624e-08  -4.8743719241752963e-24  -1.9344109529623027e-20  3.3546917138133948e-04  4.5654027277012259e-04  8.4811837522632516e-05  1.4228854203190785e-04  5.1034298786278344e-04  7.7396732441048705e-04  1.0817894842451176e-03  9.4565395262500630e-04  5.6931134930209004e-04  1.0076565468802161e-04  3.8702543655139116e-04  2.2574778750839898e-04  7.4467792204618887e-04  1.5099336612428864e-03  2.3359068973915459e-04  5.3076233492189181e-04  1.4801376743248098e-03  4.5815472937616727e-04  1.2312001149939614e-03  3.8639912829944935e-04  2.0398586271664832e-04  1.7105452840457858e-03  1.3587832796993716e-03  2.0491496444505937e-03  9.5125422919469459e-04  9.3571283950799069e-04  6.8401308144422032e-04  1.4626479935970721e-03  2.9292548911562079e-03  1.5472508021307570e-03  9.6855290712632340e-04  2.8162344143446588e-03  5.1400354781567712e-04  2.4552383550232250e-03  5.6185585561901639e-04  5.7901838215880833e-04  2.1545037590011539e-03  2.3024466221574008e-03  2.5659603693754932e-03  2.7052154751148723e-03  2.6444857272222692e-03  2.3699083332307668e-03  1.5389358389522267e-03  7.3894704413396775e-04  1.6141205156235653e-03  1.3720088944770162e-03  1.6111020212094473e-03  2.3578029291219287e-03  1.7697151303863864e-03  6.9005305480620009e-04  2.5080173521167896e-04  4.4170679316465542e-04  8.3115076085889987e-04  7.2918514727638827e-04  3.2185226125230388e-04  4.6111907050628556e-05  2.0136272302734230e-05  7.6389101786539365e-05  3.6402922623560892e-05  1.6024924633847418e-05  5.0480967206075860e-06  2.9154567431726267e-07  1.5984838859909961e-06  2.4918495428982212e-06  2.3348914178225744e-06  2.4811909557765056e-06  3.8594037585553954e-06  1.0953284144657664e-05  1.1522650044992383e-05  2.3694602600564917e-05  3.3423704138942678e-06  1.0728754875400323e-07  4.1362119742223774e-05  9.0621875162946271e-06  1.6261598914025384e-05  3.3861710759942418e-05  3.2113498808935294e-05  2.0893765084602444e-05  1.7531627497989864e-05  1.2525893398983402e-05  2.9394600178808281e-05  1.6178144633341416e-06  1.5148661651345752e-05  1.6342751995602175e-05  4.6255392790107640e-05  1.3029112707629605e-05  3.4462116638683161e-06  3.6922058529795936e-06  1.2792325109588273e-06  2.8592611113349422e-06  2.4804539371018234e-06  1.5301494747146649e-06  9.6220789368487253e-07  3.3045110781882018e-07  1.0701947324195050e-07  1.9689876526801239e-08  4.9179009309266413e-08  5.1845800042812416e-08  3.7684230570243163e-08  -4.9296455785777297e-24  -1.4963607611888252e-20  3.4847249787769703e-04  5.3896297033788419e-04  7.8819066557401824e-04  1.6753430561089767e-04  4.9316329407467327e-04  4.8122602518294814e-04  4.3057876092157329e-04  1.1743194437048177e-03  3.4995546282154882e-04  1.6267682629231585e-03  9.3799014916664169e-04  2.3636357964795094e-04  1.2446649488805999e-03  1.0372089844054985e-03  2.4996681037333832e-04  1.2515886777392101e-03  9.7290308790183827e-04  1.1240121411070245e-03  1.0731008283719184e-03  7.2519299239031049e-04  2.0439499498098286e-03  1.1764117810694069e-03  1.9586627681816575e-03  1.2508615319128580e-03  2.6581917623552942e-03  2.3556141277891515e-03  3.0596057638939186e-03  2.2598788292849462e-03  1.5950338314821341e-03  1.7289306075584843e-03  3.0815512421738891e-03  1.6959379295896782e-03  3.1496945556682230e-03  2.4579989951521242e-03  1.7337321442189389e-03  6.8544307388143408e-05  1.8117902110705117e-03  2.5807938257094713e-03  2.6647484988931692e-03  2.8549724051130346e-03  2.9336834838307258e-03  2.7810758434802575e-03  2.0571052704671101e-03  5.9065243802746412e-04  1.6622719535072854e-03  1.0269759494722936e-03  3.1114304700318326e-03  1.5102437793907296e-03  5.0277793940024730e-04  4.1706172644434130e-04  6.4083634335004847e-04  9.4528063417388404e-04  1.3877251036772623e-03  5.1740783510648562e-05  8.0174856227896896e-04  1.7922007330004643e-04  8.0902698632571911e-05  2.7570063289392067e-05  6.6105269131397444e-05  2.4050353938803245e-05  9.2730343864996588e-06  1.6654599596523612e-06  1.1770563994491626e-06  2.0934710806067687e-06  2.2612786256856377e-06  1.9470300274391124e-06  3.2165182756413407e-06  6.0389346544549122e-06  1.8503154262034867e-05  7.8659717749669788e-06  2.3250446206288189e-05  8.2728770965080901e-06  2.3817611849872019e-05  2.2950363075746530e-05  2.2246500431484812e-05  1.7821594879906783e-05  4.3388713444875577e-05  1.4855954259562039e-05  3.0203769207089780e-05  1.8152364321110655e-05  2.5417676969742031e-05  2.0818779152005338e-05  5.8946348074869940e-06  6.1475358755688460e-06  3.7397153381449538e-05  4.3234957155923476e-05  1.5925597227352537e-05  7.1106525433283937e-06  1.8702401169916913e-06  5.2650718525130417e-07  3.4904224458134278e-06  2.3362598089446707e-06  1.6266313566908005e-06  6.5567400358670336e-07  3.3329202938845904e-07  8.2568969724869021e-08  2.7974147818072368e-08  8.8645276948179454e-09  1.3835931511627784e-08  -1.4326337400646629e-38  -6.4538075149750213e-21  2.6956039066007304e-04  5.3833614045604831e-04  4.3620465873835731e-04  5.8101046838442355e-04  1.8102263595622391e-04  5.8766816062533341e-04  1.0464840063915846e-03  1.3569243953042774e-03  1.2122329691570349e-03  4.9068887989109431e-04  4.8870796099729217e-04  2.5773213485206898e-05  2.0807672860698482e-04  1.2054740206816938e-03  1.7471589944851884e-03  3.4823960744303607e-05  2.6011278557734656e-04  1.1480507127366974e-03  2.0816669014160706e-04  1.5668283277305052e-03  3.1458741955291384e-05  3.2560548471944229e-04  1.3169720292714781e-03  1.0894366569194683e-03  1.8524880486029951e-03  4.4622500667644707e-04  3.4024700375259178e-04  1.4797436948468590e-03  2.3043367761338726e-03  3.8064032910800089e-03  1.5432893135771213e-03  1.9964475090232395e-03  3.7308460095808248e-03  1.1317889365004916e-03  3.5762713702914466e-03  8.5050562725879394e-04  8.2315021945491488e-04  2.8419672834903683e-03  2.9060119358372211e-03  3.0065822928751779e-03  3.1306837561148079e-03  3.0750740522381575e-03  2.7633739867742820e-03  1.6705377243331518e-03  1.0214568598209753e-03  2.3123045333656809e-03  1.5869933882022898e-03  2.6340298646873204e-03  3.1456704846833236e-03  2.1237538272355617e-03  1.0018785051579473e-03  4.1180376647821936e-05  1.8999236391907342e-04  1.2568001602584282e-03  8.8684275410759548e-04  5.5799853743246104e-04  6.2977735812912869e-06  1.1799513374255122e-04  7.2491008150893813e-05  4.9399371128860946e-05  1.8102756523269479e-05  5.1767107409393472e-06  5.6343976627463912e-07  2.1862846994069483e-06  2.8006850522766512e-06  2.2199565564318012e-06  2.1907877602153263e-06  4.2359098287658093e-06  1.4405028635952760e-05  1.3369805209290573e-05  2.7661852896026945e-05  5.8395293737102611e-06  4.4685718035644824e-06  3.2542107221022609e-05  1.1782295351496645e-05  8.7725708229556676e-07  3.5904780420723326e-05  4.3677692561207102e-05  5.0828829482278252e-06  2.9768926801258277e-05  1.1031330619334691e-05  3.0306557734761401e-05  1.0229102054661073e-05  1.7887706795650680e-05  1.9627951600099955e-05  3.9948634265036662e-05  4.1677746148387807e-05  1.1246995066801008e-05  8.6179768970736045e-06  3.7592077194170812e-06  2.5171497068552561e-06  3.0278461228221148e-06  2.1818562468305557e-06  1.1609019936390058e-06  5.5242853193556837e-07  2.2158179217946057e-07  1.0389710048127568e-07  3.6976883203966718e-08  1.9632437861223099e-08  -1.0898192271526092e-24  -1.9302246698334213e-20  1.1626146047824962e-04  4.0391151723449635e-04  6.8999332097993075e-04  7.0430158713552721e-04  9.6123389455628013e-05  6.1699994875828821e-04  2.5083505719991633e-04  1.2681670734204225e-04  1.5480581112746403e-03  5.7577698239635845e-04  1.5404945356218172e-03  8.9911401136355486e-04  1.9968059361891088e-04  1.2108843079999946e-03  1.3140467563725255e-03  5.9353703044031975e-04  9.5220132448970698e-04  9.6505306620235968e-04  1.3120966231898725e-03  9.2292044997183218e-04  2.8332161733196404e-04  1.7688597590601852e-03  9.3980595405115767e-04  2.0897987187256774e-03  1.3726193048705557e-03  2.9256861468027143e-03  2.4229971800641690e-03  3.0880415206013321e-03  2.0312828882083993e-03  1.1607780803672893e-03  2.6340076294617174e-03  3.6715698263063358e-03  1.5128333834467181e-03  4.3720535184035726e-03  2.6374600700291217e-03  2.8250459158629501e-03  3.4851772754585509e-05  2.1542023545793126e-03  3.4130421902236535e-03  3.2505059802887246e-03  3.3269474073704150e-03  3.4017310472551836e-03  3.2215449342900674e-03  2.3564381732873491e-03  5.6023422909422336e-04  2.2321786730775130e-03  1.4852550383640747e-03  3.8087460223562184e-03  1.1594025995453068e-03  2.7147489796078359e-04  2.0239407264201935e-04  1.7847370489266158e-04  8.0713981135422741e-04  1.4189445146991679e-03  2.1328291101750297e-04  1.0934060732751096e-03  2.7887523289940174e-04  1.5573066460231107e-04  5.4020694434076806e-05  7.7066942815770751e-05  3.2881170624165600e-05  1.2934201356465173e-05  3.3271605154536879e-06  7.3386520112612210e-08  1.9684822532695904e-06  2.7904954049077619e-06  2.1630724221713541e-06  3.7387101902879258e-06  7.8354871938069380e-06  2.2833100361465381e-05  1.0942942580106011e-05  2.5017737579085093e-05  1.5157301240306664e-06  2.4571311924249006e-05  7.4581926666689353e-06  1.8214926196422965e-05  2.4999689990023822e-05  4.5313112859800347e-05  2.7030048324476941e-05  1.2381727991730030e-05  2.8940066005911695e-05  5.6228603713586442e-06  1.5819098013242578e-05  1.9731784152512500e-05  5.0508186114371942e-06  3.1636237491497890e-05  4.0439984997615722e-05  3.4532157344864013e-05  5.7855624285999515e-06  7.4712058554428427e-06  4.7625529024222099e-06  3.7567357155021199e-06  2.6986811277581524e-06  1.9114590526839680e-06  7.5071293381339428e-07  4.0075027719073185e-07  1.4690944055760236e-07  8.3808975976199524e-08  4.2846833282705064e-08  -4.2042970266578453e-24  -4.7731042564524551e-21  3.4771836415212621e-04  5.1440848890699795e-04  5.8793530736716290e-04  4.9433385333965785e-04  8.1916425608686920e-04  5.9285006257674032e-05  4.9484969956983306e-04  9.1417847501317775e-04  1.3173133539836530e-03  1.5494895030645811e-03  6.4703776536499333e-04  5.2763419937437771e-04  3.3332000424534481e-04  3.5804404722487946e-04  1.4046862307294788e-03  1.8542501557465335