<?xml version="1.0"?>
<VTKFile type="UnstructuredGrid"  version="0.1"  >
<UnstructuredGrid>
<Piece  NumberOfPoints="10201" NumberOfCells="20000">
<Points>
<DataArray  type="Float64"  NumberOfComponents="3"  format="ascii">0 0 0  0.01 0 0  0.02 0 0  0.03 0 0  0.04 0 0  0.05 0 0  0.06 0 0  0.07000000000000001 0 0  0.08 0 0  0.09 0 0  0.1 0 0  0.11 0 0  0.12 0 0  0.13 0 0  0.14 0 0  0.15 0 0  0.16 0 0  0.17 0 0  0.18 0 0  0.19 0 0  0.2 0 0  0.21 0 0  0.22 0 0  0.23 0 0  0.24 0 0  0.25 0 0  0.26 0 0  0.27 0 0  0.28 0 0  0.29 0 0  0.3 0 0  0.31 0 0  0.32 0 0  0.33 0 0  0.34 0 0  0.35 0 0  0.36 0 0  0.37 0 0  0.38 0 0  0.39 0 0  0.4 0 0  0.41 0 0  0.42 0 0  0.43 0 0  0.44 0 0  0.45 0 0  0.46 0 0  0.47 0 0  0.48 0 0  0.49 0 0  0.5 0 0  0.51 0 0  0.52 0 0  0.53 0 0  0.54 0 0  0.55 0 0  0.5600000000000001 0 0  0.57 0 0  0.58 0 0  0.59 0 0  0.6 0 0  0.61 0 0  0.62 0 0  0.63 0 0  0.64 0 0  0.65 0 0  0.66 0 0  0.67 0 0  0.68 0 0  0.6899999999999999 0 0  0.7 0 0  0.71 0 0  0.72 0 0  0.73 0 0  0.74 0 0  0.75 0 0  0.76 0 0  0.77 0 0  0.78 0 0  0.79 0 0  0.8 0 0  0.8100000000000001 0 0  0.82 0 0  0.83 0 0  0.84 0 0  0.85 0 0  0.86 0 0  0.87 0 0  0.88 0 0  0.89 0 0  0.9 0 0  0.91 0 0  0.92 0 0  0.93 0 0  0.9399999999999999 0 0  0.95 0 0  0.96 0 0  0.97 0 0  0.98 0 0  0.99 0 0  1 0 0  0 0.01 0  0.01 0.01 0  0.02 0.01 0  0.03 0.01 0  0.04 0.01 0  0.05 0.01 0  0.06 0.01 0  0.07000000000000001 0.01 0  0.08 0.01 0  0.09 0.01 0  0.1 0.01 0  0.11 0.01 0  0.12 0.01 0  0.13 0.01 0  0.14 0.01 0  0.15 0.01 0  0.16 0.01 0  0.17 0.01 0  0.18 0.01 0  0.19 0.01 0  0.2 0.01 0  0.21 0.01 0  0.22 0.01 0  0.23 0.01 0  0.24 0.01 0  0.25 0.01 0  0.26 0.01 0  0.27 0.01 0  0.28 0.01 0  0.29 0.01 0  0.3 0.01 0  0.31 0.01 0  0.32 0.01 0  0.33 0.01 0  0.34 0.01 0  0.35 0.01 0  0.36 0.01 0  0.37 0.01 0  0.38 0.01 0  0.39 0.01 0  0.4 0.01 0  0.41 0.01 0  0.42 0.01 0  0.43 0.01 0  0.44 0.01 0  0.45 0.01 0  0.46 0.01 0  0.47 0.01 0  0.48 0.01 0  0.49 0.01 0  0.5 0.01 0  0.51 0.01 0  0.52 0.01 0  0.53 0.01 0  0.54 0.01 0  0.55 0.01 0  0.5600000000000001 0.01 0  0.57 0.01 0  0.58 0.01 0  0.59 0.01 0  0.6 0.01 0  0.61 0.01 0  0.62 0.01 0  0.63 0.01 0  0.64 0.01 0  0.65 0.01 0  0.66 0.01 0  0.67 0.01 0  0.68 0.01 0  0.6899999999999999 0.01 0  0.7 0.01 0  0.71 0.01 0  0.72 0.01 0  0.73 0.01 0  0.74 0.01 0  0.75 0.01 0  0.76 0.01 0  0.77 0.01 0  0.78 0.01 0  0.79 0.01 0  0.8 0.01 0  0.8100000000000001 0.01 0  0.82 0.01 0  0.83 0.01 0  0.84 0.01 0  0.85 0.01 0  0.86 0.01 0  0.87 0.01 0  0.88 0.01 0  0.89 0.01 0  0.9 0.01 0  0.91 0.01 0  0.92 0.01 0  0.93 0.01 0  0.9399999999999999 0.01 0  0.95 0.01 0  0.96 0.01 0  0.97 0.01 0  0.98 0.01 0  0.99 0.01 0  1 0.01 0  0 0.02 0  0.01 0.02 0  0.02 0.02 0  0.03 0.02 0  0.04 0.02 0  0.05 0.02 0  0.06 0.02 0  0.07000000000000001 0.02 0  0.08 0.02 0  0.09 0.02 0  0.1 0.02 0  0.11 0.02 0  0.12 0.02 0  0.13 0.02 0  0.14 0.02 0  0.15 0.02 0  0.16 0.02 0  0.17 0.02 0  0.18 0.02 0  0.19 0.02 0  0.2 0.02 0  0.21 0.02 0  0.22 0.02 0  0.23 0.02 0  0.24 0.02 0  0.25 0.02 0  0.26 0.02 0  0.27 0.02 0  0.28 0.02 0  0.29 0.02 0  0.3 0.02 0  0.31 0.02 0  0.32 0.02 0  0.33 0.02 0  0.34 0.02 0  0.35 0.02 0  0.36 0.02 0  0.37 0.02 0  0.38 0.02 0  0.39 0.02 0  0.4 0.02 0  0.41 0.02 0  0.42 0.02 0  0.43 0.02 0  0.44 0.02 0  0.45 0.02 0  0.46 0.02 0  0.47 0.02 0  0.48 0.02 0  0.49 0.02 0  0.5 0.02 0  0.51 0.02 0  0.52 0.02 0  0.53 0.02 0  0.54 0.02 0  0.55 0.02 0  0.5600000000000001 0.02 0  0.57 0.02 0  0.58 0.02 0  0.59 0.02 0  0.6 0.02 0  0.61 0.02 0  0.62 0.02 0  0.63 0.02 0  0.64 0.02 0  0.65 0.02 0  0.66 0.02 0  0.67 0.02 0  0.68 0.02 0  0.6899999999999999 0.02 0  0.7 0.02 0  0.71 0.02 0  0.72 0.02 0  0.73 0.02 0  0.74 0.02 0  0.75 0.02 0  0.76 0.02 0  0.77 0.02 0  0.78 0.02 0  0.79 0.02 0  0.8 0.02 0  0.8100000000000001 0.02 0  0.82 0.02 0  0.83 0.02 0  0.84 0.02 0  0.85 0.02 0  0.86 0.02 0  0.87 0.02 0  0.88 0.02 0  0.89 0.02 0  0.9 0.02 0  0.91 0.02 0  0.92 0.02 0  0.93 0.02 0  0.9399999999999999 0.02 0  0.95 0.02 0  0.96 0.02 0  0.97 0.02 0  0.98 0.02 0  0.99 0.02 0  1 0.02 0  0 0.03 0  0.01 0.03 0  0.02 0.03 0  0.03 0.03 0  0.04 0.03 0  0.05 0.03 0  0.06 0.03 0  0.07000000000000001 0.03 0  0.08 0.03 0  0.09 0.03 0  0.1 0.03 0  0.11 0.03 0  0.12 0.03 0  0.13 0.03 0  0.14 0.03 0  0.15 0.03 0  0.16 0.03 0  0.17 0.03 0  0.18 0.03 0  0.19 0.03 0  0.2 0.03 0  0.21 0.03 0  0.22 0.03 0  0.23 0.03 0  0.24 0.03 0  0.25 0.03 0  0.26 0.03 0  0.27 0.03 0  0.28 0.03 0  0.29 0.03 0  0.3 0.03 0  0.31 0.03 0  0.32 0.03 0  0.33 0.03 0  0.34 0.03 0  0.35 0.03 0  0.36 0.03 0  0.37 0.03 0  0.38 0.03 0  0.39 0.03 0  0.4 0.03 0  0.41 0.03 0  0.42 0.03 0  0.43 0.03 0  0.44 0.03 0  0.45 0.03 0  0.46 0.03 0  0.47 0.03 0  0.48 0.03 0  0.49 0.03 0  0.5 0.03 0  0.51 0.03 0  0.52 0.03 0  0.53 0.03 0  0.54 0.03 0  0.55 0.03 0  0.5600000000000001 0.03 0  0.57 0.03 0  0.58 0.03 0  0.59 0.03 0  0.6 0.03 0  0.61 0.03 0  0.62 0.03 0  0.63 0.03 0  0.64 0.03 0  0.65 0.03 0  0.66 0.03 0  0.67 0.03 0  0.68 0.03 0  0.6899999999999999 0.03 0  0.7 0.03 0  0.71 0.03 0  0.72 0.03 0  0.73 0.03 0  0.74 0.03 0  0.75 0.03 0  0.76 0.03 0  0.77 0.03 0  0.78 0.03 0  0.79 0.03 0  0.8 0.03 0  0.8100000000000001 0.03 0  0.82 0.03 0  0.83 0.03 0  0.84 0.03 0  0.85 0.03 0  0.86 0.03 0  0.87 0.03 0  0.88 0.03 0  0.89 0.03 0  0.9 0.03 0  0.91 0.03 0  0.92 0.03 0  0.93 0.03 0  0.9399999999999999 0.03 0  0.95 0.03 0  0.96 0.03 0  0.97 0.03 0  0.98 0.03 0  0.99 0.03 0  1 0.03 0  0 0.04 0  0.01 0.04 0  0.02 0.04 0  0.03 0.04 0  0.04 0.04 0  0.05 0.04 0  0.06 0.04 0  0.07000000000000001 0.04 0  0.08 0.04 0  0.09 0.04 0  0.1 0.04 0  0.11 0.04 0  0.12 0.04 0  0.13 0.04 0  0.14 0.04 0  0.15 0.04 0  0.16 0.04 0  0.17 0.04 0  0.18 0.04 0  0.19 0.04 0  0.2 0.04 0  0.21 0.04 0  0.22 0.04 0  0.23 0.04 0  0.24 0.04 0  0.25 0.04 0  0.26 0.04 0  0.27 0.04 0  0.28 0.04 0  0.29 0.04 0  0.3 0.04 0  0.31 0.04 0  0.32 0.04 0  0.33 0.04 0  0.34 0.04 0  0.35 0.04 0  0.36 0.04 0  0.37 0.04 0  0.38 0.04 0  0.39 0.04 0  0.4 0.04 0  0.41 0.04 0  0.42 0.04 0  0.43 0.04 0  0.44 0.04 0  0.45 0.04 0  0.46 0.04 0  0.47 0.04 0  0.48 0.04 0  0.49 0.04 0  0.5 0.04 0  0.51 0.04 0  0.52 0.04 0  0.53 0.04 0  0.54 0.04 0  0.55 0.04 0  0.5600000000000001 0.04 0  0.57 0.04 0  0.58 0.04 0  0.59 0.04 0  0.6 0.04 0  0.61 0.04 0  0.62 0.04 0  0.63 0.04 0  0.64 0.04 0  0.65 0.04 0  0.66 0.04 0  0.67 0.04 0  0.68 0.04 0  0.6899999999999999 0.04 0  0.7 0.04 0  0.71 0.04 0  0.72 0.04 0  0.73 0.04 0  0.74 0.04 0  0.75 0.04 0  0.76 0.04 0  0.77 0.04 0  0.78 0.04 0  0.79 0.04 0  0.8 0.04 0  0.8100000000000001 0.04 0  0.82 0.04 0  0.83 0.04 0  0.84 0.04 0  0.85 0.04 0  0.86 0.04 0  0.87 0.04 0  0.88 0.04 0  0.89 0.04 0  0.9 0.04 0  0.91 0.04 0  0.92 0.04 0  0.93 0.04 0  0.9399999999999999 0.04 0  0.95 0.04 0  0.96 0.04 0  0.97 0.04 0  0.98 0.04 0  0.99 0.04 0  1 0.04 0  0 0.05 0  0.01 0.05 0  0.02 0.05 0  0.03 0.05 0  0.04 0.05 0  0.05 0.05 0  0.06 0.05 0  0.07000000000000001 0.05 0  0.08 0.05 0  0.09 0.05 0  0.1 0.05 0  0.11 0.05 0  0.12 0.05 0  0.13 0.05 0  0.14 0.05 0  0.15 0.05 0  0.16 0.05 0  0.17 0.05 0  0.18 0.05 0  0.19 0.05 0  0.2 0.05 0  0.21 0.05 0  0.22 0.05 0  0.23 0.05 0  0.24 0.05 0  0.25 0.05 0  0.26 0.05 0  0.27 0.05 0  0.28 0.05 0  0.29 0.05 0  0.3 0.05 0  0.31 0.05 0  0.32 0.05 0  0.33 0.05 0  0.34 0.05 0  0.35 0.05 0  0.36 0.05 0  0.37 0.05 0  0.38 0.05 0  0.39 0.05 0  0.4 0.05 0  0.41 0.05 0  0.42 0.05 0  0.43 0.05 0  0.44 0.05 0  0.45 0.05 0  0.46 0.05 0  0.47 0.05 0  0.48 0.05 0  0.49 0.05 0  0.5 0.05 0  0.51 0.05 0  0.52 0.05 0  0.53 0.05 0  0.54 0.05 0  0.55 0.05 0  0.5600000000000001 0.05 0  0.57 0.05 0  0.58 0.05 0  0.59 0.05 0  0.6 0.05 0  0.61 0.05 0  0.62 0.05 0  0.63 0.05 0  0.64 0.05 0  0.65 0.05 0  0.66 0.05 0  0.67 0.05 0  0.68 0.05 0  0.6899999999999999 0.05 0  0.7 0.05 0  0.71 0.05 0  0.72 0.05 0  0.73 0.05 0  0.74 0.05 0  0.75 0.05 0  0.76 0.05 0  0.77 0.05 0  0.78 0.05 0  0.79 0.05 0  0.8 0.05 0  0.8100000000000001 0.05 0  0.82 0.05 0  0.83 0.05 0  0.84 0.05 0  0.85 0.05 0  0.86 0.05 0  0.87 0.05 0  0.88 0.05 0  0.89 0.05 0  0.9 0.05 0  0.91 0.05 0  0.92 0.05 0  0.93 0.05 0  0.9399999999999999 0.05 0  0.95 0.05 0  0.96 0.05 0  0.97 0.05 0  0.98 0.05 0  0.99 0.05 0  1 0.05 0  0 0.06 0  0.01 0.06 0  0.02 0.06 0  0.03 0.06 0  0.04 0.06 0  0.05 0.06 0  0.06 0.06 0  0.07000000000000001 0.06 0  0.08 0.06 0  0.09 0.06 0  0.1 0.06 0  0.11 0.06 0  0.12 0.06 0  0.13 0.06 0  0.14 0.06 0  0.15 0.06 0  0.16 0.06 0  0.17 0.06 0  0.18 0.06 0  0.19 0.06 0  0.2 0.06 0  0.21 0.06 0  0.22 0.06 0  0.23 0.06 0  0.24 0.06 0  0.25 0.06 0  0.26 0.06 0  0.27 0.06 0  0.28 0.06 0  0.29 0.06 0  0.3 0.06 0  0.31 0.06 0  0.32 0.06 0  0.33 0.06 0  0.34 0.06 0  0.35 0.06 0  0.36 0.06 0  0.37 0.06 0  0.38 0.06 0  0.39 0.06 0  0.4 0.06 0  0.41 0.06 0  0.42 0.06 0  0.43 0.06 0  0.44 0.06 0  0.45 0.06 0  0.46 0.06 0  0.47 0.06 0  0.48 0.06 0  0.49 0.06 0  0.5 0.06 0  0.51 0.06 0  0.52 0.06 0  0.53 0.06 0  0.54 0.06 0  0.55 0.06 0  0.5600000000000001 0.06 0  0.57 0.06 0  0.58 0.06 0  0.59 0.06 0  0.6 0.06 0  0.61 0.06 0  0.62 0.06 0  0.63 0.06 0  0.64 0.06 0  0.65 0.06 0  0.66 0.06 0  0.67 0.06 0  0.68 0.06 0  0.6899999999999999 0.06 0  0.7 0.06 0  0.71 0.06 0  0.72 0.06 0  0.73 0.06 0  0.74 0.06 0  0.75 0.06 0  0.76 0.06 0  0.77 0.06 0  0.78 0.06 0  0.79 0.06 0  0.8 0.06 0  0.8100000000000001 0.06 0  0.82 0.06 0  0.83 0.06 0  0.84 0.06 0  0.85 0.06 0  0.86 0.06 0  0.87 0.06 0  0.88 0.06 0  0.89 0.06 0  0.9 0.06 0  0.91 0.06 0  0.92 0.06 0  0.93 0.06 0  0.9399999999999999 0.06 0  0.95 0.06 0  0.96 0.06 0  0.97 0.06 0  0.98 0.06 0  0.99 0.06 0  1 0.06 0  0 0.07000000000000001 0  0.01 0.07000000000000001 0  0.02 0.07000000000000001 0  0.03 0.07000000000000001 0  0.04 0.07000000000000001 0  0.05 0.07000000000000001 0  0.06 0.07000000000000001 0  0.07000000000000001 0.07000000000000001 0  0.08 0.07000000000000001 0  0.09 0.07000000000000001 0  0.1 0.07000000000000001 0  0.11 0.07000000000000001 0  0.12 0.07000000000000001 0  0.13 0.07000000000000001 0  0.14 0.07000000000000001 0  0.15 0.07000000000000001 0  0.16 0.07000000000000001 0  0.17 0.0700
[...]
<PointData  Scalars="u"> 
<DataArray  type="Float64"  Name="u"  format="ascii">0.0000000000000000e+00  0.0000000000000000e+00  0.0000000000000000e+00  0.0000000000000000e+00  0.0000000000000000e+00  0.0000000000000000e+00  0.0000000000000000e+00  0.0000000000000000e+00  0.0000000000000000e+00  0.0000000000000000e+00  0.0000000000000000e+00  0.0000000000000000e+00  0.0000000000000000e+00  0.0000000000000000e+00  0.0000000000000000e+00  0.0000000000000000e+00  0.0000000000000000e+00  0.0000000000000000e+00  0.0000000000000000e+00  0.0000000000000000e+00  0.0000000000000000e+00  0.0000000000000000e+00  0.0000000000000000e+00  0.0000000000000000e+00  0.0000000000000000e+00  0.0000000000000000e+00  0.0000000000000000e+00  0.0000000000000000e+00  0.0000000000000000e+00  0.0000000000000000e+00  0.0000000000000000e+00  0.0000000000000000e+00  0.0000000000000000e+00  0.0000000000000000e+00  0.0000000000000000e+00  0.0000000000000000e+00  0.0000000000000000e+00  0.0000000000000000e+00  0.0000000000000000e+00  0.0000000000000000e+00  0.0000000000000000e+00  0.0000000000000000e+00  0.0000000000000000e+00  0.0000000000000000e+00  0.0000000000000000e+00  0.0000000000000000e+00  0.0000000000000000e+00  0.0000000000000000e+00  0.0000000000000000e+00  0.0000000000000000e+00  0.0000000000000000e+00  0.0000000000000000e+00  0.0000000000000000e+00  0.0000000000000000e+00  0.0000000000000000e+00  0.0000000000000000e+00  0.0000000000000000e+00  0.0000000000000000e+00  0.0000000000000000e+00  0.0000000000000000e+00  0.0000000000000000e+00  0.0000000000000000e+00  0.0000000000000000e+00  0.0000000000000000e+00  0.0000000000000000e+00  0.0000000000000000e+00  0.0000000000000000e+00  0.0000000000000000e+00  0.0000000000000000e+00  0.0000000000000000e+00  0.0000000000000000e+00  0.0000000000000000e+00  0.0000000000000000e+00  0.0000000000000000e+00  0.0000000000000000e+00  0.0000000000000000e+00  0.0000000000000000e+00  0.0000000000000000e+00  0.0000000000000000e+00  0.0000000000000000e+00  0.0000000000000000e+00  0.0000000000000000e+00  0.0000000000000000e+00  0.0000000000000000e+00  0.0000000000000000e+00  0.0000000000000000e+00  0.0000000000000000e+00  0.0000000000000000e+00  0.0000000000000000e+00  0.0000000000000000e+00  0.0000000000000000e+00  0.0000000000000000e+00  0.0000000000000000e+00  0.0000000000000000e+00  0.0000000000000000e+00  0.0000000000000000e+00  0.0000000000000000e+00  0.0000000000000000e+00  0.0000000000000000e+00  0.0000000000000000e+00  0.0000000000000000e+00  0.0000000000000000e+00  3.8815077601841656e-07  7.8663853261524982e-07  1.1957091867497344e-06  1.6155117835340110e-06  2.0461715126521548e-06  2.4877907635633961e-06  2.9404458119192096e-06  3.4041831078671192e-06  3.8790152546538655e-06  4.3649166729158305e-06  4.8618189495535909e-06  5.3696058749723457e-06  5.8881081787825901e-06  6.4170979816485343e-06  6.9562829899498914e-06  7.5053004703569026e-06  8.0637110534133442e-06  8.6309924286978612e-06  9.2065330092171069e-06  9.7896256590508460e-06  1.0379461595951241e-05  1.0975124599068900e-05  1.1575585670965974e-05  1.2179698321883229e-05  1.2786194662209679e-05  1.3393682505250892e-05  1.4000643695760722e-05  1.4605433888959112e-05  1.5206284008705764e-05  1.5801303610608276e-05  1.6388486364813552e-05  1.6965717852686163e-05  1.7530785840441595e-05  1.8081393150150163e-05  1.8615173194166322e-05  1.9129708172964900e-05  1.9622549859699649e-05  2.0091242809045905e-05  2.0533349735761678e-05  2.0946478713209178e-05  2.1328311747963588e-05  2.1676634198465012e-05  2.1989364428401029e-05  2.2264583024513019e-05  2.2500560868461404e-05  2.2695785337516273e-05  2.2848983922092590e-05  2.2959144591092912e-05  2.3025532308475795e-05  2.3047701204392854e-05  2.3025502027856837e-05  2.2959084649693113e-05  2.2848895537803099e-05  2.2695670283883341e-05  2.2500421413949456e-05  2.2264421856600771e-05  2.1989184566372448e-05  2.1676438899151798e-05  2.1328104408815923e-05  2.0946262776894400e-05  2.0533128600088933e-05  2.0091019745411325e-05  1.9622327942525806e-05  1.9129490221796678e-05  1.8614961729323052e-05  1.8081190362055934e-05  1.7530593572145523e-05  1.6965537594538965e-05  1.6388319259866478e-05  1.5801150469083550e-05  1.5206145329712259e-05  1.4605309887670595e-05  1.4000534334299050e-05  1.3393587525695442e-05  1.2786113620350249e-05  1.2179630620538907e-05  1.1575530591930794e-05  1.0975081332979164e-05  1.0379429269555535e-05  9.7896033595904974e-06  9.2065198057353030e-06  8.6309873902738697e-06  8.0637132643957332e-06  7.5053090427592053e-06  6.9562970732173475e-06  6.4171167700616119e-06  5.8881309167450632e-06  5.3696318604809235e-06  4.8618475360970567e-06  4.3649472700697151e-06  3.8790473276049686e-06  3.4042161760746153e-06  2.9404794470695504e-06  2.4878245867233197e-06  2.0462051887703974e-06  1.6155449986783722e-06  1.1957414971796562e-06  7.8666823110439425e-07  3.8816846312523948e-07  0.0000000000000000e+00  0.0000000000000000e+00  7.8659911289299007e-07  1.5952085438901918e-06  2.4262233919676106e-06  3.2800380392550009e-06  4.1569932719086428e-06  5.0573815296092770e-06  5.9814449773265261e-06  6.9293680108748138e-06  7.9012686906760667e-06  8.8971894239046163e-06  9.9170868879416811e-06  1.0960821189774919e-05  1.2028144268656074e-05  1.3118687565080084e-05  1.4231948998238984e-05  1.5367279316833040e-05  1.6523867914635815e-05  1.7700728232829589e-05  1.8896682905720427e-05  2.0110348845112308e-05  2.1340122500851499e-05  2.2584165580461501e-05  2.3840391558388119e-05  2.5106453353947570e-05  2.6379732605077341e-05  2.7657331010135222e-05  2.8936064250039732e-05  3.0212459034705566e-05  3.1482753837859039e-05  3.2742903889185233e-05  3.3988590978471482e-05  3.5215238589385229e-05  3.6418032817224242e-05  3.7591949432659729e-05  3.8731787330553454e-05  3.9832208448845235e-05  4.0887784058952878e-05  4.1893047119480789e-05  4.2842550155222757e-05  4.3730927881763980e-05  4.4552963552727817e-05  4.5303657774467289e-05  4.5978298325082058e-05  4.6572529345441999e-05  4.7082418152561948e-05  4.7504517872210939e-05  4.7835924106767242e-05  4.8074323951162927e-05  4.8218035844625030e-05  4.8266038994068250e-05  4.8217991416590014e-05  4.8074236009260604e-05  4.7835794446008435e-05  4.7504349103692004e-05  4.7082213610897831e-05  4.6572292973463815e-05  4.5978034541918451e-05  4.5303371333714499e-05  4.4552659397541760e-05  4.3730611003338585e-05  4.2842225460434814e-05  4.1892719312424625e-05  4.0887457539930880e-05  3.9831887233059155e-05  3.8731474987527540e-05  3.7591649046273540e-05  3.6417746965264741e-05  3.5214969340781571e-05  3.3988339905827755e-05  3.2742672093924045e-05  3.1482541985170625e-05  3.0212267395553709e-05  2.8935892747646038e-05  2.7657179268655682e-05  2.6379599998507800e-05  2.5106339053664617e-05  2.3840294578065312e-05  2.2584084817499225e-05  2.1340056773680808e-05  2.0110296926087585e-05  1.8896643549474209e-05  1.7700700200169398e-05  1.6523849992184914e-05  1.5367270332720477e-05  1.4231947834195282e-05  1.3118693165338786e-05  1.2028155646070606e-05  1.0960837429546201e-05  9.9171071493472664e-06  8.8972129403801942e-06  7.9012947685751300e-06  6.9293960271921538e-06  5.9814743765954426e-06  5.0574118199376975e-06  4.1570240182363212e-06  3.2800688449750995e-06  2.4262540837226660e-06  1.5952434179881703e-06  7.8665460937571100e-07  0.0000000000000000e+00  0.0000000000000000e+00  1.1956750855722834e-06  2.4262359306850513e-06  3.6923814668331563e-06  4.9948539645180552e-06  6.3342896775662129e-06  7.7112761755109979e-06  9.1263279432160286e-06  1.0579876546512679e-05  1.2072257497118336e-05  1.3603695357016733e-05  1.5174287463453377e-05  1.6783986269068414e-05  1.8432580283252922e-05  2.0119673624111683e-05  2.1844664220196178e-05  2.3606720737400538e-05  2.5404758349859925e-05  2.7237413524753848e-05  2.9103018049983772e-05  3.0999572600951347e-05  3.2924720217767815e-05  3.4875720146691534e-05  3.6849422588029137e-05  3.8842244985548929e-05  4.0850150586654058e-05  4.2868630095095319e-05  4.4892687323966537e-05  4.6916829831053214e-05  4.8935065574862921e-05  5.0940906660605043e-05  5.2927381243701210e-05  5.4887054615748642e-05  5.6812060407375111e-05  5.8694142696785538e-05  6.0524709607847124e-05  6.2294898714442110e-05  6.3995654239693535e-05  6.5617815654685793e-05  6.7152216851129809e-05  6.8589794600819648e-05  6.9921704541588668e-05  7.1139442468426073e-05  7.2234968287210205e-05  7.3200829635264436e-05  7.4030281916689342e-05  7.4717401365667085e-05  7.5257187758200942e-05  7.5645653553577384e-05  7.5879896564134806e-05  7.5958153717221183e-05  7.5879834067718588e-05  7.5645529914317028e-05  7.5257005631092016e-05  7.4717164605932180e-05  7.4029995435575228e-05  7.3200499221148988e-05  7.2234600402030515e-05  7.1139044030328169e-05  6.9921282704717922e-05  6.8589356542526409e-05  6.7151769575466891e-05  6.5617365819414751e-05  6.3995208011824169e-05  6.2294461657361953e-05  6.0524286600948423e-05  5.8693737886813929e-05  5.6811677189186449e-05  5.4886695639088700e-05  5.2927048441927739e-05  5.0940601296893011e-05  4.8934788301383096e-05  4.6916580756897443e-05  4.4892466087868851e-05  4.2868435939658765e-05  4.0849982431254459e-05  3.8842101495768474e-05  3.6849302240001573e-05  3.4875621285270349e-05  3.2924641107932081e-05  3.0999511472148739e-05  2.9102973133541082e-05  2.7237383084595150e-05  2.5404740707030365e-05  2.3606714288946070e-05  2.1844667453039567e-05  2.0119685124559578e-05  1.8432598742796424e-05  1.6784010487065115e-05  1.5174316347275961e-05  1.3603727920172930e-05  1.2072292855798777e-05  1.0579913914966468e-05  9.1263666282897802e-06  7.7113155709909317e-06  6.3343292843663032e-06  4.9948938727523686e-06  3.6924251927853159e-06  2.4262786445590502e-06  1.1957486653956327e-06  0.0000000000000000e+00  0.0000000000000000e+00  1.6154845786026159e-06  3.2800377261909867e-06  4.9948774654595451e-06  6.7610633024167949e-06  8.5797159426753637e-06  1.0451822120089565e-05  1.2378292545874595e-05  1.4359935772449779e-05  1.6397438884834561e-05  1.8491346740905844e-05  2.0642038807221874e-05  2.2849703752925270e-05  2.5114311778315103e-05  2.7435584648227882e-05  2.9812963438182872e-05  3.2245574051443635e-05  3.4732190626823414e-05  3.7271197031494076e-05  3.9860546721192225e-05  4.2497721352637945e-05  4.5179688650177121e-05  4.7902860159920121e-05  5.0663049669061601e-05  5.3455433223107862e-05  5.6274511836025939e-05  5.9114078152719034e-05  6.1967188483011884e-05  6.4826141773048453e-05  6.7682467202988936e-05  7.0526922187603280e-05  7.3349502594770617e-05  7.6139466971676372e-05  7.8885376466130162e-05  8.1575151935874205e-05  8.4196149442533481e-05  8.6735254920644952e-05  8.9178998294865006e-05  9.1513686694688975e-05  9.3725555700447505e-05  9.5800936769355484e-05  9.7726438168650715e-05  9.9489135926602814e-05  1.0107677054875393e-04  1.0247794458984576e-04  1.0368231567391468e-04  1.0468077926503512e-04  1.0546563544872660e-04  1.0603073421464426e-04  1.0637159424300715e-04  1.0648549097836157e-04  1.0637151079167789e-04  1.0603056923392099e-04  1.0546539270380450e-04  1.0468046421204212e-04  1.0368193524351902e-04  1.0247750692005774e-04  1.0107628468277205e-04  9.9488611492707185e-05  9.7725885059019864e-05  9.5800364833408219e-05  9.3724974465941125e-05  9.1513105126807531e-05  8.9178424600214884e-05  8.6734696399637636e-05  8.4195612390669698e-05  8.1574641591575659e-05  7.8884897000773584e-05  7.6139021516027875e-05  7.3349093295069104e-05  7.0526550284326185e-05  6.7682133125433305e-05  6.4825845243516865e-05  6.1966928624928008e-05  5.9113853598174554e-05  5.6274320829025622e-05  5.3455273715749673e-05  5.0662919408812887e-05  4.7902756766846904e-05  4.5179609683641364e-05  4.2497664367492040e-05  3.9860509313874923e-05  3.7271176876723103e-05  3.4732185505737120e-05  3.2245581872174155e-05  2.9812982249854196e-05  2.7435612649375232e-05  2.5114347320662289e-05  2.2849745341396283e-05  2.0642085096968883e-05  1.8491396532052636e-05  1.6397491115536787e-05  1.4359989510845987e-05  1.2378346983538037e-05  1.0451876608766304e-05  8.5797703619359654e-06  6.7611181732668782e-06  4.9949248911513919e-06  3.2801239942981528e-06  1.6155786487006461e-06  0.0000000000000000e+00  0.0000000000000000e+00  2.0461505662091791e-06  4.1570059841621016e-06  6.3343098958034485e-06  8.5797397316088943e-06  1.0894893096022793e-05  1.3281340263595441e-05  1.5740531876930358e-05  1.8273804453196378e-05  2.0882356193041090e-05  2.3567218240287038e-05  2.6329223980021641e-05  2.9168975059146498e-05  3.2086803986689186e-05  3.5082733232235169e-05  3.8156430762088195e-05  4.1307162012288875e-05  4.4533738377394433e-05  4.7834462393125352e-05  5.1207069911681953e-05  5.4648669712434397e-05  5.8155681159071091e-05  6.1723770707682493e-05  6.5347788287910556e-05  6.9021704819056609e-05  7.2738552380896483e-05  7.6490368828195979e-05  8.0268148909715069e-05  8.4061804214209475e-05  8.7860134501984273e-05  9.1650813172379671e-05  9.5420389742498845e-05  9.9154312248253654e-05  1.0283697239389480e-04  1.0645177605912956e-04  1.0998124137959558e-04  1.1340712605540431e-04  1.1671058478130435e-04  1.1987235675022827e-04  1.2287298206490685e-04  1.2569304464025668e-04  1.2831343783688262e-04  1.3071564770328293e-04  1.3288204740182909e-04  1.3479619524123772e-04  1.3644312783087101e-04  1.3780963929832987e-04  1.3888453734588082e-04  1.3965886721545377e-04  1.4012609540449333e-04  1.4028224621325035e-04  1.4012598585279085e-04  1.3965865081510685e-04  1.3888421938489052e-04  1.3780922742147206e-04  1.3644263171676486e-04  1.3479562620571394e-04  1.3288141795263824e-04  1.3071497107243387e-04  1.2831272751672983e-04  1.2569231394676887e-04  1.2287224374747462e-04  1.1987162266230069e-04  1.1670986562076487e-04  1.1340643117843495e-04  1.0998057868694224e-04  1.0645115194949423e-04  1.0283639177690398e-04  9.9153778606760138e-05  9.5419905234015950e-05  9.1650378757863037e-05  8.7859750093465734e-05  8.4061468830313622e-05  8.0267860832995336e-05  7.6490125757320798e-05  7.2738351573266641e-05  6.9021543220598958e-05  6.5347662648115371e-05  6.1723677678939961e-05  5.8155617380214349e-05  5.4648631877108555e-05  5.1207054822506092e-05  4.7834467003016922e-05  4.4533759819514607e-05  4.1307197620168550e-05  3.8156478081456759e-05  3.5082790026002361e-05  3.2086868234396234e-05  2.9169044952109111e-05  2.6329297913185669e-05  2.3567294801720826e-05  2.0882434151994040e-05  1.8273882751025790e-05  1.5740609655277730e-05  1.3281416968239422e-05  1.0894967547422313e-05  8.5798098024096423e-06  6.3343995796271188e-06  4.1571178051776504e-06  2.0462725585373852e-06  0.0000000000000000e+00  0.0000000000000000e+00  2.4877771251001524e-06  5.0574054823962228e-06  7.7113017001007588e-06  1.0451862621389791e-05  1.3281362419478519e-05  1.6202084090684592e-05  1.9216189198609823e-05  2.2325725749481498e-05  2.5532590850716666e-05  2.8838499940460362e-05  3.2244947516631241e-05  3.5753163722912799e-05  3.9364066224192171e-05  4.3078207023161529e-05  4.6895714035125281e-05  5.0816227304154058e-05  5.4838829836226108e-05  5.8961973147699312e-05  6.3183397781909253e-05  6.7500049236422489e-05  7.1907989971387650e-05  7.6402308438136405e-05  8.0977026377299536e-05  8.5625005986310779e-05  9.0337858943428061e-05  9.5105859692148394e-05  9.9917865824676074e-05  1.0476124883928663e-04  1.0962183896384096e-04  1.1448388810324379e-04  1.1933005525848135e-04  1.2414141892858922e-04  1.2889752101191696e-04  1.3357644651284918e-04  1.3815494292396708e-04  1.4260858239330666e-04  1.4691196876332081e-04  1.5103899019296098e-04  1.5496311641471358e-04  1.5865773775561908e-04  1.6209654094493335e-04  1.6525391452995307e-04  1.6810537458174219e-04  1.7062799941485623e-04  1.7280086045669252e-04  1.7460543532150092e-04  1.7602598871568445e-04  1.7704990712488764e-04  1.7766797434946697e-04  1.7787457685016303e-04  1.7766783046039070e-04  1.7704962316499409e-04  1.7602557214275419e-04  1.7460489688841087e-04  1.7280021372591067e-04  1.7062726016607438e-04  1.6810456015181840e-04  1.6525304312657382e-04  1.6209563097502628e-04  1.5865680720352475e-04  1.5496218229758832e-04  1.5103806811424901e-04  1.4691107257368087e-04  1.4260772396399110e-04  1.3815413202613870e-04  1.3357569079351742e-04  1.2889682605276960e-04  1.2414078837172276e-04  1.1932949097863912e-04  1.1448339041647043e-04  1.0962140685113629e-04  1.0476088017676941e-04  9.9917557608761315e-05  9.5105608251955630e-05  9.0337660134235957e-05  8.5624855361639813e-05  8.0976919337252245e-05  7.6402240353948473e-05  7.1907956286968613e-05  6.7500045548414664e-05  6.3183419900330795e-05  5.8962017139455554e-05  5.4838892053925647e-05  5.0816304402556244e-05  4.6895802977489341e-05  4.3078305079511854e-05  3.9364170963342446e-05  3.5753272999816527e-05  3.2245059456432433e-05  2.8838612920685442e-05  2.5532703486112241e-05  2.2325836892555877e-05  1.9216297863766465e-05  1.6202188919848408e-05  1.3281464959907434e-05  1.0451963893793557e-05  7.7114333970660968e-06  5.0575522730650933e-06  2.4879328291157902e-06  0.0000000000000000e+00  0.0000000000000000e+00  2.9404400359754087e-06  5.9814807394385487e-06  9.1263710391095274e-06  1.2378333036585958e-05  1.5740583350088271e-05  1.9216212441453020e-05  2.2808333580638595e-05  2.6519900179991306e-05  3.0353733451592628e-05  3.4312468525876556e-05  3.8398509284454914e-05  4.2613975425284700e-05  4.6960642732041869e-05  5.1439876434080719e-05  5.6052557192543330e-05  6.0798999384119829e-05  6.5678861466590151e-05  7.0691048350615481e-05  7.5833605887279805e-05  8.1103607816857446e-05  8.6497035817031343e-05  9.2008653644005123e-05  9.7631876781582478e-05  1.0335863950345686e-04  1.0917926181004366e-04  1.1508231931827517e-04  1.2105451984686339e-04  1.2708059113121571e-04  1.3314318479437759e-04  1.3922280235267954e-04  1.4529774959197027e-04  1.5134412607170037e-04  1.5733585673059934e-04  1.6324477241600174e-04  1.6904074581248913e-04  1.7469188825417064e-04  1.8016481161723635e-04  1.8542495755330561e-04  1.9043699397282139e-04  1.9516527576819335e-04  1.9957436357778566e-04  2.0362959093562366e-04  2.0729766665030406e-04  2.1054729607681582e-04  2.1334980216819490e-04  2.1567972525596841e-04  2.1751537955426984e-04  2.1883934462836607e-04  2.1963887164692288e-04  2.1990618705703343e-04  2.1963868034715882e-04  2.1883896749645099e-04  2.1751482725026574e-04  2.1567901310422488e-04  2.1334894941561034e-04  2.1054632499611329e-04  2.0729660154533616e-04  2.0362845712296914e-04  1.9957318640534272e-04  1.9516407972173903e-04  1.9043580191632751e-04  1.8542379011859297e-04  1.8016368677154019e-04  1.7469082103412005e-04  1.6903974821157097e-04  1.6324385341965245e-04  1.5733502245854277e-04  1.5134338001067055e-04  1.4529709288144127e-04  1.3922223411892652e-04  1.3314270248173020e-04  1.2708019084244768e-04  1.2105419666315551e-04  1.1508206759086734e-04  1.0917907542058660e-04  1.0335851208848998e-04  9.7631801920280682e-05  9.2008625010685436e-05  8.6497047300758995e-05  8.1103653611269328e-05  7.5833680554407347e-05  7.0691146862404444e-05  6.5678979227885807e-05  6.0799132240596605e-05  5.6052701426755706e-05  5.1440028752423791e-05  4.6960800245070097e-05  4.2614135623416092e-05  3.8398670011118202e-05  3.4312627951393215e-05  3.0353890043853352e-05  2.6520052597728575e-05  2.2808480742775886e-05  1.9216355465236012e-05  1.5740715042364743e-05  1.2378491315434508e-05  9.1265409863228271e-06  5.9816702222056312e-06  2.9406363433387798e-06  0.0000000000000000e+00  0.0000000000000000e+00  3.4041858632636132e-06  6.9294170373175696e-06  1.0579935102244990e-05  1.4359994092816662e-05  1.8273863708905160e-05  2.2325780524934853e-05  2.6519926273393915e-05  3.0860448910755451e-05  3.5351345108738171e-05  3.9996447737249648e-05  4.4799366743043746e-05  4.9763425812691020e-05  5.4891591124920687e-05  6.0186390441815959e-05  6.5649822165765435e-05  7.1283253732186400e-05  7.7087308796306914e-05  8.3061742829497454e-05  8.9205306947637565e-05  9.5515600069526806e-05  1.0198890985959874e-04  1