<?xml version="1.0"?>
<VTKFile type="UnstructuredGrid"  version="0.1"  >
<UnstructuredGrid>
<Piece  NumberOfPoints="10201" NumberOfCells="20000">
<Points>
<DataArray  type="Float64"  NumberOfComponents="3"  format="ascii">0 0 0  0.01 0 0  0.02 0 0  0.03 0 0  0.04 0 0  0.05 0 0  0.06 0 0  0.07000000000000001 0 0  0.08 0 0  0.09 0 0  0.1 0 0  0.11 0 0  0.12 0 0  0.13 0 0  0.14 0 0  0.15 0 0  0.16 0 0  0.17 0 0  0.18 0 0  0.19 0 0  0.2 0 0  0.21 0 0  0.22 0 0  0.23 0 0  0.24 0 0  0.25 0 0  0.26 0 0  0.27 0 0  0.28 0 0  0.29 0 0  0.3 0 0  0.31 0 0  0.32 0 0  0.33 0 0  0.34 0 0  0.35 0 0  0.36 0 0  0.37 0 0  0.38 0 0  0.39 0 0  0.4 0 0  0.41 0 0  0.42 0 0  0.43 0 0  0.44 0 0  0.45 0 0  0.46 0 0  0.47 0 0  0.48 0 0  0.49 0 0  0.5 0 0  0.51 0 0  0.52 0 0  0.53 0 0  0.54 0 0  0.55 0 0  0.5600000000000001 0 0  0.57 0 0  0.58 0 0  0.59 0 0  0.6 0 0  0.61 0 0  0.62 0 0  0.63 0 0  0.64 0 0  0.65 0 0  0.66 0 0  0.67 0 0  0.68 0 0  0.6899999999999999 0 0  0.7 0 0  0.71 0 0  0.72 0 0  0.73 0 0  0.74 0 0  0.75 0 0  0.76 0 0  0.77 0 0  0.78 0 0  0.79 0 0  0.8 0 0  0.8100000000000001 0 0  0.82 0 0  0.83 0 0  0.84 0 0  0.85 0 0  0.86 0 0  0.87 0 0  0.88 0 0  0.89 0 0  0.9 0 0  0.91 0 0  0.92 0 0  0.93 0 0  0.9399999999999999 0 0  0.95 0 0  0.96 0 0  0.97 0 0  0.98 0 0  0.99 0 0  1 0 0  0 0.01 0  0.01 0.01 0  0.02 0.01 0  0.03 0.01 0  0.04 0.01 0  0.05 0.01 0  0.06 0.01 0  0.07000000000000001 0.01 0  0.08 0.01 0  0.09 0.01 0  0.1 0.01 0  0.11 0.01 0  0.12 0.01 0  0.13 0.01 0  0.14 0.01 0  0.15 0.01 0  0.16 0.01 0  0.17 0.01 0  0.18 0.01 0  0.19 0.01 0  0.2 0.01 0  0.21 0.01 0  0.22 0.01 0  0.23 0.01 0  0.24 0.01 0  0.25 0.01 0  0.26 0.01 0  0.27 0.01 0  0.28 0.01 0  0.29 0.01 0  0.3 0.01 0  0.31 0.01 0  0.32 0.01 0  0.33 0.01 0  0.34 0.01 0  0.35 0.01 0  0.36 0.01 0  0.37 0.01 0  0.38 0.01 0  0.39 0.01 0  0.4 0.01 0  0.41 0.01 0  0.42 0.01 0  0.43 0.01 0  0.44 0.01 0  0.45 0.01 0  0.46 0.01 0  0.47 0.01 0  0.48 0.01 0  0.49 0.01 0  0.5 0.01 0  0.51 0.01 0  0.52 0.01 0  0.53 0.01 0  0.54 0.01 0  0.55 0.01 0  0.5600000000000001 0.01 0  0.57 0.01 0  0.58 0.01 0  0.59 0.01 0  0.6 0.01 0  0.61 0.01 0  0.62 0.01 0  0.63 0.01 0  0.64 0.01 0  0.65 0.01 0  0.66 0.01 0  0.67 0.01 0  0.68 0.01 0  0.6899999999999999 0.01 0  0.7 0.01 0  0.71 0.01 0  0.72 0.01 0  0.73 0.01 0  0.74 0.01 0  0.75 0.01 0  0.76 0.01 0  0.77 0.01 0  0.78 0.01 0  0.79 0.01 0  0.8 0.01 0  0.8100000000000001 0.01 0  0.82 0.01 0  0.83 0.01 0  0.84 0.01 0  0.85 0.01 0  0.86 0.01 0  0.87 0.01 0  0.88 0.01 0  0.89 0.01 0  0.9 0.01 0  0.91 0.01 0  0.92 0.01 0  0.93 0.01 0  0.9399999999999999 0.01 0  0.95 0.01 0  0.96 0.01 0  0.97 0.01 0  0.98 0.01 0  0.99 0.01 0  1 0.01 0  0 0.02 0  0.01 0.02 0  0.02 0.02 0  0.03 0.02 0  0.04 0.02 0  0.05 0.02 0  0.06 0.02 0  0.07000000000000001 0.02 0  0.08 0.02 0  0.09 0.02 0  0.1 0.02 0  0.11 0.02 0  0.12 0.02 0  0.13 0.02 0  0.14 0.02 0  0.15 0.02 0  0.16 0.02 0  0.17 0.02 0  0.18 0.02 0  0.19 0.02 0  0.2 0.02 0  0.21 0.02 0  0.22 0.02 0  0.23 0.02 0  0.24 0.02 0  0.25 0.02 0  0.26 0.02 0  0.27 0.02 0  0.28 0.02 0  0.29 0.02 0  0.3 0.02 0  0.31 0.02 0  0.32 0.02 0  0.33 0.02 0  0.34 0.02 0  0.35 0.02 0  0.36 0.02 0  0.37 0.02 0  0.38 0.02 0  0.39 0.02 0  0.4 0.02 0  0.41 0.02 0  0.42 0.02 0  0.43 0.02 0  0.44 0.02 0  0.45 0.02 0  0.46 0.02 0  0.47 0.02 0  0.48 0.02 0  0.49 0.02 0  0.5 0.02 0  0.51 0.02 0  0.52 0.02 0  0.53 0.02 0  0.54 0.02 0  0.55 0.02 0  0.5600000000000001 0.02 0  0.57 0.02 0  0.58 0.02 0  0.59 0.02 0  0.6 0.02 0  0.61 0.02 0  0.62 0.02 0  0.63 0.02 0  0.64 0.02 0  0.65 0.02 0  0.66 0.02 0  0.67 0.02 0  0.68 0.02 0  0.6899999999999999 0.02 0  0.7 0.02 0  0.71 0.02 0  0.72 0.02 0  0.73 0.02 0  0.74 0.02 0  0.75 0.02 0  0.76 0.02 0  0.77 0.02 0  0.78 0.02 0  0.79 0.02 0  0.8 0.02 0  0.8100000000000001 0.02 0  0.82 0.02 0  0.83 0.02 0  0.84 0.02 0  0.85 0.02 0  0.86 0.02 0  0.87 0.02 0  0.88 0.02 0  0.89 0.02 0  0.9 0.02 0  0.91 0.02 0  0.92 0.02 0  0.93 0.02 0  0.9399999999999999 0.02 0  0.95 0.02 0  0.96 0.02 0  0.97 0.02 0  0.98 0.02 0  0.99 0.02 0  1 0.02 0  0 0.03 0  0.01 0.03 0  0.02 0.03 0  0.03 0.03 0  0.04 0.03 0  0.05 0.03 0  0.06 0.03 0  0.07000000000000001 0.03 0  0.08 0.03 0  0.09 0.03 0  0.1 0.03 0  0.11 0.03 0  0.12 0.03 0  0.13 0.03 0  0.14 0.03 0  0.15 0.03 0  0.16 0.03 0  0.17 0.03 0  0.18 0.03 0  0.19 0.03 0  0.2 0.03 0  0.21 0.03 0  0.22 0.03 0  0.23 0.03 0  0.24 0.03 0  0.25 0.03 0  0.26 0.03 0  0.27 0.03 0  0.28 0.03 0  0.29 0.03 0  0.3 0.03 0  0.31 0.03 0  0.32 0.03 0  0.33 0.03 0  0.34 0.03 0  0.35 0.03 0  0.36 0.03 0  0.37 0.03 0  0.38 0.03 0  0.39 0.03 0  0.4 0.03 0  0.41 0.03 0  0.42 0.03 0  0.43 0.03 0  0.44 0.03 0  0.45 0.03 0  0.46 0.03 0  0.47 0.03 0  0.48 0.03 0  0.49 0.03 0  0.5 0.03 0  0.51 0.03 0  0.52 0.03 0  0.53 0.03 0  0.54 0.03 0  0.55 0.03 0  0.5600000000000001 0.03 0  0.57 0.03 0  0.58 0.03 0  0.59 0.03 0  0.6 0.03 0  0.61 0.03 0  0.62 0.03 0  0.63 0.03 0  0.64 0.03 0  0.65 0.03 0  0.66 0.03 0  0.67 0.03 0  0.68 0.03 0  0.6899999999999999 0.03 0  0.7 0.03 0  0.71 0.03 0  0.72 0.03 0  0.73 0.03 0  0.74 0.03 0  0.75 0.03 0  0.76 0.03 0  0.77 0.03 0  0.78 0.03 0  0.79 0.03 0  0.8 0.03 0  0.8100000000000001 0.03 0  0.82 0.03 0  0.83 0.03 0  0.84 0.03 0  0.85 0.03 0  0.86 0.03 0  0.87 0.03 0  0.88 0.03 0  0.89 0.03 0  0.9 0.03 0  0.91 0.03 0  0.92 0.03 0  0.93 0.03 0  0.9399999999999999 0.03 0  0.95 0.03 0  0.96 0.03 0  0.97 0.03 0  0.98 0.03 0  0.99 0.03 0  1 0.03 0  0 0.04 0  0.01 0.04 0  0.02 0.04 0  0.03 0.04 0  0.04 0.04 0  0.05 0.04 0  0.06 0.04 0  0.07000000000000001 0.04 0  0.08 0.04 0  0.09 0.04 0  0.1 0.04 0  0.11 0.04 0  0.12 0.04 0  0.13 0.04 0  0.14 0.04 0  0.15 0.04 0  0.16 0.04 0  0.17 0.04 0  0.18 0.04 0  0.19 0.04 0  0.2 0.04 0  0.21 0.04 0  0.22 0.04 0  0.23 0.04 0  0.24 0.04 0  0.25 0.04 0  0.26 0.04 0  0.27 0.04 0  0.28 0.04 0  0.29 0.04 0  0.3 0.04 0  0.31 0.04 0  0.32 0.04 0  0.33 0.04 0  0.34 0.04 0  0.35 0.04 0  0.36 0.04 0  0.37 0.04 0  0.38 0.04 0  0.39 0.04 0  0.4 0.04 0  0.41 0.04 0  0.42 0.04 0  0.43 0.04 0  0.44 0.04 0  0.45 0.04 0  0.46 0.04 0  0.47 0.04 0  0.48 0.04 0  0.49 0.04 0  0.5 0.04 0  0.51 0.04 0  0.52 0.04 0  0.53 0.04 0  0.54 0.04 0  0.55 0.04 0  0.5600000000000001 0.04 0  0.57 0.04 0  0.58 0.04 0  0.59 0.04 0  0.6 0.04 0  0.61 0.04 0  0.62 0.04 0  0.63 0.04 0  0.64 0.04 0  0.65 0.04 0  0.66 0.04 0  0.67 0.04 0  0.68 0.04 0  0.6899999999999999 0.04 0  0.7 0.04 0  0.71 0.04 0  0.72 0.04 0  0.73 0.04 0  0.74 0.04 0  0.75 0.04 0  0.76 0.04 0  0.77 0.04 0  0.78 0.04 0  0.79 0.04 0  0.8 0.04 0  0.8100000000000001 0.04 0  0.82 0.04 0  0.83 0.04 0  0.84 0.04 0  0.85 0.04 0  0.86 0.04 0  0.87 0.04 0  0.88 0.04 0  0.89 0.04 0  0.9 0.04 0  0.91 0.04 0  0.92 0.04 0  0.93 0.04 0  0.9399999999999999 0.04 0  0.95 0.04 0  0.96 0.04 0  0.97 0.04 0  0.98 0.04 0  0.99 0.04 0  1 0.04 0  0 0.05 0  0.01 0.05 0  0.02 0.05 0  0.03 0.05 0  0.04 0.05 0  0.05 0.05 0  0.06 0.05 0  0.07000000000000001 0.05 0  0.08 0.05 0  0.09 0.05 0  0.1 0.05 0  0.11 0.05 0  0.12 0.05 0  0.13 0.05 0  0.14 0.05 0  0.15 0.05 0  0.16 0.05 0  0.17 0.05 0  0.18 0.05 0  0.19 0.05 0  0.2 0.05 0  0.21 0.05 0  0.22 0.05 0  0.23 0.05 0  0.24 0.05 0  0.25 0.05 0  0.26 0.05 0  0.27 0.05 0  0.28 0.05 0  0.29 0.05 0  0.3 0.05 0  0.31 0.05 0  0.32 0.05 0  0.33 0.05 0  0.34 0.05 0  0.35 0.05 0  0.36 0.05 0  0.37 0.05 0  0.38 0.05 0  0.39 0.05 0  0.4 0.05 0  0.41 0.05 0  0.42 0.05 0  0.43 0.05 0  0.44 0.05 0  0.45 0.05 0  0.46 0.05 0  0.47 0.05 0  0.48 0.05 0  0.49 0.05 0  0.5 0.05 0  0.51 0.05 0  0.52 0.05 0  0.53 0.05 0  0.54 0.05 0  0.55 0.05 0  0.5600000000000001 0.05 0  0.57 0.05 0  0.58 0.05 0  0.59 0.05 0  0.6 0.05 0  0.61 0.05 0  0.62 0.05 0  0.63 0.05 0  0.64 0.05 0  0.65 0.05 0  0.66 0.05 0  0.67 0.05 0  0.68 0.05 0  0.6899999999999999 0.05 0  0.7 0.05 0  0.71 0.05 0  0.72 0.05 0  0.73 0.05 0  0.74 0.05 0  0.75 0.05 0  0.76 0.05 0  0.77 0.05 0  0.78 0.05 0  0.79 0.05 0  0.8 0.05 0  0.8100000000000001 0.05 0  0.82 0.05 0  0.83 0.05 0  0.84 0.05 0  0.85 0.05 0  0.86 0.05 0  0.87 0.05 0  0.88 0.05 0  0.89 0.05 0  0.9 0.05 0  0.91 0.05 0  0.92 0.05 0  0.93 0.05 0  0.9399999999999999 0.05 0  0.95 0.05 0  0.96 0.05 0  0.97 0.05 0  0.98 0.05 0  0.99 0.05 0  1 0.05 0  0 0.06 0  0.01 0.06 0  0.02 0.06 0  0.03 0.06 0  0.04 0.06 0  0.05 0.06 0  0.06 0.06 0  0.07000000000000001 0.06 0  0.08 0.06 0  0.09 0.06 0  0.1 0.06 0  0.11 0.06 0  0.12 0.06 0  0.13 0.06 0  0.14 0.06 0  0.15 0.06 0  0.16 0.06 0  0.17 0.06 0  0.18 0.06 0  0.19 0.06 0  0.2 0.06 0  0.21 0.06 0  0.22 0.06 0  0.23 0.06 0  0.24 0.06 0  0.25 0.06 0  0.26 0.06 0  0.27 0.06 0  0.28 0.06 0  0.29 0.06 0  0.3 0.06 0  0.31 0.06 0  0.32 0.06 0  0.33 0.06 0  0.34 0.06 0  0.35 0.06 0  0.36 0.06 0  0.37 0.06 0  0.38 0.06 0  0.39 0.06 0  0.4 0.06 0  0.41 0.06 0  0.42 0.06 0  0.43 0.06 0  0.44 0.06 0  0.45 0.06 0  0.46 0.06 0  0.47 0.06 0  0.48 0.06 0  0.49 0.06 0  0.5 0.06 0  0.51 0.06 0  0.52 0.06 0  0.53 0.06 0  0.54 0.06 0  0.55 0.06 0  0.5600000000000001 0.06 0  0.57 0.06 0  0.58 0.06 0  0.59 0.06 0  0.6 0.06 0  0.61 0.06 0  0.62 0.06 0  0.63 0.06 0  0.64 0.06 0  0.65 0.06 0  0.66 0.06 0  0.67 0.06 0  0.68 0.06 0  0.6899999999999999 0.06 0  0.7 0.06 0  0.71 0.06 0  0.72 0.06 0  0.73 0.06 0  0.74 0.06 0  0.75 0.06 0  0.76 0.06 0  0.77 0.06 0  0.78 0.06 0  0.79 0.06 0  0.8 0.06 0  0.8100000000000001 0.06 0  0.82 0.06 0  0.83 0.06 0  0.84 0.06 0  0.85 0.06 0  0.86 0.06 0  0.87 0.06 0  0.88 0.06 0  0.89 0.06 0  0.9 0.06 0  0.91 0.06 0  0.92 0.06 0  0.93 0.06 0  0.9399999999999999 0.06 0  0.95 0.06 0  0.96 0.06 0  0.97 0.06 0  0.98 0.06 0  0.99 0.06 0  1 0.06 0  0 0.07000000000000001 0  0.01 0.07000000000000001 0  0.02 0.07000000000000001 0  0.03 0.07000000000000001 0  0.04 0.07000000000000001 0  0.05 0.07000000000000001 0  0.06 0.07000000000000001 0  0.07000000000000001 0.07000000000000001 0  0.08 0.07000000000000001 0  0.09 0.07000000000000001 0  0.1 0.07000000000000001 0  0.11 0.07000000000000001 0  0.12 0.07000000000000001 0  0.13 0.07000000000000001 0  0.14 0.07000000000000001 0  0.15 0.07000000000000001 0  0.16 0.07000000000000001 0  0.17 0.0700
[...]
<PointData  Scalars="Indicator Function"> 
<DataArray  type="Float64"  Name="Indicator Function"  format="ascii">-2.4074124304840448e-35  -4.5907394706451115e-20  -5.2622520915697738e-20  -2.2971556485046444e-20  3.0394951410897593e-19  -2.8035005568122022e-20  -2.2472586851066177e-20  6.6331316653545222e-19  7.9285229598959280e-19  -2.4467415284179260e-21  3.6944254192344569e-18  4.2309730545677361e-19  -2.5477152582562156e-20  -3.0432796564679358e-20  8.0296751623542068e-18  -6.4684176851560430e-21  2.4450282497103580e-34  1.8542852112606380e-18  -3.3593707638843684e-20  9.0277966143151681e-36  7.5390284609321618e-18  0.0000000000000000e+00  -3.4058338991494296e-20  8.6511718088648826e-18  -3.6819598391925642e-20  -2.2424143175446534e-20  -1.7155488539926143e-20  -4.0091321928433080e-20  4.0339901510892071e-17  -1.6115303317352971e-20  -6.6246439387250448e-20  -2.4731054426610597e-20  -4.2447604988719294e-20  -3.0803951656011513e-20  1.7478939598903114e-18  -6.7644600219992863e-20  -9.8146132837853695e-20  -1.1570090125761930e-19  -1.2235549525842425e-19  -1.2018384192313275e-19  8.1841973729265726e-18  -5.3747543703731419e-20  -2.2366325702132164e-20  -2.8897255894825969e-20  -2.7648925005532090e-20  -1.9254955436356743e-20  1.3885395052410266e-17  -1.4926910325283565e-20  -1.0096475133605932e-20  -9.2615118377432100e-21  -1.1859591221225954e-20  -1.1499663485729775e-20  -8.3838658291961769e-21  -1.1750689120326870e-20  -7.2277875208341146e-21  -4.5138983071575840e-36  2.8888949165808538e-33  0.0000000000000000e+00  -4.7019774032891500e-38  0.0000000000000000e+00  1.1754943508222875e-38  3.5264830524668625e-38  -2.1174811946694785e-23  -7.8045398874134566e-23  -9.0645067022185720e-23  -9.9604672702825905e-23  -1.4655305215192912e-22  -1.7939658140541681e-22  1.3261476370319354e-20  -1.2062964292835933e-22  -1.3973737529520216e-22  -5.1814901541976993e-22  -9.1089493088504513e-22  -9.1836658452048551e-22  -1.7283201280504787e-21  -3.0779044517348267e-21  -1.5465265982175509e-21  -9.9907905911768507e-22  -1.2435243109291068e-21  -3.3695601735740912e-22  -3.4298281024462110e-22  -1.4612892318365808e-20  -4.3175235380501699e-22  -1.3086531178462138e-22  -1.9662386424019395e-21  -9.9673769217643416e-22  -1.6406901706676231e-22  -1.1754943508222875e-38  -1.4693679385278594e-38  -6.1846219438968262e-24  -7.3135254461036165e-24  -3.6496514294917052e-24  -2.1129367373649797e-25  8.2082654701228491e-23  -1.8367099231598242e-40  2.7550648847397363e-39  2.7550648847397363e-39  1.3775324423698682e-39  -9.1835496157991212e-41  5.0509522886895166e-40  1.8367099231598242e-40  -2.2396090215923845e-20  3.7704744181576663e-04  2.1414987526093674e-04  1.0958285174952198e-04  3.1511958981876820e-04  2.1488213834744381e-04  3.9759269334597449e-04  2.0603378840106456e-04  6.2619217377826838e-04  8.8153153885238653e-05  1.2947073203446321e-05  4.0609901595510718e-04  6.3351345981186116e-04  1.4219884960322209e-04  4.7712910027251481e-04  1.1379112834932452e-04  5.9629089731519633e-05  6.6661144058933791e-04  1.5532253392647749e-04  6.0517043681715919e-04  6.5687551881445528e-05  3.2027259163250343e-04  9.3526698903930442e-05  5.6677714171184644e-04  2.6694862497589155e-04  8.0791490279234898e-04  6.1809161436616122e-04  7.3529373970828056e-04  3.5457418013658357e-04  5.8061499211994644e-04  6.0471923790973877e-04  8.9103014000130331e-04  5.6163275433259970e-04  4.8385169487356509e-04  3.1298881336142427e-04  4.9683970721870103e-04  9.7015693176819354e-04  1.2829650832215551e-03  1.4427996015502014e-03  1.4827608506351871e-03  1.4236591974863076e-03  1.1374738237798843e-03  3.9949275929487452e-04  4.0291590439107830e-04  3.1910873132433320e-04  6.9373288102572684e-04  6.0893827691111400e-04  5.3779862222991888e-04  3.6376385319570508e-04  1.9636632073764666e-04  1.6684056504539101e-04  3.9226202916550204e-04  1.1028506174123880e-05  1.5103030009716852e-04  1.3616644652601821e-04  6.2121021479157425e-05  5.2901564863360514e-05  2.3863213143307191e-05  9.2319967039866023e-06  3.6984530988354919e-06  1.9091935979145527e-06  1.9120199353726437e-06  1.2482418506702537e-06  8.2655511760583892e-07  1.6136925988486556e-06  2.7643714806650433e-06  2.9360292597389493e-06  2.3825734206980864e-06  2.9192513122259343e-06  3.4673581719071007e-06  2.3578765437461493e-06  4.5173000801152585e-06  1.2450071474025804e-05  1.5422236902677867e-05  1.8002351459668268e-05  3.3145209251542406e-05  3.8873992741888612e-05  8.4227500748601806e-06  2.0522445079234652e-05  1.2140119953688588e-05  2.4457944260275729e-06  4.9557318126348830e-06  6.1256784074777611e-06  4.7149197551115552e-06  2.0518540316111154e-05  2.5161336310915797e-05  5.3749618408297626e-06  2.6812373608477470e-07  1.3643205720156154e-06  2.1830867143637343e-07  1.1141224432784434e-07  7.6042639731425194e-08  4.9321032230816424e-08  3.0661532921249455e-08  2.4850380025937591e-08  2.0898697701627582e-08  1.8571330808943984e-08  1.4861880620652014e-08  1.1599661410307006e-08  6.4829164178378106e-09  -6.4284847310593848e-39  -1.5650860425575312e-20  4.0345209420396245e-04  1.3724898772912261e-04  8.1745359476627756e-05  6.4736874264312703e-05  4.5360116913839392e-04  4.8169527061130607e-04  5.5549830894308148e-04  6.7225653275025015e-04  8.6256063251184288e-05  4.4930785591153238e-04  3.4456779900721629e-04  3.9695386125433176e-04  9.6333027707916059e-04  5.4197066784725451e-04  4.3266363181724296e-04  1.0749991955656146e-03  1.3915804744667702e-04  5.5225030410717359e-04  7.0105588756624339e-04  3.5270578643801701e-04  1.3336598309963790e-03  8.8941409827598928e-04  1.4558161994351574e-03  7.8842919388693493e-04  9.5076565478809843e-04  1.1387848928396912e-04  4.2949819988996835e-04  1.5468080944403945e-03  9.5973460478738875e-04  3.0348930166684574e-04  1.5270556380865402e-03  2.0517051368376825e-04  1.1129368902906874e-03  4.4576391703921053e-04  1.3684445958273892e-04  1.2849102344602559e-03  1.6413911679804504e-03  1.9593441156251679e-03  2.1002373360491664e-03  2.0604306475231066e-03  1.8206031536736639e-03  1.2048635157328024e-03  2.8760011227414462e-04  9.6165531038221131e-04  8.0070414659004670e-04  6.3097567131772730e-04  9.2224049599315199e-04  6.7489921185503305e-04  4.9144447371601748e-05  3.5639412435821275e-04  3.9524591584032812e-04  4.2947121818975539e-04  3.5211322580694783e-04  2.1046614718856396e-04  9.0747480533580053e-05  5.6792686503689264e-05  6.1977490122577404e-05  2.2009424396114980e-05  8.7720488076870671e-06  3.1397000203602184e-06  2.0126993773023073e-06  1.0910460927068269e-06  2.0141391067002426e-07  7.6097867962302593e-07  2.1423854327362852e-06  2.8406830845394442e-06  2.9920846551870292e-06  3.4932349838735500e-06  3.7078393013459825e-06  2.4432820298076649e-06  2.4476872432299011e-06  1.1040369418167761e-05  2.0594898190723217e-05  2.0866294613166768e-05  3.3741438287398935e-05  5.7862450774898111e-05  4.3529880508865597e-05  1.4669415460361289e-05  3.2539639293458647e-05  7.6904741288435157e-06  9.4982346492786126e-06  8.9567294958964650e-06  1.2910215837212430e-05  6.4531792375742497e-06  4.0565215846289900e-05  2.5180601891234183e-05  1.5839256487289515e-06  4.7579534618291800e-07  8.5736455030483772e-07  9.4687505449231095e-08  1.5414628191198976e-07  9.4390738862439157e-08  5.5863368266081881e-08  4.1318588096800628e-08  3.4543820251107546e-08  2.9641131596635730e-08  2.5755273135023288e-08  2.0376972645414276e-08  1.2473109634010043e-08  7.3468396926392969e-40  -1.6985779390915203e-20  2.8194083672259497e-04  4.1619153826237760e-04  3.9951606494914536e-05  4.1286490565138097e-04  5.6276256686953879e-04  4.5582121898945241e-04  7.2126205656623799e-04  1.2502756508371964e-04  1.2920285535186419e-03  4.8684423456895904e-04  2.1952668851628863e-05  9.9520063478348024e-04  9.2839866511932538e-04  2.3550725087005835e-05  1.1188185545665023e-03  4.1955729387955809e-04  4.8382286564222437e-04  1.1891985090006398e-03  7.2108415264469266e-04  1.6014087233718719e-03  6.3246658474816616e-04  1.1424886978182425e-03  5.2705124274994933e-04  1.6645154788783563e-03  1.4177225266608074e-03  2.1172750185386559e-03  1.7213331609296737e-03  1.5297029817849409e-03  8.4899332707096930e-04  1.8747333451152753e-03  1.3309118218942013e-03  1.8933104671061635e-03  1.7925489440328221e-03  9.6358897180148014e-04  2.3941301291890570e-04  1.2150269423231799e-03  1.8297230888446676e-03  2.0953875706095533e-03  2.3264883748878311e-03  2.4020179210918454e-03  2.2856033864555674e-03  1.7220678058312842e-03  4.1193415511860744e-04  9.3236410037945484e-04  5.8438347731823025e-04  1.9564046827333179e-03  1.4485657930140491e-03  1.0419786221871289e-03  8.0886425671468072e-04  7.0179672162103016e-04  6.1445569500161526e-04  9.6936085628037403e-04  9.9932165572384475e-05  4.5615978207456199e-04  1.6219381920442243e-04  1.4607248973052232e-05  7.3380477814828087e-05  5.1095201845246725e-05  1.9333072166980595e-05  8.8585583533139191e-06  3.7440005882477255e-06  1.9203684427967949e-06  9.6025435724089454e-07  5.4098745237129615e-07  1.5552829438957954e-06  2.9574772654023649e-06  3.8802678135974055e-06  3.6907526487416223e-06  3.2676215441038408e-06  3.2676874227375963e-06  2.1116505935088354e-06  6.0666638205983419e-06  1.8889959501593651e-05  2.2801212045949793e-05  2.5975063758529490e-05  5.2124159233535446e-05  6.6412862713444805e-05  1.7785247285206116e-05  3.7103052012538259e-05  2.7555106610759046e-05  2.6685320393471444e-06  1.1866588162690250e-05  1.3207331697750219e-05  1.0104244763364370e-05  3.0895316946458575e-05  4.3239015921279063e-05  1.2885984322766244e-05  2.2029854216807178e-07  4.2631335058283314e-07  7.6957612402877883e-08  2.9178129102354101e-07  1.8504550977095046e-07  1.0279372863778683e-07  6.2812858686116059e-08  4.9253831137852509e-08  4.0820141382801499e-08  3.4393386271472550e-08  2.6521260772682212e-08  1.7848944413899733e-08  1.0652917554326981e-38  -1.9133305480639827e-20  3.0598859894209312e-04  4.1048158254511369e-04  1.1018580367847825e-04  1.4219691574248697e-04  5.0334917438564063e-04  7.9647738085053565e-04  1.0648117064742445e-03  9.0133104336679584e-04  5.2814794304152180e-04  7.7698885792997884e-05  4.5010384161316017e-04  1.5739026098230967e-04  7.0162336809437428e-04  1.5070766600699232e-03  9.4670356584045901e-05  4.3096956290617579e-04  1.4019837597794688e-03  4.9673908013698662e-04  1.2390713133728515e-03  3.0654102190448622e-04  1.6537096666233031e-04  1.6068741597764567e-03  1.2914249740783802e-03  1.9449354846380017e-03  8.8036606207726048e-04  8.4503107252283929e-04  7.1715725923336140e-04  1.4776172149703682e-03  2.8652164314045174e-03  1.4555792095011007e-03  1.0381237410037984e-03  2.7340009781151651e-03  5.3317927253560406e-04  2.4061372138619690e-03  5.2215150333354790e-04  3.3100252583247755e-04  2.1252029594522460e-03  2.2209612656580338e-03  2.4510577185521448e-03  2.5982790093923018e-03  2.5469958540127310e-03  2.2566539227841412e-03  1.4021101830062840e-03  7.1974741312745127e-04  1.5476034379291663e-03  1.3189485000133522e-03  1.5225870618453229e-03  2.2503939625945508e-03  1.6510046651636589e-03  6.0402619239970383e-04  2.1299937117694799e-04  3.9113109622371223e-04  8.3126108850740661e-04  6.9128473479156550e-04  3.5228879133171389e-04  2.4530055023005219e-05  3.1579558552002309e-05  7.9969030079855795e-05  3.2692325021938784e-05  1.4954684476785538e-05  6.5596373289086103e-06  2.8777369172322522e-06  2.4499647474543916e-06  1.9716780214130941e-06  1.8392251350866397e-06  2.7471341830794889e-06  3.5550045276738446e-06  3.2926675699249568e-06  3.3120573051870046e-06  4.0201954613227471e-06  2.2037030948652693e-06  1.2047434021658115e-06  1.2754239763921726e-05  2.4322907649018264e-05  2.2266076303062061e-05  3.8235499817830755e-05  6.9027301715322473e-05  5.2257862410626139e-05  1.7527624382753667e-05  4.0617925313580926e-05  1.3530173145629500e-05  9.7311729276741440e-06  1.2565996096998815e-05  1.7813774392574080e-05  1.0292530930043215e-05  4.7814477502610382e-05  2.8782339740859909e-05  4.0796010155468316e-06  3.9246995796767010e-07  2.5352482160191715e-07  5.4033297525673941e-07  3.3978251776806117e-07  1.8913725453695902e-07  1.0091151710321552e-07  6.8014819738159656e-08  5.2055738265741813e-08  4.2462176481538254e-08  3.3841423959576955e-08  2.1558938197389433e-08  1.6897731293070383e-38  -1.2984969682777416e-20  3.4467498973190125e-04  5.2097597381040028e-04  7.1616044802099311e-04  1.9951865046892933e-04  4.9727120358688799e-04  4.1828789962018579e-04  3.4442636855746905e-04  1.1434912808574640e-03  3.3155171733411325e-04  1.5956407229261473e-03  9.5251650299991281e-04  2.8779289255580860e-04  1.1929629144660019e-03  9.3522423490508498e-04  2.3487209206341297e-04  1.2316599384503402e-03  9.8781962443996590e-04  1.1286543676237899e-03  9.8068213254242655e-04  6.8348385150506224e-04  1.9777059979504542e-03  1.1930596491211906e-03  1.9341707508406271e-03  1.2768008534243833e-03  2.6244633557229156e-03  2.3172935811921775e-03  2.9426199108577196e-03  2.1450442346295307e-03  1.4697372159950481e-03  1.7398117186421210e-03  2.9718959143932816e-03  1.5072607525369653e-03  3.1166134667237112e-03  2.3540154507217539e-03  1.7250912558898358e-03  1.0307240189934104e-04  1.5437968482163019e-03  2.5712278328186068e-03  2.5523213912655792e-03  2.7296610698241625e-03  2.8136940166188827e-03  2.6725629436044913e-03  1.9771424157474767e-03  3.5160329317524171e-04  1.5008426731365242e-03  9.9874871601257956e-04  3.0057054532569914e-03  1.5300603224230544e-03  5.7870321576554710e-04  5.0864098367052349e-04  7.3579541346371121e-04  9.4639398693696837e-04  1.3236301451217251e-03  6.0053087505189852e-06  8.0645264334711379e-04  1.9746433357091788e-04  1.1423350822854825e-04  3.3916254124352324e-05  6.5804459179312014e-05  2.0680053305901707e-05  9.6422794878713892e-06  4.2018940634808307e-06  3.2799541998511046e-06  3.6034878451897131e-06  2.9710419442918665e-06  2.7792045354441113e-06  3.2550556975743143e-06  3.7297083484881822e-06  4.2046333440673308e-06  4.0736443253509190e-06  2.4153592802165964e-06  6.5092544221902795e-07  5.7305201865798082e-06  2.2613101013133823e-05  2.4045996617490223e-05  2.6649846326564740e-05  5.8021275556259077e-05  7.2162275307324211e-05  1.6066896913807020e-05  3.8508426840277612e-05  2.8559889615269616e-05  6.8584649543976030e-07  1.1015218208388499e-05  1.6952762088669239e-05  9.1558926325361018e-06  3.9099876186074432e-05  4.2748261175109058e-05  1.1818372059359348e-05  1.7641604514943526e-06  2.4689450687855554e-07  7.9859090040863219e-07  5.6929004362666894e-07  3.1160576185188062e-07  1.6049093353995005e-07  9.3790472534585363e-08  6.5832459784120383e-08  5.1565793384480494e-08  4.0403976981989947e-08  2.5577263519376902e-08  2.3877229001077715e-38  -5.4838822948733800e-21  2.3391641849909427e-04  5.0579526233771098e-04  4.0622263581249903e-04  5.6608759185762189e-04  1.4813139810536516e-04  5.7930691782178008e-04  1.0256512936465047e-03  1.3115391384651350e-03  1.1584891708905280e-03  4.5732705293015857e-04  4.8471397882505888e-04  3.3318609794026826e-05  1.4897270115201778e-04  1.1563326695859389e-03  1.6990924634248279e-03  1.7218373131226036e-04  1.1947122399308433e-04  1.0523166777590561e-03  2.2014900584493198e-04  1.5464225463377784e-03  8.5856250427003257e-05  3.7138682974667639e-04  1.1992707340648106e-03  9.9615357040858045e-04  1.7199780278709205e-03  3.5570710520336937e-04  2.4832159115619460e-04  1.4903537995398070e-03  2.2797220768505625e-03  3.6857789120491578e-03  1.4237469121193510e-03  2.0404043076743144e-03  3.5731110791438086e-03  1.1776947527810616e-03  3.4787065893202513e-03  8.1085586792340651e-04  5.5722242385995995e-04  2.7332501566261127e-03  2.8411049288580782e-03  2.8678203612132708e-03  2.9943524976203230e-03  2.9490775949699679e-03  2.6264669865317101e-03  1.5275725530525346e-03  1.0439773338026355e-03  2.1507995478766109e-03  1.5138359341283166e-03  2.4945212398338290e-03  3.0227216166425147e-03  2.0218030633184503e-03  9.2911754049185052e-04  1.0134740478280194e-04  1.2399631112482970e-04  1.2391873742695454e-03  8.2658929465258615e-04  5.9587502210079650e-04  5.1140879601288975e-06  1.3672832545117409e-04  8.2134378181236594e-05  4.6097721240566290e-05  1.6631935923079550e-05  7.8801209122915426e-06  3.5883182200027639e-06  3.0753069834842124e-06  3.1919366816761210e-06  2.9231959858142731e-06  2.8941255051186905e-06  3.5425164423789991e-06  3.8086447531447349e-06  3.2235461910019445e-06  3.0385848274263952e-06  4.3335226583428061e-07  8.2898231334496113e-08  1.5797223213055456e-05  2.7815124573287338e-05  2.2646250781201103e-05  4.2451262613099558e-05  7.4940182725940713e-05  5.0218507961780717e-05  2.1724434663011727e-05  3.7581782528417219e-05  1.1670381035344465e-05  8.2009917872432144e-06  1.2405579598444620e-05  1.9547416277176840e-05  1.9599482880675451e-05  5.1565888376270135e-05  2.3618346643485343e-05  3.8634738368828378e-06  1.4083196335488230e-06  6.6331882353281777e-07  8.8431018514303511e-07  4.8972303332891058e-07  2.5290046485852854e-07  1.3098718094252463e-07  8.6057613564900011e-08  6.2105005279742416e-08  4.8120743057710868e-08  3.0914283803486794e-08  -5.8774717541114375e-39  -1.9008781316538072e-20  9.8788841038941605e-05  3.6319847724485525e-04  6.4094531831509734e-04  6.3718838434234139e-04  1.0081380730456127e-04  6.1600335378585137e-04  2.1443457698940233e-04  4.6344676859181017e-05  1.5044305052658638e-03  5.4620126709322174e-04  1.4835183054617183e-03  8.9358319487324784e-04  2.8622836343737945e-04  1.1198989820226629e-03  1.2140063919495682e-03  5.8282752128821838e-04  8.7945275089943288e-04  9.0326615466628272e-04  1.2819005000098663e-03  8.4545363507225371e-04  2.3145175094822025e-04  1.6842133056938838e-03  9.3144485588645255e-04  2.0315561058860052e-03  1.3616104807574532e-03  2.8538961289522780e-03  2.3470474422169615e-03  2.9311125667128672e-03  1.8919972220206309e-03  1.0269446517764886e-03  2.6251903189194285e-03  3.5133174964696381e-03  1.2921137507761649e-03  4.2804739634773048e-03  2.4872620521086842e-03  2.7781395213340534e-03  8.0492035532274119e-05  1.8107290113728387e-03  3.3970377004172692e-03  3.1313537442174545e-03  3.1687969643758355e-03  3.2503862277220275e-03  3.0853382451098417e-03  2.2435355849571279e-03  2.9720749019461967e-04  2.0526115091775697e-03  1.3850139929643260e-03  3.6609567827556124e-03  1.2043160597612148e-03  1.7797270466792382e-04  8.7738941060689816e-05  3.0513888799298778e-04  8.0275418073073911e-04  1.3335447812247187e-03  2.6623246837567975e-04  1.0738612827351276e-03  3.1480739931468636e-04  1.8550652783232789e-04  5.2413831023897274e-05  8.1843494976555629e-05  2.7901380644734509e-05  1.3588351057821069e-05  6.3505091143926974e-06  2.8393303836464567e-06  2.5149239538487294e-06  2.3251850309307239e-06  1.8338438423476489e-06  2.0332181954386685e-06  2.2944931414644602e-06  2.5582635861408472e-06  3.3688327159334985e-06  1.6557624863961283e-06  3.3744795210146026e-06  6.1534847276128036e-06  2.8050025848200171e-05  2.6197838971402791e-05  2.8894877598927260e-05  6.4191924067379970e-05  7.3211894996012537e-05  8.8383198427495051e-06  3.8035306348424815e-05  2.4113807727080189e-05  1.8521226245665587e-06  9.1070721462839940e-06  1.8892751273726136e-05  3.4619848534086587e-06  4.8837306051599225e-05  3.9076587907305747e-05  8.4706437739882369e-06  2.6074982369972665e-06  1.5316571764317715e-07  1.1363375953690560e-06  7.4476887004627076e-07  3.9624825132999924e-07  1.9195301163251922e-07  1.1437286255726142e-07  7.7543689061385397e-08  5.7303373311665895e-08  3.7486130393519792e-08  3.0856726709085047e-38  -2.1016699115649486e-21  3.4243176181571319e-04  4.9721829326065264e-04  5.5082469322469379e-04  4.4691890740919063e-04  7.4260967911227561e-04  3.7906346414364255e-05  5.1749084592014839e-04  8.8275014412884608e-04  1.2329541522106849e-03  1.4886915068262323e-03  6.2038254146302605e-04  5.1564669813368598e-04  2.8936834879610216e-04  3.5396394405138898e-04  1.3109730853385904e-03  1.7643106679873157e-03  6.60