<?xml version="1.0"?>
<VTKFile type="UnstructuredGrid"  version="0.1"  >
<UnstructuredGrid>
<Piece  NumberOfPoints="10201" NumberOfCells="20000">
<Points>
<DataArray  type="Float64"  NumberOfComponents="3"  format="ascii">0 0 0  0.01 0 0  0.02 0 0  0.03 0 0  0.04 0 0  0.05 0 0  0.06 0 0  0.07000000000000001 0 0  0.08 0 0  0.09 0 0  0.1 0 0  0.11 0 0  0.12 0 0  0.13 0 0  0.14 0 0  0.15 0 0  0.16 0 0  0.17 0 0  0.18 0 0  0.19 0 0  0.2 0 0  0.21 0 0  0.22 0 0  0.23 0 0  0.24 0 0  0.25 0 0  0.26 0 0  0.27 0 0  0.28 0 0  0.29 0 0  0.3 0 0  0.31 0 0  0.32 0 0  0.33 0 0  0.34 0 0  0.35 0 0  0.36 0 0  0.37 0 0  0.38 0 0  0.39 0 0  0.4 0 0  0.41 0 0  0.42 0 0  0.43 0 0  0.44 0 0  0.45 0 0  0.46 0 0  0.47 0 0  0.48 0 0  0.49 0 0  0.5 0 0  0.51 0 0  0.52 0 0  0.53 0 0  0.54 0 0  0.55 0 0  0.5600000000000001 0 0  0.57 0 0  0.58 0 0  0.59 0 0  0.6 0 0  0.61 0 0  0.62 0 0  0.63 0 0  0.64 0 0  0.65 0 0  0.66 0 0  0.67 0 0  0.68 0 0  0.6899999999999999 0 0  0.7 0 0  0.71 0 0  0.72 0 0  0.73 0 0  0.74 0 0  0.75 0 0  0.76 0 0  0.77 0 0  0.78 0 0  0.79 0 0  0.8 0 0  0.8100000000000001 0 0  0.82 0 0  0.83 0 0  0.84 0 0  0.85 0 0  0.86 0 0  0.87 0 0  0.88 0 0  0.89 0 0  0.9 0 0  0.91 0 0  0.92 0 0  0.93 0 0  0.9399999999999999 0 0  0.95 0 0  0.96 0 0  0.97 0 0  0.98 0 0  0.99 0 0  1 0 0  0 0.01 0  0.01 0.01 0  0.02 0.01 0  0.03 0.01 0  0.04 0.01 0  0.05 0.01 0  0.06 0.01 0  0.07000000000000001 0.01 0  0.08 0.01 0  0.09 0.01 0  0.1 0.01 0  0.11 0.01 0  0.12 0.01 0  0.13 0.01 0  0.14 0.01 0  0.15 0.01 0  0.16 0.01 0  0.17 0.01 0  0.18 0.01 0  0.19 0.01 0  0.2 0.01 0  0.21 0.01 0  0.22 0.01 0  0.23 0.01 0  0.24 0.01 0  0.25 0.01 0  0.26 0.01 0  0.27 0.01 0  0.28 0.01 0  0.29 0.01 0  0.3 0.01 0  0.31 0.01 0  0.32 0.01 0  0.33 0.01 0  0.34 0.01 0  0.35 0.01 0  0.36 0.01 0  0.37 0.01 0  0.38 0.01 0  0.39 0.01 0  0.4 0.01 0  0.41 0.01 0  0.42 0.01 0  0.43 0.01 0  0.44 0.01 0  0.45 0.01 0  0.46 0.01 0  0.47 0.01 0  0.48 0.01 0  0.49 0.01 0  0.5 0.01 0  0.51 0.01 0  0.52 0.01 0  0.53 0.01 0  0.54 0.01 0  0.55 0.01 0  0.5600000000000001 0.01 0  0.57 0.01 0  0.58 0.01 0  0.59 0.01 0  0.6 0.01 0  0.61 0.01 0  0.62 0.01 0  0.63 0.01 0  0.64 0.01 0  0.65 0.01 0  0.66 0.01 0  0.67 0.01 0  0.68 0.01 0  0.6899999999999999 0.01 0  0.7 0.01 0  0.71 0.01 0  0.72 0.01 0  0.73 0.01 0  0.74 0.01 0  0.75 0.01 0  0.76 0.01 0  0.77 0.01 0  0.78 0.01 0  0.79 0.01 0  0.8 0.01 0  0.8100000000000001 0.01 0  0.82 0.01 0  0.83 0.01 0  0.84 0.01 0  0.85 0.01 0  0.86 0.01 0  0.87 0.01 0  0.88 0.01 0  0.89 0.01 0  0.9 0.01 0  0.91 0.01 0  0.92 0.01 0  0.93 0.01 0  0.9399999999999999 0.01 0  0.95 0.01 0  0.96 0.01 0  0.97 0.01 0  0.98 0.01 0  0.99 0.01 0  1 0.01 0  0 0.02 0  0.01 0.02 0  0.02 0.02 0  0.03 0.02 0  0.04 0.02 0  0.05 0.02 0  0.06 0.02 0  0.07000000000000001 0.02 0  0.08 0.02 0  0.09 0.02 0  0.1 0.02 0  0.11 0.02 0  0.12 0.02 0  0.13 0.02 0  0.14 0.02 0  0.15 0.02 0  0.16 0.02 0  0.17 0.02 0  0.18 0.02 0  0.19 0.02 0  0.2 0.02 0  0.21 0.02 0  0.22 0.02 0  0.23 0.02 0  0.24 0.02 0  0.25 0.02 0  0.26 0.02 0  0.27 0.02 0  0.28 0.02 0  0.29 0.02 0  0.3 0.02 0  0.31 0.02 0  0.32 0.02 0  0.33 0.02 0  0.34 0.02 0  0.35 0.02 0  0.36 0.02 0  0.37 0.02 0  0.38 0.02 0  0.39 0.02 0  0.4 0.02 0  0.41 0.02 0  0.42 0.02 0  0.43 0.02 0  0.44 0.02 0  0.45 0.02 0  0.46 0.02 0  0.47 0.02 0  0.48 0.02 0  0.49 0.02 0  0.5 0.02 0  0.51 0.02 0  0.52 0.02 0  0.53 0.02 0  0.54 0.02 0  0.55 0.02 0  0.5600000000000001 0.02 0  0.57 0.02 0  0.58 0.02 0  0.59 0.02 0  0.6 0.02 0  0.61 0.02 0  0.62 0.02 0  0.63 0.02 0  0.64 0.02 0  0.65 0.02 0  0.66 0.02 0  0.67 0.02 0  0.68 0.02 0  0.6899999999999999 0.02 0  0.7 0.02 0  0.71 0.02 0  0.72 0.02 0  0.73 0.02 0  0.74 0.02 0  0.75 0.02 0  0.76 0.02 0  0.77 0.02 0  0.78 0.02 0  0.79 0.02 0  0.8 0.02 0  0.8100000000000001 0.02 0  0.82 0.02 0  0.83 0.02 0  0.84 0.02 0  0.85 0.02 0  0.86 0.02 0  0.87 0.02 0  0.88 0.02 0  0.89 0.02 0  0.9 0.02 0  0.91 0.02 0  0.92 0.02 0  0.93 0.02 0  0.9399999999999999 0.02 0  0.95 0.02 0  0.96 0.02 0  0.97 0.02 0  0.98 0.02 0  0.99 0.02 0  1 0.02 0  0 0.03 0  0.01 0.03 0  0.02 0.03 0  0.03 0.03 0  0.04 0.03 0  0.05 0.03 0  0.06 0.03 0  0.07000000000000001 0.03 0  0.08 0.03 0  0.09 0.03 0  0.1 0.03 0  0.11 0.03 0  0.12 0.03 0  0.13 0.03 0  0.14 0.03 0  0.15 0.03 0  0.16 0.03 0  0.17 0.03 0  0.18 0.03 0  0.19 0.03 0  0.2 0.03 0  0.21 0.03 0  0.22 0.03 0  0.23 0.03 0  0.24 0.03 0  0.25 0.03 0  0.26 0.03 0  0.27 0.03 0  0.28 0.03 0  0.29 0.03 0  0.3 0.03 0  0.31 0.03 0  0.32 0.03 0  0.33 0.03 0  0.34 0.03 0  0.35 0.03 0  0.36 0.03 0  0.37 0.03 0  0.38 0.03 0  0.39 0.03 0  0.4 0.03 0  0.41 0.03 0  0.42 0.03 0  0.43 0.03 0  0.44 0.03 0  0.45 0.03 0  0.46 0.03 0  0.47 0.03 0  0.48 0.03 0  0.49 0.03 0  0.5 0.03 0  0.51 0.03 0  0.52 0.03 0  0.53 0.03 0  0.54 0.03 0  0.55 0.03 0  0.5600000000000001 0.03 0  0.57 0.03 0  0.58 0.03 0  0.59 0.03 0  0.6 0.03 0  0.61 0.03 0  0.62 0.03 0  0.63 0.03 0  0.64 0.03 0  0.65 0.03 0  0.66 0.03 0  0.67 0.03 0  0.68 0.03 0  0.6899999999999999 0.03 0  0.7 0.03 0  0.71 0.03 0  0.72 0.03 0  0.73 0.03 0  0.74 0.03 0  0.75 0.03 0  0.76 0.03 0  0.77 0.03 0  0.78 0.03 0  0.79 0.03 0  0.8 0.03 0  0.8100000000000001 0.03 0  0.82 0.03 0  0.83 0.03 0  0.84 0.03 0  0.85 0.03 0  0.86 0.03 0  0.87 0.03 0  0.88 0.03 0  0.89 0.03 0  0.9 0.03 0  0.91 0.03 0  0.92 0.03 0  0.93 0.03 0  0.9399999999999999 0.03 0  0.95 0.03 0  0.96 0.03 0  0.97 0.03 0  0.98 0.03 0  0.99 0.03 0  1 0.03 0  0 0.04 0  0.01 0.04 0  0.02 0.04 0  0.03 0.04 0  0.04 0.04 0  0.05 0.04 0  0.06 0.04 0  0.07000000000000001 0.04 0  0.08 0.04 0  0.09 0.04 0  0.1 0.04 0  0.11 0.04 0  0.12 0.04 0  0.13 0.04 0  0.14 0.04 0  0.15 0.04 0  0.16 0.04 0  0.17 0.04 0  0.18 0.04 0  0.19 0.04 0  0.2 0.04 0  0.21 0.04 0  0.22 0.04 0  0.23 0.04 0  0.24 0.04 0  0.25 0.04 0  0.26 0.04 0  0.27 0.04 0  0.28 0.04 0  0.29 0.04 0  0.3 0.04 0  0.31 0.04 0  0.32 0.04 0  0.33 0.04 0  0.34 0.04 0  0.35 0.04 0  0.36 0.04 0  0.37 0.04 0  0.38 0.04 0  0.39 0.04 0  0.4 0.04 0  0.41 0.04 0  0.42 0.04 0  0.43 0.04 0  0.44 0.04 0  0.45 0.04 0  0.46 0.04 0  0.47 0.04 0  0.48 0.04 0  0.49 0.04 0  0.5 0.04 0  0.51 0.04 0  0.52 0.04 0  0.53 0.04 0  0.54 0.04 0  0.55 0.04 0  0.5600000000000001 0.04 0  0.57 0.04 0  0.58 0.04 0  0.59 0.04 0  0.6 0.04 0  0.61 0.04 0  0.62 0.04 0  0.63 0.04 0  0.64 0.04 0  0.65 0.04 0  0.66 0.04 0  0.67 0.04 0  0.68 0.04 0  0.6899999999999999 0.04 0  0.7 0.04 0  0.71 0.04 0  0.72 0.04 0  0.73 0.04 0  0.74 0.04 0  0.75 0.04 0  0.76 0.04 0  0.77 0.04 0  0.78 0.04 0  0.79 0.04 0  0.8 0.04 0  0.8100000000000001 0.04 0  0.82 0.04 0  0.83 0.04 0  0.84 0.04 0  0.85 0.04 0  0.86 0.04 0  0.87 0.04 0  0.88 0.04 0  0.89 0.04 0  0.9 0.04 0  0.91 0.04 0  0.92 0.04 0  0.93 0.04 0  0.9399999999999999 0.04 0  0.95 0.04 0  0.96 0.04 0  0.97 0.04 0  0.98 0.04 0  0.99 0.04 0  1 0.04 0  0 0.05 0  0.01 0.05 0  0.02 0.05 0  0.03 0.05 0  0.04 0.05 0  0.05 0.05 0  0.06 0.05 0  0.07000000000000001 0.05 0  0.08 0.05 0  0.09 0.05 0  0.1 0.05 0  0.11 0.05 0  0.12 0.05 0  0.13 0.05 0  0.14 0.05 0  0.15 0.05 0  0.16 0.05 0  0.17 0.05 0  0.18 0.05 0  0.19 0.05 0  0.2 0.05 0  0.21 0.05 0  0.22 0.05 0  0.23 0.05 0  0.24 0.05 0  0.25 0.05 0  0.26 0.05 0  0.27 0.05 0  0.28 0.05 0  0.29 0.05 0  0.3 0.05 0  0.31 0.05 0  0.32 0.05 0  0.33 0.05 0  0.34 0.05 0  0.35 0.05 0  0.36 0.05 0  0.37 0.05 0  0.38 0.05 0  0.39 0.05 0  0.4 0.05 0  0.41 0.05 0  0.42 0.05 0  0.43 0.05 0  0.44 0.05 0  0.45 0.05 0  0.46 0.05 0  0.47 0.05 0  0.48 0.05 0  0.49 0.05 0  0.5 0.05 0  0.51 0.05 0  0.52 0.05 0  0.53 0.05 0  0.54 0.05 0  0.55 0.05 0  0.5600000000000001 0.05 0  0.57 0.05 0  0.58 0.05 0  0.59 0.05 0  0.6 0.05 0  0.61 0.05 0  0.62 0.05 0  0.63 0.05 0  0.64 0.05 0  0.65 0.05 0  0.66 0.05 0  0.67 0.05 0  0.68 0.05 0  0.6899999999999999 0.05 0  0.7 0.05 0  0.71 0.05 0  0.72 0.05 0  0.73 0.05 0  0.74 0.05 0  0.75 0.05 0  0.76 0.05 0  0.77 0.05 0  0.78 0.05 0  0.79 0.05 0  0.8 0.05 0  0.8100000000000001 0.05 0  0.82 0.05 0  0.83 0.05 0  0.84 0.05 0  0.85 0.05 0  0.86 0.05 0  0.87 0.05 0  0.88 0.05 0  0.89 0.05 0  0.9 0.05 0  0.91 0.05 0  0.92 0.05 0  0.93 0.05 0  0.9399999999999999 0.05 0  0.95 0.05 0  0.96 0.05 0  0.97 0.05 0  0.98 0.05 0  0.99 0.05 0  1 0.05 0  0 0.06 0  0.01 0.06 0  0.02 0.06 0  0.03 0.06 0  0.04 0.06 0  0.05 0.06 0  0.06 0.06 0  0.07000000000000001 0.06 0  0.08 0.06 0  0.09 0.06 0  0.1 0.06 0  0.11 0.06 0  0.12 0.06 0  0.13 0.06 0  0.14 0.06 0  0.15 0.06 0  0.16 0.06 0  0.17 0.06 0  0.18 0.06 0  0.19 0.06 0  0.2 0.06 0  0.21 0.06 0  0.22 0.06 0  0.23 0.06 0  0.24 0.06 0  0.25 0.06 0  0.26 0.06 0  0.27 0.06 0  0.28 0.06 0  0.29 0.06 0  0.3 0.06 0  0.31 0.06 0  0.32 0.06 0  0.33 0.06 0  0.34 0.06 0  0.35 0.06 0  0.36 0.06 0  0.37 0.06 0  0.38 0.06 0  0.39 0.06 0  0.4 0.06 0  0.41 0.06 0  0.42 0.06 0  0.43 0.06 0  0.44 0.06 0  0.45 0.06 0  0.46 0.06 0  0.47 0.06 0  0.48 0.06 0  0.49 0.06 0  0.5 0.06 0  0.51 0.06 0  0.52 0.06 0  0.53 0.06 0  0.54 0.06 0  0.55 0.06 0  0.5600000000000001 0.06 0  0.57 0.06 0  0.58 0.06 0  0.59 0.06 0  0.6 0.06 0  0.61 0.06 0  0.62 0.06 0  0.63 0.06 0  0.64 0.06 0  0.65 0.06 0  0.66 0.06 0  0.67 0.06 0  0.68 0.06 0  0.6899999999999999 0.06 0  0.7 0.06 0  0.71 0.06 0  0.72 0.06 0  0.73 0.06 0  0.74 0.06 0  0.75 0.06 0  0.76 0.06 0  0.77 0.06 0  0.78 0.06 0  0.79 0.06 0  0.8 0.06 0  0.8100000000000001 0.06 0  0.82 0.06 0  0.83 0.06 0  0.84 0.06 0  0.85 0.06 0  0.86 0.06 0  0.87 0.06 0  0.88 0.06 0  0.89 0.06 0  0.9 0.06 0  0.91 0.06 0  0.92 0.06 0  0.93 0.06 0  0.9399999999999999 0.06 0  0.95 0.06 0  0.96 0.06 0  0.97 0.06 0  0.98 0.06 0  0.99 0.06 0  1 0.06 0  0 0.07000000000000001 0  0.01 0.07000000000000001 0  0.02 0.07000000000000001 0  0.03 0.07000000000000001 0  0.04 0.07000000000000001 0  0.05 0.07000000000000001 0  0.06 0.07000000000000001 0  0.07000000000000001 0.07000000000000001 0  0.08 0.07000000000000001 0  0.09 0.07000000000000001 0  0.1 0.07000000000000001 0  0.11 0.07000000000000001 0  0.12 0.07000000000000001 0  0.13 0.07000000000000001 0  0.14 0.07000000000000001 0  0.15 0.07000000000000001 0  0.16 0.07000000000000001 0  0.17 0.0700
[...]
<PointData  Scalars="Indicator Function"> 
<DataArray  type="Float64"  Name="Indicator Function"  format="ascii">-1.8055593228630336e-35  -6.5032160483035310e-20  2.6614794780532784e-20  3.0047435386863276e-19  3.4210198091186265e-19  -3.4695855701935426e-20  -3.0284971151274669e-20  6.5205096887162670e-19  9.0695508393924486e-19  -4.5138983071575840e-36  4.8603787680031062e-18  2.6271457233651054e-18  -3.9944921321245508e-20  -3.5787944059441585e-20  7.8853011977659793e-18  -9.0357040176615935e-21  -4.4917080982773666e-21  2.1298011861255140e-18  -3.5491707160907850e-20  -4.2129717533470784e-35  5.8026249570403811e-18  0.0000000000000000e+00  -3.8327980979923300e-20  1.2550524066790024e-17  -5.1813592074148514e-20  -2.5906796037074266e-20  -1.9444219781618616e-20  -4.5369588242093365e-20  4.1365651443073720e-17  -1.7388594369168218e-20  -8.2212259356879227e-20  -2.9521597415989558e-20  -4.8494415304035744e-20  -1.7006864949648336e-20  2.0425333905759121e-17  -9.3562053539137622e-20  -1.2559223319516375e-19  -1.4305060841794255e-19  -1.4837520795413323e-19  -1.4465383331299042e-19  8.9166516669506850e-18  -8.2386763001893142e-20  -2.5191206366042249e-20  -3.3287446205919606e-20  -2.1320937645297416e-20  -2.2354553086392945e-20  2.7893981541910243e-17  -1.4805206289991148e-20  -8.4732747098505371e-21  -2.0041493649482242e-21  -2.3030025505798053e-20  -1.1515012752899033e-20  -8.3653234574308652e-21  -9.9449489272770603e-21  -8.9579156397389673e-21  -4.9430863114636192e-21  2.8863226577067957e-19  -4.9929637450093201e-22  -2.1851467951475490e-22  -2.0855371741618624e-22  -5.6766257396382553e-22  -3.8624502865751740e-22  -1.1811310791186959e-21  -1.7958777992211325e-21  -6.7870409689418510e-22  -2.7359999679650956e-21  -2.6368893048206096e-21  -1.1958504055771847e-21  4.6378881030533228e-20  -5.3956425764832058e-23  -2.9603405369441017e-22  -3.9812807487158262e-22  -4.2242421179697790e-22  -4.6203887924998495e-22  -4.6380060206086469e-22  -5.3132040970883887e-22  -3.3158391721740423e-22  -2.9394178883107591e-22  -2.3509887016445750e-38  -6.7131643547042851e-22  -5.8074611774467529e-22  2.5498544573862441e-19  -4.8558709971647140e-22  -1.4835609520617982e-22  -1.4715281826676397e-22  -3.6487385331837088e-23  -3.7888050787150918e-23  -8.6803551077291061e-23  -2.1870636011113304e-22  -3.7158215504597703e-23  -1.5200219441192710e-22  -3.5264830524668625e-38  -4.3961651640539450e-22  7.0968180198460882e-20  -1.7820881944838732e-22  -6.7699295372790240e-24  -2.7030833420407479e-23  -3.2246099201989759e-23  1.4693679385278594e-39  0.0000000000000000e+00  1.1754943508222875e-38  -3.4826919003893226e-20  5.5064730300716561e-04  2.3122681273676356e-04  1.4994360816831333e-04  3.5215779514454138e-04  2.7614625097386225e-04  4.8695184575521625e-04  3.0208961628962005e-04  6.9608112262541338e-04  6.5176496349098758e-05  2.1811383997718448e-05  4.3405021784304732e-04  7.4368667971748111e-04  3.4774039125207959e-04  4.7082809049578753e-04  2.5696869908486150e-04  3.4288423445452579e-05  7.7064804074078951e-04  1.3374872773493240e-04  6.3936175657842932e-04  1.9834053936448878e-04  3.1825965507111263e-04  2.3275440480902186e-04  5.7407832103167748e-04  2.1962322172639181e-04  9.3339069583144854e-04  7.0055184770406026e-04  9.1604351294173917e-04  3.5928408633330614e-04  6.2649013697186099e-04  8.3475352288690590e-04  1.0636276409762588e-03  6.6714138597889739e-04  5.4002702978177297e-04  3.6354927709013523e-05  8.1725507220502974e-04  1.2768365817169992e-03  1.6240502476149716e-03  1.7649455432571892e-03  1.7904173533844227e-03  1.7106431225321780e-03  1.3631745737019648e-03  8.0256069377136697e-04  4.5380443041248439e-04  3.7275110611013771e-04  8.0540765559934213e-04  6.0448984306493920e-04  5.3341377224597956e-04  3.0528189460712576e-04  2.4466264808778830e-05  3.6103545332702569e-05  4.1487205714498042e-04  9.7526210267072242e-05  1.0193316528934109e-04  1.2818569048774370e-04  9.7278616904707168e-05  7.1236678931110842e-05  4.3491370589290613e-05  2.2859585344519433e-05  1.3575105570812837e-05  8.6556838534274609e-06  7.0163046690682276e-06  1.0959667076112962e-05  1.5797532413122193e-05  2.4452892142939855e-05  1.4598380525759138e-05  4.1988203481973599e-05  2.6507873021442548e-05  1.2594240052529438e-05  5.4914945279206232e-06  9.7199255587496806e-07  4.8468791376910037e-06  4.7485982297040673e-06  5.2354189765125474e-06  6.2135483081610313e-06  6.9384749066835920e-06  6.1021801433744651e-06  8.2451479809682248e-06  1.1726105321088858e-06  1.1885939778147946e-05  6.1503919054552677e-06  9.4264208987979206e-06  1.4397811456544682e-05  1.5486537970837412e-06  2.6725458203547730e-06  1.3145965998734785e-06  1.3650608912544599e-06  3.0324255047178040e-07  5.2021954471963084e-06  1.3387658040020700e-06  3.5088867783197487e-06  9.8378471529233451e-07  3.0084450135948759e-06  6.4152046110794846e-06  3.0093551061338959e-06  2.3622174574048463e-06  1.2195620856565715e-07  4.2596610099581533e-07  3.6791103090302463e-07  1.1801719226388542e-07  -3.0826474218312583e-23  -1.3064914509311174e-20  6.2738599779358381e-04  1.6069964621731868e-04  9.7265073867084824e-05  1.0830234436219230e-05  3.4566276033193370e-04  5.3215639827697378e-04  6.4925184241660066e-04  7.7178597094486865e-04  5.1683769946984864e-05  2.1890817621055233e-04  4.7004099221771616e-04  6.3854416778510233e-04  9.9529316848606859e-04  9.0953150741974250e-04  6.1225347691639526e-04  1.2324616720824845e-03  4.7022442649930915e-05  5.0515809584909062e-04  9.6608436592303284e-04  4.6210530680234154e-04  1.6067155789990331e-03  1.0466366495578922e-03  1.7361100969722301e-03  9.9189126521672592e-04  1.2524314079390298e-03  1.7022063712574232e-05  3.3514876323832970e-04  1.7285969842071888e-03  1.2383713687159938e-03  6.5303072022115236e-05  1.7215935469099540e-03  1.3600417194961330e-04  1.1787649864360413e-03  6.5910060645577050e-04  1.0644749347004660e-03  1.5839569978955085e-03  2.1107849274999819e-03  2.4433413263704852e-03  2.5431984049084254e-03  2.4742544539599729e-03  2.2682241264037882e-03  1.6941336398315955e-03  2.7110249867475520e-04  1.0780348851610853e-03  9.3250973472092276e-04  8.7139663118364331e-04  1.2500699724997955e-03  1.0536288144660179e-03  3.3347536285202541e-04  3.7799897061124280e-04  6.4402665757023211e-04  2.4779969870147931e-04  3.0969949570940628e-04  1.3224133869885917e-04  1.3896706657705898e-04  9.4719450271858358e-05  7.9892527301947156e-05  4.4717043888490314e-05  2.6853836084562794e-05  1.5878905030019598e-05  1.4329151332607615e-05  1.1531075954865139e-05  1.9831189162887703e-05  2.9665157775869448e-05  1.1199527144991382e-05  5.6958157877905721e-05  4.6363105577092529e-05  1.5062546915229429e-05  1.0626481390809215e-05  2.9413578562086453e-06  3.1552120956408878e-06  6.7847779353966638e-06  9.5424697539536477e-06  8.6559256260258015e-06  9.0595827680775397e-06  1.0132696805205647e-05  8.7001804258438750e-06  1.4746380360129493e-05  8.6095218769858977e-07  2.0546527030994065e-05  6.5962728603824888e-06  1.8787695916199143e-05  1.4179982624273899e-05  6.2153755978470847e-06  1.6771747006226087e-06  2.1187526073292524e-06  1.1349257242664902e-06  4.2722128548849747e-06  3.7568071731764360e-06  9.1156388487605489e-07  1.0116195703023812e-05  3.3529058456430488e-06  9.3330465783782413e-06  7.4625942194044148e-06  2.3019476389044302e-06  1.5751394307942233e-06  4.9599014970760788e-07  2.2127822832489879e-07  5.0363121513105810e-07  7.7599149813459679e-24  -2.3806299732196701e-20  2.3535657646304544e-04  4.5429779916090433e-04  7.3867684696480939e-05  5.1468398249284808e-04  7.3215278397935617e-04  6.4662599253723660e-04  8.5660055568619975e-04  2.1845377057104734e-04  1.3373330202408034e-03  4.9710887223286017e-04  3.5962599368370351e-06  1.0549896861129881e-03  1.2334256329152428e-03  2.3375499482949680e-04  1.0458424981001036e-03  2.2492031930900267e-04  3.6407593465973090e-04  1.5141772503587591e-03  8.1787381039783087e-04  1.7544539447306782e-03  4.6006768626766697e-04  1.1442384722964995e-03  3.3863444806188950e-04  1.6886903112708327e-03  1.4487817605033228e-03  2.4606177575191880e-03  2.0731073332927387e-03  1.9765614493275296e-03  7.9689503974349684e-04  2.1391491908408968e-03  1.9225508842156906e-03  2.1098541486411220e-03  2.2022756745323840e-03  9.9850345551590145e-04  1.7821442253755125e-04  1.9332648187010649e-03  2.1957544972904773e-03  2.6802288530269579e-03  2.8982637905475847e-03  2.9405634514870467e-03  2.7681748687763928e-03  2.0934223364509909e-03  1.2582909757219067e-03  1.3449821917289894e-03  7.2649453593198634e-04  2.3300945483816222e-03  1.3959287833068977e-03  8.4446885486116050e-04  5.1537891300327523e-04  2.1778552843302394e-04  2.3256823062986059e-04  1.0473842388187991e-03  4.2979346356158873e-04  2.5784655409976298e-04  1.2498647961693875e-04  8.3912194509568980e-05  8.3092506249446372e-05  6.7256415420938989e-05  3.7228161378483544e-05  2.5328659918715765e-05  1.5824916553397862e-05  1.4194030806728511e-05  1.9455200384842853e-05  2.4321307613893759e-05  3.9123747044017200e-05  4.0011559410514941e-05  7.5741842905711557e-05  2.1405990373882705e-05  5.3453182584549662e-06  8.0188239320188255e-06  9.5835624126044864e-07  6.9843885067105319e-06  7.0309827889948029e-06  9.7593352577317028e-06  1.1717998536314386e-05  1.2257617442289760e-05  1.0627688990424192e-05  1.4038545016973801e-05  5.9388526764301571e-06  1.7828518987891589e-05  1.5546614770614214e-05  1.0955486254691037e-05  2.7132948745465735e-05  1.4727513707261229e-06  8.1193442362269763e-06  3.7599561545194836e-06  7.0539963272573816e-06  9.0825666579766308e-07  1.0784235026192093e-05  1.6292352099086873e-06  6.5736287476191381e-06  3.9409733432323331e-06  9.3820551706923306e-07  1.2584953506305522e-05  3.6552291219621166e-06  2.7974654268797878e-06  4.5204452468646855e-07  5.0139479024574755e-08  1.8071823035810904e-07  2.6889433275059827e-37  -1.8818974975520229e-20  4.2885617041196641e-04  5.9687416193183324e-04  1.2839135456749850e-05  1.5271025245746842e-04  4.8076416592828550e-04  6.9722998559148283e-04  1.1548093883700157e-03  1.0479314686822182e-03  6.6757228482111424e-04  1.9379608329106706e-04  5.7777631285342102e-05  4.2867429501592091e-04  9.8092877539009073e-04  1.5127717961048739e-03  6.9692137082668184e-04  9.1560901697498355e-04  1.7596239527227578e-03  3.7932686990306606e-04  1.2035573643725504e-03  6.4607054461372391e-04  3.8948263719271273e-04  2.0961120336345446e-03  1.6529202735464333e-03  2.4710829118025704e-03  1.2819642438733211e-03  1.3037286959073618e-03  5.5470805638273019e-04  1.4887248911864251e-03  3.2747511640453249e-03  1.9546940219981068e-03  7.4605876034280593e-04  3.1883768554018888e-03  4.1641241482799461e-04  2.6571631711196759e-03  8.2097933392448951e-04  1.8137753720475836e-03  2.3893270884143055e-03  2.7399836513371553e-03  3.1121951903013523e-03  3.2152314369220452e-03  3.1322927745718971e-03  2.8739516473727631e-03  1.9770983123590688e-03  6.2964710574119152e-04  1.9513478465379838e-03  1.5151025458677058e-03  2.0094894250215099e-03  2.7994334978858927e-03  2.2192847172353976e-03  9.8347829953628974e-04  3.7378789209211951e-04  9.2348554382109323e-04  5.3568396651356993e-04  7.5016587093911381e-04  1.6263442203951286e-04  9.5888560434898861e-05  4.5772909307395075e-05  7.5457359962825043e-05  4.9175159187968535e-05  3.1530689493297781e-05  2.0591091174405485e-05  1.8408094246412487e-05  1.2849956357675476e-05  2.5211123708162335e-05  3.5852931296389332e-05  1.6309094217077126e-05  9.1929304369353201e-05  5.7361223087920812e-05  2.2057278731295479e-06  5.7219957321798757e-06  5.0800202911598907e-06  2.4539349202991076e-06  7.3538771172618186e-06  9.6963503777286431e-06  8.8002069453678064e-06  1.0274104181006882e-05  1.2218304021576742e-05  1.0450824872135686e-05  1.7071317457411747e-05  5.4680513380190439e-07  2.8613882438914734e-05  7.8827376702106905e-06  2.0541714450323401e-05  2.2137371405757581e-05  1.4962291920277375e-05  3.3859788138936130e-06  8.8195815937103589e-06  7.1974893640723951e-06  6.0339674821088858e-06  7.8016029516457383e-06  3.3803216338592015e-06  1.5017609622168068e-05  6.5083551810527415e-06  1.0504821005779801e-05  9.9754064511760507e-06  5.5860038948634712e-07  1.4181906675879096e-06  1.1726889673530896e-06  6.9631348954230726e-08  1.7393923540056057e-23  -2.2367035603743798e-20  3.3901251474898999e-04  5.8418461960518700e-04  9.4521899912309432e-04  1.2690941637157380e-04  5.3825808502563292e-04  6.9631776348037528e-04  6.6414160768301831e-04  1.3011858335077676e-03  4.0819144410647379e-04  1.6751662826756785e-03  9.1193207834339488e-04  4.3994137593963742e-05  1.3854862444281808e-03  1.4180048462045835e-03  3.5800677552690719e-04  1.2828195442486747e-03  9.8062933100229351e-04  1.0736526856418868e-03  1.4531244860722290e-03  9.3514339641626737e-04  2.2916033945935776e-03  1.1370274893881482e-03  2.0602122223386788e-03  1.1998290070682135e-03  2.7890208239697996e-03  2.5175134719786943e-03  3.5505932108796179e-03  2.7389735073364645e-03  2.0840770120966307e-03  1.7120189195880518e-03  3.5345992439559234e-03  2.3874392674737071e-03  3.4584711172781970e-03  3.0141343914893118e-03  1.8215995938566283e-03  2.6817893547025231e-04  2.9140852773172406e-03  2.8312155848737521e-03  3.2469413648096909e-03  3.4701924354828793e-03  3.5019271814741362e-03  3.2832230735185121e-03  2.4859389590956597e-03  1.4577536718496089e-03  2.1903841707244789e-03  1.3151315005615893e-03  3.6069330007389667e-03  1.3796024376699139e-03  1.2429174857411720e-04  7.3194597701627725e-05  6.0094860776819166e-06  4.9042640680334803e-04  1.5734478767247609e-03  5.0721263479221765e-04  5.5527452805368793e-04  1.0530657509133203e-04  3.8989455235777300e-05  4.8984569534077299e-05  6.6058858212019256e-05  3.6910480535848977e-05  2.7030108231415760e-05  1.6243555560259103e-05  1.5958633782541390e-05  1.9314708542052973e-05  2.6733545646188361e-05  4.7402732869038226e-05  4.8910027230669391e-05  1.0425232759803011e-04  1.6412947694115130e-05  7.9225684444997584e-06  7.5824495098449225e-06  1.1933804978530464e-06  5.2388406701226047e-06  6.2797411188928156e-06  9.2675886566835407e-06  1.0727743955864136e-05  1.1236145838255559e-05  9.3076628352544798e-06  1.5529142548576191e-05  5.6990143840320514e-06  1.2697668690963213e-05  2.4628104499204664e-05  7.2415573472717813e-06  3.0360998953973229e-05  9.1451050015741616e-07  1.6950695759943137e-05  5.7352114422748253e-06  1.2796336915191227e-05  2.8237390219281526e-06  1.3152259399700715e-05  5.4475871425368839e-07  1.1003231621012817e-05  8.8722063838844942e-06  3.6566797364112475e-06  1.6124645734808107e-05  4.1098338672865794e-06  1.0940170402361907e-06  1.0362938884101283e-06  9.7485424886974426e-07  -5.4115281637442440e-23  -1.1738577715254545e-20  4.0292869284161306e-04  6.4278918313515532e-04  5.4479765056648086e-04  6.0945288250487074e-04  2.4450419526131237e-04  5.8325568680964483e-04  1.0625586601831403e-03  1.5084882638029973e-03  1.3591281368336688e-03  5.9507735170221830e-04  5.2902486411507822e-04  3.3882856041486453e-04  3.9165113686579682e-04  1.4558670973616218e-03  1.8569018151464304e-03  4.5949332625877857e-04  7.8381391082875634e-04  1.4548234999684890e-03  1.8914847380384914e-04  1.6569087692094259e-03  1.6399517068102170e-04  1.4633326789643928e-04  1.7537744385162557e-03  1.4545905256967068e-03  2.3609564331300513e-03  8.4202632821141763e-04  7.2855362002917129e-04  1.4381955225257529e-03  2.4694181916760597e-03  4.3818433852396152e-03  2.0636617142152612e-03  1.8588447776850072e-03  4.3815396980247988e-03  1.0013630857716969e-03  4.0173082892774716e-03  1.1486575915072544e-03  2.2497461681600505e-03  3.3433395903341070e-03  3.3594138898002854e-03  3.7062226406829103e-03  3.8027759915081872e-03  3.7098204220391479e-03  3.3766895592238894e-03  2.1774608566522695e-03  7.9945579457519917e-04  2.9774854255508682e-03  1.7628493878076683e-03  3.2654118159639719e-03  3.6199259803172327e-03  2.4950541516306334e-03  1.1624229052071766e-03  3.0251879334923531e-04  8.6846111036364179e-04  9.4933045938628972e-04  1.0527021826536782e-03  2.7982827059279966e-04  4.4129908107208405e-05  4.3302434625866558e-06  5.9954845976837108e-05  5.3371514379271837e-05  3.3043513617453075e-05  2.2598371658862675e-05  1.8295453470172040e-05  1.2542616165753065e-05  2.7140080389099306e-05  3.9106154332596163e-05  2.1959953786000017e-05  1.1516634697805140e-04  7.1675069033059021e-05  1.5821285761634306e-05  7.4980462097840790e-07  6.5680372209268958e-06  1.4356101032686748e-06  6.4302769859981605e-06  8.9128735331893562e-06  8.7785299057241601e-06  9.8267005913669114e-06  1.1953888988614287e-05  9.6808954476893459e-06  1.7435380667803196e-05  1.3653488001504340e-06  2.2138798412782239e-05  1.6490037160955231e-05  1.7001496768875857e-05  2.6182164878324384e-05  1.7412324948359682e-05  8.4040750326409022e-06  1.4144642682890112e-05  1.3278167582037666e-05  5.0107916795842278e-06  9.8664361660965552e-06  6.3331418012603228e-06  1.8040472877877331e-05  1.8737682863573747e-06  8.1559147914974566e-06  1.4557425750906692e-05  1.1973194026021522e-06  1.3653573888229352e-06  8.4815409512227049e-07  -4.7082010241742864e-23  -2.0531206261611309e-20  2.1146341689711997e-04  5.1560094457004540e-04  8.5254601009305229e-04  8.9147610967236178e-04  5.9709540249395757e-05  6.8000882512193721e-04  4.5137784577300695e-04  3.7895749468581485e-04  1.7248795000912559e-03  6.4540453807662409e-04  1.6474463889883466e-03  9.0320313926380003e-04  1.1809262280440823e-04  1.4709764993373316e-03  1.7511536239820115e-03  6.5764647596967428e-04  1.1110763761423073e-03  1.1759404799618204e-03  1.3551675364062647e-03  1.2746417711869767e-03  5.0033534461622464e-04  2.0713058254273062e-03  9.4993723702581855e-04  2.2945526530492983e-03  1.4194409362110784e-03  3.1692368798094217e-03  2.7125951393902736e-03  3.7185942298189408e-03  2.6040976765262847e-03  1.6729129569944478e-03  2.7091798211979841e-03  4.3280008408066277e-03  2.3642288258389661e-03  4.9239927032159536e-03  3.3684617672935170e-03  3.0825696579545965e-03  3.3324059923258803e-04  3.6973213093127988e-03  3.6977030992797529e-03  3.9271854511902082e-03  4.1295474753070783e-03  4.1442893167278070e-03  3.8849680603923950e-03  2.9283398213613772e-03  1.5279625090815741e-03  2.7837811783065921e-03  2.0726756063012583e-03  4.4473478629965691e-03  9.5463138986250258e-04  7.1847997687560607e-04  7.4940375770776930e-04  4.7295013184562928e-04  4.3379963520447947e-04  1.8143309259158608e-03  3.3749375191524016e-04  9.2784201985136319e-04  1.1825731460272933e-04  1.8652685497625528e-05  1.8346728786035100e-06  5.8459411011210645e-05  4.0758774963821954e-05  3.0545469833302099e-05  1.8256939821226531e-05  1.6716568131175274e-05  1.8788077485263371e-05  3.0174632708032501e-05  5.4412289347616681e-05  5.1583177574894029e-05  1.3046463670204756e-04  1.7046291988272474e-05  2.0973491787853998e-05  6.1578866627142386e-06  2.9998477288059103e-06  4.4749450831665897e-06  6.2406957325635679e-06  8.5979956854828181e-06  1.0664284302364423e-05  1.1160728354179425e-05  8.0395718293486500e-06  1.5886241965466909e-05  5.7765118382972514e-06  1.4099677952654614e-05  2.2255455335845762e-05  1.1597025731221261e-05  2.7444873494347803e-05  5.4286474570751518e-06  2.4113989251725649e-05  4.8995994000234510e-06  1.9326776672051580e-05  8.6564954588401215e-06  1.3658975689434027e-05  8.4053015372828861e-07  1.7454342274358750e-05  1.1259609372480041e-05  6.4227106954752639e-07  1.7053747434139552e-05  8.0786629002143586e-06  2.1536371622067382e-06  5.8006686614464045e-07  8.1135893510511017e-23  -1.3485182569549896e-20  3.6985733147703909e-04  6.2765675222414222e-04  6.9437189203222971e-04  6.6653680660756819e-04  9.7417081936427565e-04  1.2474336878483974e-04  4.8331982614853078e-04  9.8699864199054471e-04  1.5625657986083061e-03  1.7378982068392205e-03  7.5249149574523999e-04  5.5626629007675160e-04  5.9010302822592314e-04  3.9417565240099198e-04  1.7650097894890422e-03  2.1075621134844960e-03