<?xml version="1.0"?>
<VTKFile type="UnstructuredGrid"  version="0.1"  >
<UnstructuredGrid>
<Piece  NumberOfPoints="10201" NumberOfCells="20000">
<Points>
<DataArray  type="Float64"  NumberOfComponents="3"  format="ascii">0 0 0  0.01 0 0  0.02 0 0  0.03 0 0  0.04 0 0  0.05 0 0  0.06 0 0  0.07000000000000001 0 0  0.08 0 0  0.09 0 0  0.1 0 0  0.11 0 0  0.12 0 0  0.13 0 0  0.14 0 0  0.15 0 0  0.16 0 0  0.17 0 0  0.18 0 0  0.19 0 0  0.2 0 0  0.21 0 0  0.22 0 0  0.23 0 0  0.24 0 0  0.25 0 0  0.26 0 0  0.27 0 0  0.28 0 0  0.29 0 0  0.3 0 0  0.31 0 0  0.32 0 0  0.33 0 0  0.34 0 0  0.35 0 0  0.36 0 0  0.37 0 0  0.38 0 0  0.39 0 0  0.4 0 0  0.41 0 0  0.42 0 0  0.43 0 0  0.44 0 0  0.45 0 0  0.46 0 0  0.47 0 0  0.48 0 0  0.49 0 0  0.5 0 0  0.51 0 0  0.52 0 0  0.53 0 0  0.54 0 0  0.55 0 0  0.5600000000000001 0 0  0.57 0 0  0.58 0 0  0.59 0 0  0.6 0 0  0.61 0 0  0.62 0 0  0.63 0 0  0.64 0 0  0.65 0 0  0.66 0 0  0.67 0 0  0.68 0 0  0.6899999999999999 0 0  0.7 0 0  0.71 0 0  0.72 0 0  0.73 0 0  0.74 0 0  0.75 0 0  0.76 0 0  0.77 0 0  0.78 0 0  0.79 0 0  0.8 0 0  0.8100000000000001 0 0  0.82 0 0  0.83 0 0  0.84 0 0  0.85 0 0  0.86 0 0  0.87 0 0  0.88 0 0  0.89 0 0  0.9 0 0  0.91 0 0  0.92 0 0  0.93 0 0  0.9399999999999999 0 0  0.95 0 0  0.96 0 0  0.97 0 0  0.98 0 0  0.99 0 0  1 0 0  0 0.01 0  0.01 0.01 0  0.02 0.01 0  0.03 0.01 0  0.04 0.01 0  0.05 0.01 0  0.06 0.01 0  0.07000000000000001 0.01 0  0.08 0.01 0  0.09 0.01 0  0.1 0.01 0  0.11 0.01 0  0.12 0.01 0  0.13 0.01 0  0.14 0.01 0  0.15 0.01 0  0.16 0.01 0  0.17 0.01 0  0.18 0.01 0  0.19 0.01 0  0.2 0.01 0  0.21 0.01 0  0.22 0.01 0  0.23 0.01 0  0.24 0.01 0  0.25 0.01 0  0.26 0.01 0  0.27 0.01 0  0.28 0.01 0  0.29 0.01 0  0.3 0.01 0  0.31 0.01 0  0.32 0.01 0  0.33 0.01 0  0.34 0.01 0  0.35 0.01 0  0.36 0.01 0  0.37 0.01 0  0.38 0.01 0  0.39 0.01 0  0.4 0.01 0  0.41 0.01 0  0.42 0.01 0  0.43 0.01 0  0.44 0.01 0  0.45 0.01 0  0.46 0.01 0  0.47 0.01 0  0.48 0.01 0  0.49 0.01 0  0.5 0.01 0  0.51 0.01 0  0.52 0.01 0  0.53 0.01 0  0.54 0.01 0  0.55 0.01 0  0.5600000000000001 0.01 0  0.57 0.01 0  0.58 0.01 0  0.59 0.01 0  0.6 0.01 0  0.61 0.01 0  0.62 0.01 0  0.63 0.01 0  0.64 0.01 0  0.65 0.01 0  0.66 0.01 0  0.67 0.01 0  0.68 0.01 0  0.6899999999999999 0.01 0  0.7 0.01 0  0.71 0.01 0  0.72 0.01 0  0.73 0.01 0  0.74 0.01 0  0.75 0.01 0  0.76 0.01 0  0.77 0.01 0  0.78 0.01 0  0.79 0.01 0  0.8 0.01 0  0.8100000000000001 0.01 0  0.82 0.01 0  0.83 0.01 0  0.84 0.01 0  0.85 0.01 0  0.86 0.01 0  0.87 0.01 0  0.88 0.01 0  0.89 0.01 0  0.9 0.01 0  0.91 0.01 0  0.92 0.01 0  0.93 0.01 0  0.9399999999999999 0.01 0  0.95 0.01 0  0.96 0.01 0  0.97 0.01 0  0.98 0.01 0  0.99 0.01 0  1 0.01 0  0 0.02 0  0.01 0.02 0  0.02 0.02 0  0.03 0.02 0  0.04 0.02 0  0.05 0.02 0  0.06 0.02 0  0.07000000000000001 0.02 0  0.08 0.02 0  0.09 0.02 0  0.1 0.02 0  0.11 0.02 0  0.12 0.02 0  0.13 0.02 0  0.14 0.02 0  0.15 0.02 0  0.16 0.02 0  0.17 0.02 0  0.18 0.02 0  0.19 0.02 0  0.2 0.02 0  0.21 0.02 0  0.22 0.02 0  0.23 0.02 0  0.24 0.02 0  0.25 0.02 0  0.26 0.02 0  0.27 0.02 0  0.28 0.02 0  0.29 0.02 0  0.3 0.02 0  0.31 0.02 0  0.32 0.02 0  0.33 0.02 0  0.34 0.02 0  0.35 0.02 0  0.36 0.02 0  0.37 0.02 0  0.38 0.02 0  0.39 0.02 0  0.4 0.02 0  0.41 0.02 0  0.42 0.02 0  0.43 0.02 0  0.44 0.02 0  0.45 0.02 0  0.46 0.02 0  0.47 0.02 0  0.48 0.02 0  0.49 0.02 0  0.5 0.02 0  0.51 0.02 0  0.52 0.02 0  0.53 0.02 0  0.54 0.02 0  0.55 0.02 0  0.5600000000000001 0.02 0  0.57 0.02 0  0.58 0.02 0  0.59 0.02 0  0.6 0.02 0  0.61 0.02 0  0.62 0.02 0  0.63 0.02 0  0.64 0.02 0  0.65 0.02 0  0.66 0.02 0  0.67 0.02 0  0.68 0.02 0  0.6899999999999999 0.02 0  0.7 0.02 0  0.71 0.02 0  0.72 0.02 0  0.73 0.02 0  0.74 0.02 0  0.75 0.02 0  0.76 0.02 0  0.77 0.02 0  0.78 0.02 0  0.79 0.02 0  0.8 0.02 0  0.8100000000000001 0.02 0  0.82 0.02 0  0.83 0.02 0  0.84 0.02 0  0.85 0.02 0  0.86 0.02 0  0.87 0.02 0  0.88 0.02 0  0.89 0.02 0  0.9 0.02 0  0.91 0.02 0  0.92 0.02 0  0.93 0.02 0  0.9399999999999999 0.02 0  0.95 0.02 0  0.96 0.02 0  0.97 0.02 0  0.98 0.02 0  0.99 0.02 0  1 0.02 0  0 0.03 0  0.01 0.03 0  0.02 0.03 0  0.03 0.03 0  0.04 0.03 0  0.05 0.03 0  0.06 0.03 0  0.07000000000000001 0.03 0  0.08 0.03 0  0.09 0.03 0  0.1 0.03 0  0.11 0.03 0  0.12 0.03 0  0.13 0.03 0  0.14 0.03 0  0.15 0.03 0  0.16 0.03 0  0.17 0.03 0  0.18 0.03 0  0.19 0.03 0  0.2 0.03 0  0.21 0.03 0  0.22 0.03 0  0.23 0.03 0  0.24 0.03 0  0.25 0.03 0  0.26 0.03 0  0.27 0.03 0  0.28 0.03 0  0.29 0.03 0  0.3 0.03 0  0.31 0.03 0  0.32 0.03 0  0.33 0.03 0  0.34 0.03 0  0.35 0.03 0  0.36 0.03 0  0.37 0.03 0  0.38 0.03 0  0.39 0.03 0  0.4 0.03 0  0.41 0.03 0  0.42 0.03 0  0.43 0.03 0  0.44 0.03 0  0.45 0.03 0  0.46 0.03 0  0.47 0.03 0  0.48 0.03 0  0.49 0.03 0  0.5 0.03 0  0.51 0.03 0  0.52 0.03 0  0.53 0.03 0  0.54 0.03 0  0.55 0.03 0  0.5600000000000001 0.03 0  0.57 0.03 0  0.58 0.03 0  0.59 0.03 0  0.6 0.03 0  0.61 0.03 0  0.62 0.03 0  0.63 0.03 0  0.64 0.03 0  0.65 0.03 0  0.66 0.03 0  0.67 0.03 0  0.68 0.03 0  0.6899999999999999 0.03 0  0.7 0.03 0  0.71 0.03 0  0.72 0.03 0  0.73 0.03 0  0.74 0.03 0  0.75 0.03 0  0.76 0.03 0  0.77 0.03 0  0.78 0.03 0  0.79 0.03 0  0.8 0.03 0  0.8100000000000001 0.03 0  0.82 0.03 0  0.83 0.03 0  0.84 0.03 0  0.85 0.03 0  0.86 0.03 0  0.87 0.03 0  0.88 0.03 0  0.89 0.03 0  0.9 0.03 0  0.91 0.03 0  0.92 0.03 0  0.93 0.03 0  0.9399999999999999 0.03 0  0.95 0.03 0  0.96 0.03 0  0.97 0.03 0  0.98 0.03 0  0.99 0.03 0  1 0.03 0  0 0.04 0  0.01 0.04 0  0.02 0.04 0  0.03 0.04 0  0.04 0.04 0  0.05 0.04 0  0.06 0.04 0  0.07000000000000001 0.04 0  0.08 0.04 0  0.09 0.04 0  0.1 0.04 0  0.11 0.04 0  0.12 0.04 0  0.13 0.04 0  0.14 0.04 0  0.15 0.04 0  0.16 0.04 0  0.17 0.04 0  0.18 0.04 0  0.19 0.04 0  0.2 0.04 0  0.21 0.04 0  0.22 0.04 0  0.23 0.04 0  0.24 0.04 0  0.25 0.04 0  0.26 0.04 0  0.27 0.04 0  0.28 0.04 0  0.29 0.04 0  0.3 0.04 0  0.31 0.04 0  0.32 0.04 0  0.33 0.04 0  0.34 0.04 0  0.35 0.04 0  0.36 0.04 0  0.37 0.04 0  0.38 0.04 0  0.39 0.04 0  0.4 0.04 0  0.41 0.04 0  0.42 0.04 0  0.43 0.04 0  0.44 0.04 0  0.45 0.04 0  0.46 0.04 0  0.47 0.04 0  0.48 0.04 0  0.49 0.04 0  0.5 0.04 0  0.51 0.04 0  0.52 0.04 0  0.53 0.04 0  0.54 0.04 0  0.55 0.04 0  0.5600000000000001 0.04 0  0.57 0.04 0  0.58 0.04 0  0.59 0.04 0  0.6 0.04 0  0.61 0.04 0  0.62 0.04 0  0.63 0.04 0  0.64 0.04 0  0.65 0.04 0  0.66 0.04 0  0.67 0.04 0  0.68 0.04 0  0.6899999999999999 0.04 0  0.7 0.04 0  0.71 0.04 0  0.72 0.04 0  0.73 0.04 0  0.74 0.04 0  0.75 0.04 0  0.76 0.04 0  0.77 0.04 0  0.78 0.04 0  0.79 0.04 0  0.8 0.04 0  0.8100000000000001 0.04 0  0.82 0.04 0  0.83 0.04 0  0.84 0.04 0  0.85 0.04 0  0.86 0.04 0  0.87 0.04 0  0.88 0.04 0  0.89 0.04 0  0.9 0.04 0  0.91 0.04 0  0.92 0.04 0  0.93 0.04 0  0.9399999999999999 0.04 0  0.95 0.04 0  0.96 0.04 0  0.97 0.04 0  0.98 0.04 0  0.99 0.04 0  1 0.04 0  0 0.05 0  0.01 0.05 0  0.02 0.05 0  0.03 0.05 0  0.04 0.05 0  0.05 0.05 0  0.06 0.05 0  0.07000000000000001 0.05 0  0.08 0.05 0  0.09 0.05 0  0.1 0.05 0  0.11 0.05 0  0.12 0.05 0  0.13 0.05 0  0.14 0.05 0  0.15 0.05 0  0.16 0.05 0  0.17 0.05 0  0.18 0.05 0  0.19 0.05 0  0.2 0.05 0  0.21 0.05 0  0.22 0.05 0  0.23 0.05 0  0.24 0.05 0  0.25 0.05 0  0.26 0.05 0  0.27 0.05 0  0.28 0.05 0  0.29 0.05 0  0.3 0.05 0  0.31 0.05 0  0.32 0.05 0  0.33 0.05 0  0.34 0.05 0  0.35 0.05 0  0.36 0.05 0  0.37 0.05 0  0.38 0.05 0  0.39 0.05 0  0.4 0.05 0  0.41 0.05 0  0.42 0.05 0  0.43 0.05 0  0.44 0.05 0  0.45 0.05 0  0.46 0.05 0  0.47 0.05 0  0.48 0.05 0  0.49 0.05 0  0.5 0.05 0  0.51 0.05 0  0.52 0.05 0  0.53 0.05 0  0.54 0.05 0  0.55 0.05 0  0.5600000000000001 0.05 0  0.57 0.05 0  0.58 0.05 0  0.59 0.05 0  0.6 0.05 0  0.61 0.05 0  0.62 0.05 0  0.63 0.05 0  0.64 0.05 0  0.65 0.05 0  0.66 0.05 0  0.67 0.05 0  0.68 0.05 0  0.6899999999999999 0.05 0  0.7 0.05 0  0.71 0.05 0  0.72 0.05 0  0.73 0.05 0  0.74 0.05 0  0.75 0.05 0  0.76 0.05 0  0.77 0.05 0  0.78 0.05 0  0.79 0.05 0  0.8 0.05 0  0.8100000000000001 0.05 0  0.82 0.05 0  0.83 0.05 0  0.84 0.05 0  0.85 0.05 0  0.86 0.05 0  0.87 0.05 0  0.88 0.05 0  0.89 0.05 0  0.9 0.05 0  0.91 0.05 0  0.92 0.05 0  0.93 0.05 0  0.9399999999999999 0.05 0  0.95 0.05 0  0.96 0.05 0  0.97 0.05 0  0.98 0.05 0  0.99 0.05 0  1 0.05 0  0 0.06 0  0.01 0.06 0  0.02 0.06 0  0.03 0.06 0  0.04 0.06 0  0.05 0.06 0  0.06 0.06 0  0.07000000000000001 0.06 0  0.08 0.06 0  0.09 0.06 0  0.1 0.06 0  0.11 0.06 0  0.12 0.06 0  0.13 0.06 0  0.14 0.06 0  0.15 0.06 0  0.16 0.06 0  0.17 0.06 0  0.18 0.06 0  0.19 0.06 0  0.2 0.06 0  0.21 0.06 0  0.22 0.06 0  0.23 0.06 0  0.24 0.06 0  0.25 0.06 0  0.26 0.06 0  0.27 0.06 0  0.28 0.06 0  0.29 0.06 0  0.3 0.06 0  0.31 0.06 0  0.32 0.06 0  0.33 0.06 0  0.34 0.06 0  0.35 0.06 0  0.36 0.06 0  0.37 0.06 0  0.38 0.06 0  0.39 0.06 0  0.4 0.06 0  0.41 0.06 0  0.42 0.06 0  0.43 0.06 0  0.44 0.06 0  0.45 0.06 0  0.46 0.06 0  0.47 0.06 0  0.48 0.06 0  0.49 0.06 0  0.5 0.06 0  0.51 0.06 0  0.52 0.06 0  0.53 0.06 0  0.54 0.06 0  0.55 0.06 0  0.5600000000000001 0.06 0  0.57 0.06 0  0.58 0.06 0  0.59 0.06 0  0.6 0.06 0  0.61 0.06 0  0.62 0.06 0  0.63 0.06 0  0.64 0.06 0  0.65 0.06 0  0.66 0.06 0  0.67 0.06 0  0.68 0.06 0  0.6899999999999999 0.06 0  0.7 0.06 0  0.71 0.06 0  0.72 0.06 0  0.73 0.06 0  0.74 0.06 0  0.75 0.06 0  0.76 0.06 0  0.77 0.06 0  0.78 0.06 0  0.79 0.06 0  0.8 0.06 0  0.8100000000000001 0.06 0  0.82 0.06 0  0.83 0.06 0  0.84 0.06 0  0.85 0.06 0  0.86 0.06 0  0.87 0.06 0  0.88 0.06 0  0.89 0.06 0  0.9 0.06 0  0.91 0.06 0  0.92 0.06 0  0.93 0.06 0  0.9399999999999999 0.06 0  0.95 0.06 0  0.96 0.06 0  0.97 0.06 0  0.98 0.06 0  0.99 0.06 0  1 0.06 0  0 0.07000000000000001 0  0.01 0.07000000000000001 0  0.02 0.07000000000000001 0  0.03 0.07000000000000001 0  0.04 0.07000000000000001 0  0.05 0.07000000000000001 0  0.06 0.07000000000000001 0  0.07000000000000001 0.07000000000000001 0  0.08 0.07000000000000001 0  0.09 0.07000000000000001 0  0.1 0.07000000000000001 0  0.11 0.07000000000000001 0  0.12 0.07000000000000001 0  0.13 0.07000000000000001 0  0.14 0.07000000000000001 0  0.15 0.07000000000000001 0  0.16 0.07000000000000001 0  0.17 0.0700
[...]
<PointData  Scalars="u"> 
<DataArray  type="Float64"  Name="u"  format="ascii">0.0000000000000000e+00  0.0000000000000000e+00  0.0000000000000000e+00  0.0000000000000000e+00  0.0000000000000000e+00  0.0000000000000000e+00  0.0000000000000000e+00  0.0000000000000000e+00  0.0000000000000000e+00  0.0000000000000000e+00  0.0000000000000000e+00  0.0000000000000000e+00  0.0000000000000000e+00  0.0000000000000000e+00  0.0000000000000000e+00  0.0000000000000000e+00  0.0000000000000000e+00  0.0000000000000000e+00  0.0000000000000000e+00  0.0000000000000000e+00  0.0000000000000000e+00  0.0000000000000000e+00  0.0000000000000000e+00  0.0000000000000000e+00  0.0000000000000000e+00  0.0000000000000000e+00  0.0000000000000000e+00  0.0000000000000000e+00  0.0000000000000000e+00  0.0000000000000000e+00  0.0000000000000000e+00  0.0000000000000000e+00  0.0000000000000000e+00  0.0000000000000000e+00  0.0000000000000000e+00  0.0000000000000000e+00  0.0000000000000000e+00  0.0000000000000000e+00  0.0000000000000000e+00  0.0000000000000000e+00  0.0000000000000000e+00  0.0000000000000000e+00  0.0000000000000000e+00  0.0000000000000000e+00  0.0000000000000000e+00  0.0000000000000000e+00  0.0000000000000000e+00  0.0000000000000000e+00  0.0000000000000000e+00  0.0000000000000000e+00  0.0000000000000000e+00  0.0000000000000000e+00  0.0000000000000000e+00  0.0000000000000000e+00  0.0000000000000000e+00  0.0000000000000000e+00  0.0000000000000000e+00  0.0000000000000000e+00  0.0000000000000000e+00  0.0000000000000000e+00  0.0000000000000000e+00  0.0000000000000000e+00  0.0000000000000000e+00  0.0000000000000000e+00  0.0000000000000000e+00  0.0000000000000000e+00  0.0000000000000000e+00  0.0000000000000000e+00  0.0000000000000000e+00  0.0000000000000000e+00  0.0000000000000000e+00  0.0000000000000000e+00  0.0000000000000000e+00  0.0000000000000000e+00  0.0000000000000000e+00  0.0000000000000000e+00  0.0000000000000000e+00  0.0000000000000000e+00  0.0000000000000000e+00  0.0000000000000000e+00  0.0000000000000000e+00  0.0000000000000000e+00  0.0000000000000000e+00  0.0000000000000000e+00  0.0000000000000000e+00  0.0000000000000000e+00  0.0000000000000000e+00  0.0000000000000000e+00  0.0000000000000000e+00  0.0000000000000000e+00  0.0000000000000000e+00  0.0000000000000000e+00  0.0000000000000000e+00  0.0000000000000000e+00  0.0000000000000000e+00  0.0000000000000000e+00  0.0000000000000000e+00  0.0000000000000000e+00  0.0000000000000000e+00  0.0000000000000000e+00  0.0000000000000000e+00  0.0000000000000000e+00  5.9765985635239956e-07  1.2112359243329644e-06  1.8411070867464858e-06  2.4875028706707306e-06  3.1506160386691309e-06  3.8306042456154451e-06  4.5275849370497924e-06  5.2416296343025878e-06  5.9727577425350276e-06  6.7209298747889714e-06  7.4860406903730994e-06  8.2679112534085453e-06  9.0662809270776203e-06  9.8807988308099284e-06  1.0711014901464761e-05  1.1556370615635082e-05  1.2416189448667008e-05  1.3289667166738514e-05  1.4175862071564599e-05  1.5073685342498120e-05  1.5981891648019716e-05  1.6899070227052142e-05  1.7823636669768167e-05  1.8753825656522368e-05  1.9687684941220074e-05  2.0623070890303168e-05  2.1557645909115473e-05  2.2488878101665923e-05  2.3414043515883208e-05  2.4330231322007250e-05  2.5234352254775990e-05  2.6123150618433809e-05  2.6993220105645255e-05  2.7841023615724983e-05  2.8662917173890249e-05  2.9455177951507759e-05  3.0214036269259256e-05  3.0935711333110248e-05  3.1616450311112601e-05  3.2252570212501025e-05  3.2840501885627585e-05  3.3376835315517202e-05  3.3858365282853763e-05  3.4282136352290103e-05  3.4645486096295111e-05  3.4946085437856924e-05  3.5181975015768062e-05  3.5351596542339907e-05  3.5453818234956082e-05  3.5487953556734645e-05  3.5453772691911168e-05  3.5351506399875959e-05  3.5181842127803798e-05  3.4945912503737934e-05  3.4645276567881746e-05  3.4281894317864277e-05  3.3858095333768772e-05  3.3376542402115722e-05  3.2840191169136325e-05  3.2252246919337362e-05  3.1616119595418086e-05  3.0935378152398678e-05  3.0213705276958119e-05  2.9454853408926483e-05  2.8662602882978435e-05  2.7840722872789460e-05  2.6992935675260276e-05  2.6122884725945362e-05  2.5234106595186965e-05  2.4330007082700765e-05  2.3413841410377093e-05  2.2488698411659447e-05  2.1557488532131565e-05  2.0622935390505453e-05  1.9687570601289877e-05  1.8753731528793285e-05  1.7823561625186392e-05  1.6899013000889562e-05  1.5981850881551854e-05  1.5073659620208128e-05  1.4175849953604391e-05  1.3289667216648506e-05  1.2416200256476890e-05  1.1556390816602731e-05  1.0711043190779918e-05  9.8808339746752836e-06  9.0663217705518817e-06  8.2679567254704149e-06  7.4860898065893459e-06  6.7209817379966061e-06  5.9728115418982353e-06  5.2416846430624175e-06  4.5276405092065862e-06  3.8306598113894391e-06  3.1506710958436364e-06  2.4875569490054393e-06  1.8411595127882482e-06  1.2112840537365280e-06  5.9768899271262226e-07  0.0000000000000000e+00  0.0000000000000000e+00  1.2111735787495526e-06  2.4562399648860642e-06  3.7358047530658272e-06  5.0504756383500094e-06  6.4007774945211663e-06  7.7871606143814243e-06  9.2099978738505881e-06  1.0669573197906803e-05  1.2166068370767386e-05  1.3699548688671987e-05  1.5269947444418800e-05  1.6877049235436455e-05  1.8520472106656129e-05  2.0199648563695199e-05  2.1913805521261762e-05  2.3661943286679740e-05  2.5442813719266628e-05  2.7254897753439507e-05  2.9096382526689277e-05  3.0965138413107750e-05  3.2858696328177332e-05  3.4774225740453826e-05  3.6708513899059484e-05  3.8657946860703111e-05  4.0618492973853663e-05  4.2585689547213382e-05  4.4554633491296760e-05  4.6519976770673560e-05  4.8475927535429341e-05  5.0416257807890860e-05  5.2334318578665988e-05  5.4223063109034606e-05  5.6075079139258414e-05  5.7882630560237426e-05  5.9637708916634148e-05  6.1332094872342704e-05  6.2957429486544379e-05  6.4505294825793018e-05  6.5967303083714878e-05  6.7335193007784673e-05  6.8600932058074398e-05  6.9756822365275148e-05  7.0795608235138893e-05  7.1710582685970657e-05  7.2495690325127116e-05  7.3145623788155954e-05  7.3655910993674538e-05  7.4022990616168810e-05  7.4244273448154842e-05  7.4318187705220279e-05  7.4244206807252830e-05  7.4022858724609179e-05  7.3655716580963308e-05  7.3145370824000215e-05  7.2495383877856426e-05  7.1710228746224019e-05  7.0795213514206196e-05  6.9756394078374195e-05  6.8600477703040902e-05  6.7334720149076144e-05  6.5966819150581606e-05  6.4504806931835876e-05  6.2956944276105304e-05  6.1331618397141369e-05  5.9637246544198853e-05  5.7882186913912976e-05  5.6074658068087292e-05  5.4222667684667087e-05  5.2333951115618781e-05  5.0415919903013787e-05  4.8475620122266314e-05  4.6519700184494138e-05  4.4554387540842286e-05  4.2585473589654627e-05  4.0618305989958404e-05  3.8657787527777921e-05  3.6708380659750142e-05  3.4774116866094374e-05  3.2858609975727232e-05  3.0965072675252168e-05  2.9096335474927918e-05  2.7254867474297480e-05  2.5442798343954063e-05  2.3661941014679362e-05  2.1913814638401311e-05  2.0199667455327625e-05  1.8520499266583431e-05  1.6877083271189062e-05  1.5269987079493248e-05  1.3699592762270203e-05  1.2166115835537019e-05  1.0669623116122759e-05  9.2100494123578926e-06  7.7872130382367472e-06  6.4008301563413495e-06  5.0505279492561621e-06  3.7358564674697033e-06  2.4562978208819263e-06  1.2112631937289279e-06  0.0000000000000000e+00  0.0000000000000000e+00  1.8410528497978394e-06  3.7358235887518357e-06  5.6853858440332983e-06  7.6908831588281623e-06  9.7532948327235730e-06  1.1873525746861414e-05  1.4052368104666447e-05  1.6290486415300692e-05  1.8588397286847523e-05  2.0946446491205945e-05  2.3364783904501890e-05  2.5843336315117641e-05  2.8381778077933404e-05  3.0979499629235543e-05  3.3635573922593375e-05  3.6348720901795140e-05  3.9117270193823958e-05  4.1939122283485915e-05  4.4811708522245819e-05  4.7731950427391974e-05  5.0696218843287334e-05  5.3700293663444769e-05  5.6739324948346246e-05  5.9807796416817415e-05  6.2899492433834671e-05  6.6007469760102975e-05  6.9124035461110269e-05  7.2240732487816536e-05  7.5348334527746579e-05  7.8436851772909521e-05  8.1495549248357738e-05  8.4512979279521928e-05  8.7477029537133105e-05  9.0374987874291334e-05  9.3193624854667114e-05  9.5919294459520949e-05  9.8538052955996316e-05  1.0103579531789232e-04  1.0339840792778273e-04  1.0561193557854990e-04  1.0766276006393560e-04  1.0953778693775387e-04  1.1122463637291114e-04  1.1271183350740928e-04  1.1398899326997858e-04  1.1504699447047562e-04  1.1587813795136965e-04  1.1647628384428040e-04  1.1683696346409020e-04  1.1695746208958441e-04  1.1683686979497879e-04  1.1647609856649999e-04  1.1587786510590643e-04  1.1504663992383165e-04  1.1398856449329424e-04  1.1271133930252294e-04  1.1122408656073469e-04  1.0953719202570419e-04  1.0766213090919165e-04  1.0561128306289974e-04  1.0339774265766337e-04  1.0103512736068082e-04  9.8537391620221829e-05  9.5918648123644758e-05  9.3193000845768361e-05  9.0374392395423350e-05  8.7476467639737007e-05  8.4512454875658184e-05  8.1495065156451447e-05  7.8436409790127659e-05  7.5347935522064325e-05  7.2240376503268733e-05  6.9123721830161489e-05  6.6007197218088249e-05  6.2899259231140618e-05  5.9807600425526645e-05  5.6739163760881164e-05  5.3700164681566531e-05  5.0696119356574887e-05  4.7731877680771310e-05  4.4811659772788400e-05  4.1939094846876100e-05  3.9117261481277242e-05  3.6348728448292651e-05  3.3635595407433995e-05  3.0979532889892182e-05  2.8381821118243598e-05  2.5843387308718283e-05  2.3364841194415297e-05  2.0946508586354494e-05  1.8588462856202190e-05  1.6290554280278385e-05  1.4052437230297265e-05  1.1873595232716064e-05  9.7533639441416994e-06  7.6909520864832939e-06  5.6854602089169959e-06  3.7358957212037552e-06  1.8411718345786376e-06  0.0000000000000000e+00  0.0000000000000000e+00  2.4874593685552359e-06  5.0504731479661362e-06  7.6909196745898377e-06  1.0410424530044142e-05  1.3210716330870659e-05  1.6093313784143380e-05  1.9059619217984500e-05  2.2110877637387145e-05  2.5248146992915713e-05  2.8472266237228347e-05  3.1783819659733170e-05  3.5183097767312419e-05  3.8670054676923695e-05  4.2244261974148460e-05  4.5904859049942251e-05  4.9650500005125947e-05  5.3479297307126428e-05  5.7388762498077529e-05  6.1375744389103459e-05  6.5436365333304355e-05  6.9565956350424934e-05  7.3758992078293628e-05  7.8009026748479440e-05  8.2308632622344943e-05  8.6649342573555586e-05  9.1021598756225761e-05  9.5414709543907697e-05  9.9816817150537280e-05  1.0421487853382192e-04  1.0859466231660383e-04  1.1294076452088125e-04  1.1723664587033883e-04  1.2146469325961608e-04  1.2560630768898169e-04  1.2964202050696168e-04  1.3355163917801567e-04  1.3731442299576565e-04  1.4090928820183180e-04  1.4431504086853190e-04  1.4751063469500952e-04  1.5047544960103962e-04  1.5318958574598028e-04  1.5563416642480979e-04  1.5779164228170995e-04  1.5964608851493846e-04  1.6118348630015172e-04  1.6239197959399111e-04  1.6326209883479097e-04  1.6378694384541135e-04  1.6396231944592501e-04  1.6378681885047006e-04  1.6326185177359764e-04  1.6239161620322442e-04  1.6118301489080901e-04  1.5964551964044388e-04  1.5779098832822063e-04  1.5563344114807957e-04  1.5318880378094717e-04  1.5047462597007820e-04  1.4750978433881526e-04  1.4431417821994329e-04  1.4090842681828070e-04  1.3731357526093534e-04  1.3355081607796122e-04  1.2964123148142911e-04  1.2560556055421683e-04  1.2146399419590423e-04  1.1723599946529086e-04  1.1294017385802855e-04  1.0859412909854782e-04  1.0421440322934704e-04  9.9816399156132376e-05  9.5414347350961651e-05  9.1021290116995404e-05  8.6649084660191865e-05  8.2308422174750208e-05  7.8008860208212511e-05  7.3758865706795510e-05  6.9565866330864294e-05  6.5436307856125156e-05  6.1375715721934465e-05  5.7388759041106146e-05  5.3479315635279937e-05  4.9650536898599493e-05  4.5904911514620585e-05  4.2244327253477197e-05  3.8670130256682774e-05  3.5183181374652404e-05  3.1783909257685126e-05  2.8472360015768056e-05  2.5248243357511283e-05  2.2110975195919219e-05  1.9059716770105439e-05  1.6093410379300047e-05  1.3210811857310437e-05  1.0410519910721692e-05  7.6910022291533190e-06  5.0506165356557932e-06  2.4876118088153359e-06  0.0000000000000000e+00  0.0000000000000000e+00  3.1505821649634801e-06  6.4007953925153315e-06  9.7533247345347840e-06  1.3210753571102011e-05  1.6775538096381534e-05  2.0450098354188925e-05  2.4236667816577750e-05  2.8137304344491583e-05  3.2153852900206375e-05  3.6287901206130697e-05  4.0540732480415401e-05  4.4913273119504513e-05  4.9406035111704791e-05  5.4019053058506847e-05  5.8751815710846383e-05  6.3603192018973483e-05  6.8571351817417746e-05  7.3653681419294140e-05  7.8846694580028554e-05  8.4145939512168301e-05  8.9545902892194845e-05  9.5039912098047205e-05  1.0062003725118815e-04  1.0627699500623441e-04  1.1200005642819057e-04  1.1777696171192145e-04  1.2359384491698433e-04  1.2943517229392558e-04  1.3528369814161243e-04  1.4112044243053622e-04  1.4692469461936901e-04  1.5267404814715688e-04  1.5834446995275812e-04  1.6391040903893510e-04  1.6934494749286494e-04  1.7461999651092021e-04  1.7970653880359364e-04  1.8457491730628601e-04  1.8919516840165037e-04  1.9353739593143629e-04  1.9757218020885923e-04  2.0127101414418660e-04  2.0460675659068645e-04  2.0755409124373795e-04  2.1008997802871151e-04  2.1219408302966563e-04  2.1384917275535625e-04  2.1504145899211416e-04  2.1576088168263284e-04  2.1600131917643177e-04  2.1576071773634506e-04  2.1504113522196033e-04  2.1384869722479032e-04  2.1219346739282107e-04  2.1008923703462831e-04  2.0755324212760279e-04  2.0460581839065281e-04  2.0127000698422803e-04  1.9757112458785350e-04  1.9353631205450386e-04  1.8919407558348997e-04  1.8457383346842546e-04  1.7970548007915872e-04  1.7461897696260926e-04  1.6934397894231696e-04  1.6390950099927826e-04  1.5834362965260084e-04  1.5267328063017042e-04  1.4692400290367729e-04  1.4111982770972548e-04  1.3528316001425051e-04  1.2943470900468170e-04  1.2359345360004180e-04  1.1777663862596215e-04  1.1199979717619007e-04  1.0627679473510646e-04  1.0061989082834538e-04  9.5039814263494680e-05  8.9545848386059630e-05  8.4145923178674485e-05  7.8846711449466041e-05  7.3653726770129437e-05  6.8571421220838433e-05  6.3603281368304463e-05  5.8751921238209666e-05  5.4019171340987187e-05  4.9406163069063170e-05  4.4913408005338887e-05  4.0540871868351443e-05  3.6288042972472310e-05  3.2153995204485677e-05  2.8137445614728922e-05  2.4236806794811941e-05  2.0450234267838668e-05  1.6775669150419863e-05  1.3210876334011615e-05  9.7534781693351733e-06  6.4009815434883838e-06  3.1507804904675276e-06  0.0000000000000000e+00  0.0000000000000000e+00  3.8305816660304521e-06  7.7871960061023841e-06  1.1873563184253916e-05  1.6093376738325744e-05  2.0450133153118325e-05  2.4947349379397402e-05  2.9588353743972938e-05  3.4376299951933162e-05  3.9314109036897705e-05  4.4404422370165885e-05  4.9649541131651314e-05  5.5051359456622669e-05  6.0611290337262200e-05  6.6330183733185184e-05  7.2208236610537163e-05  7.8244894730012632e-05  8.4438746146309134e-05  9.0787406570435179e-05  9.7287396984120780e-05  1.0393401418771493e-04  1.1072119531389590e-04  1.1764137775325800e-04  1.2468535641535234e-04  1.3184214078859903e-04  1.3909881485877856e-04  1.4644040358750531e-04  1.5384975032153419e-04  1.6130741017539814e-04  1.6879156507255337e-04  1.7627796669309091e-04  1.8373991402232333e-04  1.9114827244668851e-04  1.9847154135109476e-04  2.0567597684813783e-04  2.1272577559814862e-04  2.1958332450808528e-04  2.2620951952227652e-04  2.3256415460034337e-04  2.3860637942242581e-04  2.4429522140101238e-04  2.4959016433555021e-04  2.5445177265660633e-04  2.5884234691169003e-04  2.6272659313050431e-04  2.6607228626158021e-04  2.6885090620830350e-04  2.7103822433278274e-04  2.7261481879464029e-04  2.7356649881037787e-04  2.7388462083713193e-04  2.7356628367973019e-04  2.7261439436006551e-04  2.7103760197305676e-04  2.6885010232505528e-04  2.6607132153345139e-04  2.6272549160340279e-04  2.5884113498546784e-04  2.5445047803193736e-04  2.4958881498417880e-04  2.4429384461322509e-04  2.3860500097395962e-04  2.3256279807069689e-04  2.2620820577874275e-04  2.1958207136306009e-04  2.1272459762948447e-04  2.0567488536806861e-04  1.9847054450241567e-04  1.9114737540147446e-04  1.8373911925161638e-04  1.7627727429201905e-04  1.6879097310779575e-04  1.6130691504194397e-04  1.5384934709105130e-04  1.4644008633634431e-04  1.3909857696616071e-04  1.3184197520132182e-04  1.2468525587544402e-04  1.1764133498858090e-04  1.1072120319298590e-04  1.0393406584127756e-04  9.7287485896445386e-05  9.0787526644310826e-05  8.4438891745246215e-05  7.8245060701408114e-05  7.2208418293319521e-05  6.6330376953078164e-05  6.0611491392526062e-05  5.5051565096714172e-05  4.9649748530926666e-05  4.4404629098875482e-05  3.9314313036712325e-05  3.4376499537736023e-05  2.9588547482126361e-05  2.4947535198971330e-05  2.0450313715104078e-05  1.6093553918347446e-05  1.1873787736224179e-05  7.7874409053149876e-06  3.8308358006017179e-06  0.0000000000000000e+00  0.0000000000000000e+00  4.5275745035359686e-06  9.2100515501337888e-06  1.4052433352812653e-05  1.9059680425136382e-05  2.4236749343653527e-05  2.9588390523739826e-05  3.5119402670232702e-05  4.0834332260687560e-05  4.6737523568581993e-05  5.2833034069913171e-05  5.9124565171231875e-05  6.5615380714154471e-05  7.2308214994136683e-05  7.9205170150708110e-05  8.6307602203930642e-05  9.3615995230802681e-05  1.0112982334944324e-04  1.0884740039477864e-04  1.1676571745434750e-04  1.2488026879615754e-04  1.3318486717131498e-04  1.4167145002109120e-04  1.5032987876730010e-04  1.5914773411960362e-04  1.6811011118961474e-04  1.7719941915183193e-04  1.8639519121397966e-04  1.9567391172434014e-04  2.0500886830948780e-04  2.1437003794022585e-04  2.2372401668147805e-04  2.3303400353068561e-04  2.4225984908277768e-04  2.5135817952594779e-04  2.6028260593907932e-04  2.6898402733594812e-04  2.7741103391725960e-04  2.8551041401191736e-04  2.9322776456738246e-04  3.0050820055413060e-04  3.0729715373926242e-04  3.1354124596283124e-04  3.1918921665877008e-04  3.2419287946648548e-04  3.2850807850349107e-04  3.3209561188545737e-04  3.3492208861100750e-04  3.3696068530701597e-04  3.3819177176109443e-04  3.3860337850946030e-04  3.3819148594764432e-04  3.3696012202772931e-04  3.3492126413811032e-04  3.3209454960393247e-04  3.2850680777115894e-04  3.2419143423628976e-04  3.1918763395107335e-04  3.1353956430221389e-04  3.0729541164924731e-04  3.0050643518824544e-04  2.9322601054693117e-04  2.8550870249429035e-04  2.7740939193864652e-04  2.6898247741042507e-04  2.6028116589397430e-04  2.5135686256419867e-04  2.4225866400999968e-04  2.3303295512048123e-04  2.2372310612171718e-04  2.1436926335260633e-04  2.0500822526377748e-04  1.9567339376570599e-04  1.8639479035779502e-04  1.7719912633393765e-04  1.6810991666750251e-04  1.5914762781758018e-04  1.5032985056441679e-04  1.4167148998424944e-04  1.3318496573726471e-04  1.2488041690728906e-04  1.1676590665421325e-04  1.0884762288912069e-04  1.0113007203860974e-04  9.3616263718982368e-05  8.6307884790142817e-05  7.9205461805901799e-05  7.2308511328193951e-05  6.5615677935946409e-05  5.9124860044953107e-05  5.2833323873021610e-05  4.6737806045074473e-05  4.0834605445135679e-05  3.5119664994693033e-05  2.9588644077011233e-05  2.4236982336187623e-05  1.9059955525842852e-05  1.4052723674881380e-05  9.2103688047399043e-06  4.5278963697095698e-06  0.0000000000000000e+00  0.0000000000000000e+00  5.2416323803749528e-06  1.0669647483475282e-05  1.6290575796376299e-05  2.2110966949911186e-05  2.8137396631626941e-05  3.4376387561914687e-05  4.0834374016301039e-05  4.7517746849972938e-05  5.4432659296615847e-05  6.1585013121083349e-05  6.8980366830470195e-05  7.6623838121201403e-05  8.4519994218205846e-05  9.2672727290668360e-05  1.0108511442018516e-04  1.0975926114974831e-04  1.1869612777814558e-04  1.2789533780777098e-04  1.3735496827252410e-04  1.4707132209672343e-04  1.5703868318446562e-04  1