<?xml version="1.0"?>
<VTKFile type="UnstructuredGrid"  version="0.1"  >
<UnstructuredGrid>
<Piece  NumberOfPoints="10201" NumberOfCells="20000">
<Points>
<DataArray  type="Float64"  NumberOfComponents="3"  format="ascii">0 0 0  0.01 0 0  0.02 0 0  0.03 0 0  0.04 0 0  0.05 0 0  0.06 0 0  0.07000000000000001 0 0  0.08 0 0  0.09 0 0  0.1 0 0  0.11 0 0  0.12 0 0  0.13 0 0  0.14 0 0  0.15 0 0  0.16 0 0  0.17 0 0  0.18 0 0  0.19 0 0  0.2 0 0  0.21 0 0  0.22 0 0  0.23 0 0  0.24 0 0  0.25 0 0  0.26 0 0  0.27 0 0  0.28 0 0  0.29 0 0  0.3 0 0  0.31 0 0  0.32 0 0  0.33 0 0  0.34 0 0  0.35 0 0  0.36 0 0  0.37 0 0  0.38 0 0  0.39 0 0  0.4 0 0  0.41 0 0  0.42 0 0  0.43 0 0  0.44 0 0  0.45 0 0  0.46 0 0  0.47 0 0  0.48 0 0  0.49 0 0  0.5 0 0  0.51 0 0  0.52 0 0  0.53 0 0  0.54 0 0  0.55 0 0  0.5600000000000001 0 0  0.57 0 0  0.58 0 0  0.59 0 0  0.6 0 0  0.61 0 0  0.62 0 0  0.63 0 0  0.64 0 0  0.65 0 0  0.66 0 0  0.67 0 0  0.68 0 0  0.6899999999999999 0 0  0.7 0 0  0.71 0 0  0.72 0 0  0.73 0 0  0.74 0 0  0.75 0 0  0.76 0 0  0.77 0 0  0.78 0 0  0.79 0 0  0.8 0 0  0.8100000000000001 0 0  0.82 0 0  0.83 0 0  0.84 0 0  0.85 0 0  0.86 0 0  0.87 0 0  0.88 0 0  0.89 0 0  0.9 0 0  0.91 0 0  0.92 0 0  0.93 0 0  0.9399999999999999 0 0  0.95 0 0  0.96 0 0  0.97 0 0  0.98 0 0  0.99 0 0  1 0 0  0 0.01 0  0.01 0.01 0  0.02 0.01 0  0.03 0.01 0  0.04 0.01 0  0.05 0.01 0  0.06 0.01 0  0.07000000000000001 0.01 0  0.08 0.01 0  0.09 0.01 0  0.1 0.01 0  0.11 0.01 0  0.12 0.01 0  0.13 0.01 0  0.14 0.01 0  0.15 0.01 0  0.16 0.01 0  0.17 0.01 0  0.18 0.01 0  0.19 0.01 0  0.2 0.01 0  0.21 0.01 0  0.22 0.01 0  0.23 0.01 0  0.24 0.01 0  0.25 0.01 0  0.26 0.01 0  0.27 0.01 0  0.28 0.01 0  0.29 0.01 0  0.3 0.01 0  0.31 0.01 0  0.32 0.01 0  0.33 0.01 0  0.34 0.01 0  0.35 0.01 0  0.36 0.01 0  0.37 0.01 0  0.38 0.01 0  0.39 0.01 0  0.4 0.01 0  0.41 0.01 0  0.42 0.01 0  0.43 0.01 0  0.44 0.01 0  0.45 0.01 0  0.46 0.01 0  0.47 0.01 0  0.48 0.01 0  0.49 0.01 0  0.5 0.01 0  0.51 0.01 0  0.52 0.01 0  0.53 0.01 0  0.54 0.01 0  0.55 0.01 0  0.5600000000000001 0.01 0  0.57 0.01 0  0.58 0.01 0  0.59 0.01 0  0.6 0.01 0  0.61 0.01 0  0.62 0.01 0  0.63 0.01 0  0.64 0.01 0  0.65 0.01 0  0.66 0.01 0  0.67 0.01 0  0.68 0.01 0  0.6899999999999999 0.01 0  0.7 0.01 0  0.71 0.01 0  0.72 0.01 0  0.73 0.01 0  0.74 0.01 0  0.75 0.01 0  0.76 0.01 0  0.77 0.01 0  0.78 0.01 0  0.79 0.01 0  0.8 0.01 0  0.8100000000000001 0.01 0  0.82 0.01 0  0.83 0.01 0  0.84 0.01 0  0.85 0.01 0  0.86 0.01 0  0.87 0.01 0  0.88 0.01 0  0.89 0.01 0  0.9 0.01 0  0.91 0.01 0  0.92 0.01 0  0.93 0.01 0  0.9399999999999999 0.01 0  0.95 0.01 0  0.96 0.01 0  0.97 0.01 0  0.98 0.01 0  0.99 0.01 0  1 0.01 0  0 0.02 0  0.01 0.02 0  0.02 0.02 0  0.03 0.02 0  0.04 0.02 0  0.05 0.02 0  0.06 0.02 0  0.07000000000000001 0.02 0  0.08 0.02 0  0.09 0.02 0  0.1 0.02 0  0.11 0.02 0  0.12 0.02 0  0.13 0.02 0  0.14 0.02 0  0.15 0.02 0  0.16 0.02 0  0.17 0.02 0  0.18 0.02 0  0.19 0.02 0  0.2 0.02 0  0.21 0.02 0  0.22 0.02 0  0.23 0.02 0  0.24 0.02 0  0.25 0.02 0  0.26 0.02 0  0.27 0.02 0  0.28 0.02 0  0.29 0.02 0  0.3 0.02 0  0.31 0.02 0  0.32 0.02 0  0.33 0.02 0  0.34 0.02 0  0.35 0.02 0  0.36 0.02 0  0.37 0.02 0  0.38 0.02 0  0.39 0.02 0  0.4 0.02 0  0.41 0.02 0  0.42 0.02 0  0.43 0.02 0  0.44 0.02 0  0.45 0.02 0  0.46 0.02 0  0.47 0.02 0  0.48 0.02 0  0.49 0.02 0  0.5 0.02 0  0.51 0.02 0  0.52 0.02 0  0.53 0.02 0  0.54 0.02 0  0.55 0.02 0  0.5600000000000001 0.02 0  0.57 0.02 0  0.58 0.02 0  0.59 0.02 0  0.6 0.02 0  0.61 0.02 0  0.62 0.02 0  0.63 0.02 0  0.64 0.02 0  0.65 0.02 0  0.66 0.02 0  0.67 0.02 0  0.68 0.02 0  0.6899999999999999 0.02 0  0.7 0.02 0  0.71 0.02 0  0.72 0.02 0  0.73 0.02 0  0.74 0.02 0  0.75 0.02 0  0.76 0.02 0  0.77 0.02 0  0.78 0.02 0  0.79 0.02 0  0.8 0.02 0  0.8100000000000001 0.02 0  0.82 0.02 0  0.83 0.02 0  0.84 0.02 0  0.85 0.02 0  0.86 0.02 0  0.87 0.02 0  0.88 0.02 0  0.89 0.02 0  0.9 0.02 0  0.91 0.02 0  0.92 0.02 0  0.93 0.02 0  0.9399999999999999 0.02 0  0.95 0.02 0  0.96 0.02 0  0.97 0.02 0  0.98 0.02 0  0.99 0.02 0  1 0.02 0  0 0.03 0  0.01 0.03 0  0.02 0.03 0  0.03 0.03 0  0.04 0.03 0  0.05 0.03 0  0.06 0.03 0  0.07000000000000001 0.03 0  0.08 0.03 0  0.09 0.03 0  0.1 0.03 0  0.11 0.03 0  0.12 0.03 0  0.13 0.03 0  0.14 0.03 0  0.15 0.03 0  0.16 0.03 0  0.17 0.03 0  0.18 0.03 0  0.19 0.03 0  0.2 0.03 0  0.21 0.03 0  0.22 0.03 0  0.23 0.03 0  0.24 0.03 0  0.25 0.03 0  0.26 0.03 0  0.27 0.03 0  0.28 0.03 0  0.29 0.03 0  0.3 0.03 0  0.31 0.03 0  0.32 0.03 0  0.33 0.03 0  0.34 0.03 0  0.35 0.03 0  0.36 0.03 0  0.37 0.03 0  0.38 0.03 0  0.39 0.03 0  0.4 0.03 0  0.41 0.03 0  0.42 0.03 0  0.43 0.03 0  0.44 0.03 0  0.45 0.03 0  0.46 0.03 0  0.47 0.03 0  0.48 0.03 0  0.49 0.03 0  0.5 0.03 0  0.51 0.03 0  0.52 0.03 0  0.53 0.03 0  0.54 0.03 0  0.55 0.03 0  0.5600000000000001 0.03 0  0.57 0.03 0  0.58 0.03 0  0.59 0.03 0  0.6 0.03 0  0.61 0.03 0  0.62 0.03 0  0.63 0.03 0  0.64 0.03 0  0.65 0.03 0  0.66 0.03 0  0.67 0.03 0  0.68 0.03 0  0.6899999999999999 0.03 0  0.7 0.03 0  0.71 0.03 0  0.72 0.03 0  0.73 0.03 0  0.74 0.03 0  0.75 0.03 0  0.76 0.03 0  0.77 0.03 0  0.78 0.03 0  0.79 0.03 0  0.8 0.03 0  0.8100000000000001 0.03 0  0.82 0.03 0  0.83 0.03 0  0.84 0.03 0  0.85 0.03 0  0.86 0.03 0  0.87 0.03 0  0.88 0.03 0  0.89 0.03 0  0.9 0.03 0  0.91 0.03 0  0.92 0.03 0  0.93 0.03 0  0.9399999999999999 0.03 0  0.95 0.03 0  0.96 0.03 0  0.97 0.03 0  0.98 0.03 0  0.99 0.03 0  1 0.03 0  0 0.04 0  0.01 0.04 0  0.02 0.04 0  0.03 0.04 0  0.04 0.04 0  0.05 0.04 0  0.06 0.04 0  0.07000000000000001 0.04 0  0.08 0.04 0  0.09 0.04 0  0.1 0.04 0  0.11 0.04 0  0.12 0.04 0  0.13 0.04 0  0.14 0.04 0  0.15 0.04 0  0.16 0.04 0  0.17 0.04 0  0.18 0.04 0  0.19 0.04 0  0.2 0.04 0  0.21 0.04 0  0.22 0.04 0  0.23 0.04 0  0.24 0.04 0  0.25 0.04 0  0.26 0.04 0  0.27 0.04 0  0.28 0.04 0  0.29 0.04 0  0.3 0.04 0  0.31 0.04 0  0.32 0.04 0  0.33 0.04 0  0.34 0.04 0  0.35 0.04 0  0.36 0.04 0  0.37 0.04 0  0.38 0.04 0  0.39 0.04 0  0.4 0.04 0  0.41 0.04 0  0.42 0.04 0  0.43 0.04 0  0.44 0.04 0  0.45 0.04 0  0.46 0.04 0  0.47 0.04 0  0.48 0.04 0  0.49 0.04 0  0.5 0.04 0  0.51 0.04 0  0.52 0.04 0  0.53 0.04 0  0.54 0.04 0  0.55 0.04 0  0.5600000000000001 0.04 0  0.57 0.04 0  0.58 0.04 0  0.59 0.04 0  0.6 0.04 0  0.61 0.04 0  0.62 0.04 0  0.63 0.04 0  0.64 0.04 0  0.65 0.04 0  0.66 0.04 0  0.67 0.04 0  0.68 0.04 0  0.6899999999999999 0.04 0  0.7 0.04 0  0.71 0.04 0  0.72 0.04 0  0.73 0.04 0  0.74 0.04 0  0.75 0.04 0  0.76 0.04 0  0.77 0.04 0  0.78 0.04 0  0.79 0.04 0  0.8 0.04 0  0.8100000000000001 0.04 0  0.82 0.04 0  0.83 0.04 0  0.84 0.04 0  0.85 0.04 0  0.86 0.04 0  0.87 0.04 0  0.88 0.04 0  0.89 0.04 0  0.9 0.04 0  0.91 0.04 0  0.92 0.04 0  0.93 0.04 0  0.9399999999999999 0.04 0  0.95 0.04 0  0.96 0.04 0  0.97 0.04 0  0.98 0.04 0  0.99 0.04 0  1 0.04 0  0 0.05 0  0.01 0.05 0  0.02 0.05 0  0.03 0.05 0  0.04 0.05 0  0.05 0.05 0  0.06 0.05 0  0.07000000000000001 0.05 0  0.08 0.05 0  0.09 0.05 0  0.1 0.05 0  0.11 0.05 0  0.12 0.05 0  0.13 0.05 0  0.14 0.05 0  0.15 0.05 0  0.16 0.05 0  0.17 0.05 0  0.18 0.05 0  0.19 0.05 0  0.2 0.05 0  0.21 0.05 0  0.22 0.05 0  0.23 0.05 0  0.24 0.05 0  0.25 0.05 0  0.26 0.05 0  0.27 0.05 0  0.28 0.05 0  0.29 0.05 0  0.3 0.05 0  0.31 0.05 0  0.32 0.05 0  0.33 0.05 0  0.34 0.05 0  0.35 0.05 0  0.36 0.05 0  0.37 0.05 0  0.38 0.05 0  0.39 0.05 0  0.4 0.05 0  0.41 0.05 0  0.42 0.05 0  0.43 0.05 0  0.44 0.05 0  0.45 0.05 0  0.46 0.05 0  0.47 0.05 0  0.48 0.05 0  0.49 0.05 0  0.5 0.05 0  0.51 0.05 0  0.52 0.05 0  0.53 0.05 0  0.54 0.05 0  0.55 0.05 0  0.5600000000000001 0.05 0  0.57 0.05 0  0.58 0.05 0  0.59 0.05 0  0.6 0.05 0  0.61 0.05 0  0.62 0.05 0  0.63 0.05 0  0.64 0.05 0  0.65 0.05 0  0.66 0.05 0  0.67 0.05 0  0.68 0.05 0  0.6899999999999999 0.05 0  0.7 0.05 0  0.71 0.05 0  0.72 0.05 0  0.73 0.05 0  0.74 0.05 0  0.75 0.05 0  0.76 0.05 0  0.77 0.05 0  0.78 0.05 0  0.79 0.05 0  0.8 0.05 0  0.8100000000000001 0.05 0  0.82 0.05 0  0.83 0.05 0  0.84 0.05 0  0.85 0.05 0  0.86 0.05 0  0.87 0.05 0  0.88 0.05 0  0.89 0.05 0  0.9 0.05 0  0.91 0.05 0  0.92 0.05 0  0.93 0.05 0  0.9399999999999999 0.05 0  0.95 0.05 0  0.96 0.05 0  0.97 0.05 0  0.98 0.05 0  0.99 0.05 0  1 0.05 0  0 0.06 0  0.01 0.06 0  0.02 0.06 0  0.03 0.06 0  0.04 0.06 0  0.05 0.06 0  0.06 0.06 0  0.07000000000000001 0.06 0  0.08 0.06 0  0.09 0.06 0  0.1 0.06 0  0.11 0.06 0  0.12 0.06 0  0.13 0.06 0  0.14 0.06 0  0.15 0.06 0  0.16 0.06 0  0.17 0.06 0  0.18 0.06 0  0.19 0.06 0  0.2 0.06 0  0.21 0.06 0  0.22 0.06 0  0.23 0.06 0  0.24 0.06 0  0.25 0.06 0  0.26 0.06 0  0.27 0.06 0  0.28 0.06 0  0.29 0.06 0  0.3 0.06 0  0.31 0.06 0  0.32 0.06 0  0.33 0.06 0  0.34 0.06 0  0.35 0.06 0  0.36 0.06 0  0.37 0.06 0  0.38 0.06 0  0.39 0.06 0  0.4 0.06 0  0.41 0.06 0  0.42 0.06 0  0.43 0.06 0  0.44 0.06 0  0.45 0.06 0  0.46 0.06 0  0.47 0.06 0  0.48 0.06 0  0.49 0.06 0  0.5 0.06 0  0.51 0.06 0  0.52 0.06 0  0.53 0.06 0  0.54 0.06 0  0.55 0.06 0  0.5600000000000001 0.06 0  0.57 0.06 0  0.58 0.06 0  0.59 0.06 0  0.6 0.06 0  0.61 0.06 0  0.62 0.06 0  0.63 0.06 0  0.64 0.06 0  0.65 0.06 0  0.66 0.06 0  0.67 0.06 0  0.68 0.06 0  0.6899999999999999 0.06 0  0.7 0.06 0  0.71 0.06 0  0.72 0.06 0  0.73 0.06 0  0.74 0.06 0  0.75 0.06 0  0.76 0.06 0  0.77 0.06 0  0.78 0.06 0  0.79 0.06 0  0.8 0.06 0  0.8100000000000001 0.06 0  0.82 0.06 0  0.83 0.06 0  0.84 0.06 0  0.85 0.06 0  0.86 0.06 0  0.87 0.06 0  0.88 0.06 0  0.89 0.06 0  0.9 0.06 0  0.91 0.06 0  0.92 0.06 0  0.93 0.06 0  0.9399999999999999 0.06 0  0.95 0.06 0  0.96 0.06 0  0.97 0.06 0  0.98 0.06 0  0.99 0.06 0  1 0.06 0  0 0.07000000000000001 0  0.01 0.07000000000000001 0  0.02 0.07000000000000001 0  0.03 0.07000000000000001 0  0.04 0.07000000000000001 0  0.05 0.07000000000000001 0  0.06 0.07000000000000001 0  0.07000000000000001 0.07000000000000001 0  0.08 0.07000000000000001 0  0.09 0.07000000000000001 0  0.1 0.07000000000000001 0  0.11 0.07000000000000001 0  0.12 0.07000000000000001 0  0.13 0.07000000000000001 0  0.14 0.07000000000000001 0  0.15 0.07000000000000001 0  0.16 0.07000000000000001 0  0.17 0.0700
[...]
<PointData  Scalars="u"> 
<DataArray  type="Float64"  Name="u"  format="ascii">0.0000000000000000e+00  0.0000000000000000e+00  0.0000000000000000e+00  0.0000000000000000e+00  0.0000000000000000e+00  0.0000000000000000e+00  0.0000000000000000e+00  0.0000000000000000e+00  0.0000000000000000e+00  0.0000000000000000e+00  0.0000000000000000e+00  0.0000000000000000e+00  0.0000000000000000e+00  0.0000000000000000e+00  0.0000000000000000e+00  0.0000000000000000e+00  0.0000000000000000e+00  0.0000000000000000e+00  0.0000000000000000e+00  0.0000000000000000e+00  0.0000000000000000e+00  0.0000000000000000e+00  0.0000000000000000e+00  0.0000000000000000e+00  0.0000000000000000e+00  0.0000000000000000e+00  0.0000000000000000e+00  0.0000000000000000e+00  0.0000000000000000e+00  0.0000000000000000e+00  0.0000000000000000e+00  0.0000000000000000e+00  0.0000000000000000e+00  0.0000000000000000e+00  0.0000000000000000e+00  0.0000000000000000e+00  0.0000000000000000e+00  0.0000000000000000e+00  0.0000000000000000e+00  0.0000000000000000e+00  0.0000000000000000e+00  0.0000000000000000e+00  0.0000000000000000e+00  0.0000000000000000e+00  0.0000000000000000e+00  0.0000000000000000e+00  0.0000000000000000e+00  0.0000000000000000e+00  0.0000000000000000e+00  0.0000000000000000e+00  0.0000000000000000e+00  0.0000000000000000e+00  0.0000000000000000e+00  0.0000000000000000e+00  0.0000000000000000e+00  0.0000000000000000e+00  0.0000000000000000e+00  0.0000000000000000e+00  0.0000000000000000e+00  0.0000000000000000e+00  0.0000000000000000e+00  0.0000000000000000e+00  0.0000000000000000e+00  0.0000000000000000e+00  0.0000000000000000e+00  0.0000000000000000e+00  0.0000000000000000e+00  0.0000000000000000e+00  0.0000000000000000e+00  0.0000000000000000e+00  0.0000000000000000e+00  0.0000000000000000e+00  0.0000000000000000e+00  0.0000000000000000e+00  0.0000000000000000e+00  0.0000000000000000e+00  0.0000000000000000e+00  0.0000000000000000e+00  0.0000000000000000e+00  0.0000000000000000e+00  0.0000000000000000e+00  0.0000000000000000e+00  0.0000000000000000e+00  0.0000000000000000e+00  0.0000000000000000e+00  0.0000000000000000e+00  0.0000000000000000e+00  0.0000000000000000e+00  0.0000000000000000e+00  0.0000000000000000e+00  0.0000000000000000e+00  0.0000000000000000e+00  0.0000000000000000e+00  0.0000000000000000e+00  0.0000000000000000e+00  0.0000000000000000e+00  0.0000000000000000e+00  0.0000000000000000e+00  0.0000000000000000e+00  0.0000000000000000e+00  0.0000000000000000e+00  0.0000000000000000e+00  3.5205864380678486e-06  4.1954632655381098e-06  7.8378839470010785e-06  5.8401151561543215e-06  1.4182650994073331e-05  3.8578370875391069e-05  3.4228826992948119e-05  5.3205458199487226e-05  1.9046084327523023e-05  1.1303217560156808e-05  4.4152610025059296e-05  1.7845616603262776e-04  1.0532806274856786e-04  1.0043657017343407e-04  -4.9913206275450911e-05  7.5402560365371557e-05  1.8114544235101822e-04  6.9876167863505797e-06  2.8096795233288206e-04  -1.7146838044128270e-04  3.6336629863687700e-04  -3.6235892071572124e-04  5.9707679598924000e-04  -4.4178830536216679e-04  4.1985207589880945e-04  -1.1713241233962608e-04  -9.1332572185458640e-05  6.5374719724640095e-04  -4.9721224142765101e-04  -1.8751515941349377e-04  8.5155782400270414e-04  -2.3679870181179561e-04  -2.9719201253951841e-04  -1.5327249403193521e-04  -1.6165539986274003e-04  6.3730759583415690e-04  5.6178418991685672e-04  3.7087969010659802e-04  3.2332988756852532e-04  2.8891181528905538e-04  3.6010211707986919e-04  -2.5949310173427217e-04  -3.7998263749288992e-04  -3.7705643146863303e-04  7.0806080162932482e-04  -3.2045466666163114e-04  1.0659549565191918e-04  -5.1989505771106304e-05  3.5423767870739591e-05  -1.1650565870798332e-04  1.5271001261818050e-04  1.3181698349256466e-04  -7.5464164037381004e-05  -6.4048131940479139e-05  -8.7423657596688142e-06  8.8076033980904830e-07  1.6902569583609526e-06  2.1444425336947417e-06  2.3526249140985973e-06  2.4276261753550483e-06  2.4337514687855036e-06  2.4050618793920525e-06  2.3591228202005136e-06  2.3042294146610199e-06  2.2441909092562347e-06  2.1807936124779443e-06  2.1149166607701941e-06  2.0470637011548874e-06  1.9775849870629305e-06  1.9067659669949159e-06  1.8348620252694647e-06  1.7621117327917922e-06  1.6887431261469456e-06  1.6149786591809885e-06  1.5410404973138719e-06  1.4671561049173978e-06  1.3935630691745454e-06  1.3205113474263033e-06  1.2482605406475906e-06  1.1770694703354051e-06  1.1071754998272911e-06  1.0387621554287458e-06  9.7191654393236531e-07  9.0658411603365147e-07  8.4253827160955371e-07  7.7939379606909655e-07  7.1669697124604674e-07  6.5410502563205475e-07  5.9161053893589346e-07  5.2968715105254195e-07  4.6919228183728471e-07  4.1094650063200132e-07  3.5515791796481396e-07  3.0117233288398506e-07  2.4804592569624874e-07  1.9561898787832542e-07  1.4456034156633318e-07  9.4737210444725216e-08  4.6969759686548357e-08  0.0000000000000000e+00  0.0000000000000000e+00  4.3490128398155842e-06  5.7640382010961147e-06  8.3691213902248482e-06  9.9959716806762587e-06  7.1698409585392628e-06  4.5467333918204851e-05  4.0505757652616162e-05  8.4650275575975394e-05  3.6058836617645102e-05  1.9581046365454236e-05  2.6132727311304058e-05  1.3712406697108555e-04  2.5581153908496536e-04  1.6091600564032375e-04  -5.2141773173122695e-05  1.1330839683770878e-04  2.5865214409747529e-05  3.3096224970496349e-04  4.2021294770783232e-05  1.6754945986741110e-04  1.5014987841186527e-04  -9.4760473168986408e-05  2.2817965719071099e-04  2.6834240253828295e-04  -4.1006724402419822e-04  8.7177422770403636e-04  -9.4267934312273430e-04  9.4640713239205524e-04  1.8409179624980654e-04  -1.0785195916575396e-03  6.5650977375255736e-04  1.1980762207397854e-03  -9.8430354580385845e-04  -6.2246273404763794e-04  -6.4163529472381045e-04  1.3594041953172430e-04  1.1929148260676104e-03  1.1816024121364759e-03  1.0740391046222060e-03  1.0609492183916904e-03  1.0578700253148154e-03  3.4952873168212823e-04  -5.2329883662728563e-04  -9.9510829299434729e-04  2.0828076581304907e-04  8.7734791134160385e-04  -7.3458707426686358e-04  4.5843140537097569e-04  -2.4510607603601161e-04  4.9343402015624090e-05  -8.5677080219428552e-05  3.3358627462937987e-04  2.7269801480286909e-05  -1.3247835714827217e-04  -4.3976620250183761e-05  2.7826459546165715e-07  3.6498935176338751e-06  4.5091886545544539e-06  4.9067343379150475e-06  5.0622252915626111e-06  5.0747240796686915e-06  5.0138820577919335e-06  4.9160270892624772e-06  4.7986591555311528e-06  4.6702192116229742e-06  4.5347012929673252e-06  4.3941102129319804e-06  4.2496004287247563e-06  4.1019641644572190e-06  3.9518395799065613e-06  3.7997912884117751e-06  3.6463394856940640e-06  3.4919712548319692e-06  3.3371466329144622e-06  3.1823039703638835e-06  3.0278656622692345e-06  2.8742436554654141e-06  2.7218432404678414e-06  2.5710630904914836e-06  2.4222892168368795e-06  2.2758805322188833e-06  2.1321442872390426e-06  1.9913014186070547e-06  1.8534460907447808e-06  1.7185117773922050e-06  1.5862671742110665e-06  1.4563715810461051e-06  1.3285051753673043e-06  1.2025405433236561e-06  1.0786542858366996e-06  9.5726359669309191e-07  8.3879454413458668e-07  7.2348552087491836e-07  6.1141920169484746e-07  5.0262045204078033e-07  3.9691829569973365e-07  2.9389027614412275e-07  1.9303216080626067e-07  9.4974252095041294e-08  0.0000000000000000e+00  0.0000000000000000e+00  5.2097548707920669e-06  8.0554580816389086e-06  7.8948006926157741e-06  1.5511743341565606e-05  8.1194015653322997e-06  2.4985784275395890e-05  7.8253934459863517e-05  5.9634509972099209e-05  1.0682592388898212e-04  2.6251969174135019e-05  7.0475792490306038e-06  7.8400531380174815e-05  3.2544352034800727e-04  1.7481144151668609e-04  1.9832025615211825e-04  -1.3198584159990491e-04  1.4868190255772824e-04  2.9968804205930655e-04  -3.8845972932773697e-06  5.1320981325349800e-04  -3.4752746683230104e-04  6.8377802507964269e-04  -6.8993675184593093e-04  1.1097531835076420e-03  -7.8351090852382742e-04  6.8519714837045548e-04  -8.9321357999450120e-05  -3.4328284186028953e-04  1.3769865325331718e-03  -9.0829743889175353e-04  -7.5536952502847240e-04  1.7834719892434736e-03  -9.8112365289410887e-05  -1.1006501036129831e-03  -7.5717053308170111e-04  -6.2338210362445138e-04  1.0804676540317431e-03  1.6596612050936627e-03  1.6836652228516596e-03  1.6613769452148740e-03  1.5257480451195094e-03  1.3343068313417862e-03  -3.4998894265364256e-04  -8.6567120308618235e-04  -1.1165647890351688e-03  1.3857428888785607e-03  -3.6390708779546015e-04  1.1197293363709405e-04  -7.0265385245319389e-05  7.9256590151931516e-05  -2.2156769274055479e-04  2.7396667101976053e-04  2.5175199141583325e-04  -1.2690341161520914e-04  -1.1189022666318151e-04  -1.1734472431831543e-05  5.9140196832783248e-06  6.9335497220235352e-06  7.6055673580095156e-06  7.8757847549613650e-06  7.9206508886343218e-06  7.8380602083059026e-06  7.6886052144572022e-06  7.5034721356610275e-06  7.2984861200836489e-06  7.0813482691869799e-06  6.8559932830731595e-06  6.6246142361794207e-06  6.3886414230984347e-06  6.1491739915457193e-06  5.9071517747496772e-06  5.6634227331957451e-06  5.4187689409018674e-06  5.1739177833947804e-06  4.9295494225838123e-06  4.6863039699397558e-06  4.4447885326079093e-06  4.2055827998571838e-06  3.9692410304010159e-06  3.7362879044569263e-06  3.5072057067354832e-06  3.2824109274087455e-06  3.0622202618218005e-06  2.8468104314764728e-06  2.6361845766178218e-06  2.4301691389166554e-06  2.2284713103774449e-06  2.0308113916179423e-06  1.8370911598585132e-06  1.6474850482390684e-06  1.4623249943119239e-06  1.2817958839588059e-06  1.1057285539074687e-06  9.3384050318759548e-07  7.6627982379311204e-07  6.0367768989247023e-07  4.4632285580803960e-07  2.9351553279704650e-07  1.4427566020911544e-07  0.0000000000000000e+00  0.0000000000000000e+00  6.2375859672325409e-06  9.7275157901429168e-06  1.1047379498167576e-05  1.4865467249400759e-05  1.7176558076400376e-05  9.9189499224759644e-06  7.9453929149874200e-05  7.0828855450651024e-05  1.4824520834709611e-04  4.7135445624861625e-05  3.3606979369274592e-05  3.3073696293152801e-05  2.0546732218459381e-04  4.0465137130370709e-04  2.0632298206869817e-04  -8.3338412940149232e-05  1.9015942814152816e-04  -4.5971657487264761e-06  4.9663074386154947e-04  1.0215110330196950e-05  2.3612092192348418e-04  2.1172880551190143e-04  -1.6717867492490468e-04  3.5766347739453621e-04  2.6309264510623084e-04  -4.0884070999180612e-04  1.0528255087245680e-03  -1.1719617930230023e-03  1.2491642089360372e-03  1.8128815247116470e-04  -1.3503739514587859e-03  8.6554763939637454e-04  1.5859361704029765e-03  -1.2276391132684126e-03  -9.6394904936605928e-04  -8.7222322273610591e-04  2.6063801847703316e-04  1.6583741511424818e-03  1.9419720870034116e-03  1.9291194588687043e-03  1.8972809580111822e-03  1.7244111210736055e-03  5.3721521217653184e-04  -6.6377559364265122e-04  -1.3606249529881085e-03  2.4643087280405875e-04  1.1582257713716312e-03  -8.9553993165153380e-04  5.8546713083593377e-04  -2.9615366010343411e-04  4.7275755830040683e-05  -7.5429648613740285e-05  4.4436565003284152e-04  1.6087743297446661e-05  -1.8426517229848036e-04  -5.4006409928233757e-05  5.9711165158626075e-06  9.5845362057002348e-06  1.0398085629056574e-05  1.0849097669574591e-05  1.0968849196707056e-05  1.0888727774804036e-05  1.0694853895693980e-05  1.0439565519866920e-05  1.0150357379854293e-05  9.8413951139399278e-06  9.5199794272311023e-06  9.1900556548853923e-06  8.8540611755590917e-06  8.5137425305485032e-06  8.1705158073714699e-06  7.8256195541789650e-06  7.4801743282290521e-06  7.1352070512521627e-06  6.7916640301797614e-06  6.4504209807736507e-06  6.1122921700531777e-06  5.7780379085347237e-06  5.4483682402889968e-06  5.1239400986908491e-06  4.8053451975265529e-06  4.4930866789504730e-06  4.1875446914532564e-06  3.8889359109301694e-06  3.5972809030547693e-06  3.3124050621864571e-06  3.0340054777869088e-06  2.7617996888616334e-06  2.4957157481979690e-06  2.2360015396446887e-06  1.9831054113517837e-06  1.7373195021089887e-06  1.4984568361245482e-06  1.2659462777395187e-06  1.0393452381817635e-06  8.1871143653599321e-07  6.0443101784829667e-07  3.9679559235056179e-07  1.9517887281882851e-07  0.0000000000000000e+00  0.0000000000000000e+00  7.5085628638959204e-06  1.1503452432944257e-05  1.5071379353285376e-05  1.3456780367080215e-05  2.8073086906644022e-05  8.1785146199026935e-06  4.1153881375864630e-05  1.3717986977682662e-04  8.8704322575458149e-05  1.8485982478703712e-04  2.3551862482701918e-05  -4.8656071210907684e-06  1.3167842867894763e-04  4.6805828657750287e-04  2.1287863401065100e-04  3.0292511279392752e-04  -2.3138137339768984e-04  2.3873932250551393e-04  3.8280627312716636e-04  -5.4485252966940382e-05  6.9641496242270101e-04  -5.0151600474368171e-04  8.7975305202330650e-04  -8.5146701194232827e-04  1.3457978632792941e-03  -9.8465677646865975e-04  9.3028568018118990e-04  -2.4583763747718838e-04  -1.8896422909104850e-04  1.5041211792926157e-03  -1.0803672291491038e-03  -6.8197639337727318e-04  2.0730840741600420e-03  -3.0912838193127533e-04  -1.2495151803816524e-03  -8.8736907130835228e-04  -6.1947297014291547e-04  1.3323171695233268e-03  1.9882279833095045e-03  2.1045843934284895e-03  2.0930846805666918e-03  1.8996754581882699e-03  1.5644257939884166e-03  -4.2067041917344459e-04  -1.0167497043711159e-03  -1.1814268163914891e-03  1.6192011413295698e-03  -5.4829527568596285e-04  3.1557695717672951e-04  -2.2822079577314042e-04  2.0859510302667980e-04  -3.2474610453473183e-04  3.9933052200751554e-04  2.8054885912916065e-04  -1.8432735445242100e-04  -1.3802668070769266e-04  -8.0434750480629399e-06  1.2982899655921316e-05  1.3302541294730056e-05  1.3982568612587454e-05  1.4221497599395807e-05  1.4181177902409130e-05  1.3958741244706864e-05  1.3635515359406057e-05  1.3255858809607216e-05  1.2844517975892834e-05  1.2414384456968843e-05  1.1972445511911138e-05  1.1522805019958361e-05  1.1068175926730260e-05  1.0610617364923752e-05  1.0151851246199497e-05  9.6933918679258956e-06  9.2366012033233879e-06  8.7827150973873751e-06  8.3328595272023669e-06  7.8880636826943223e-06  7.4492706403446757e-06  7.0173438412720499e-06  6.5930665539308517e-06  6.1771313737946515e-06  5.7701176202417059e-06  5.3724568246519832e-06  4.9843916496338413e-06  4.6059429260380804e-06  4.2369119474921993e-06  3.8769523204173443e-06  3.5257290190676702e-06  3.1831235763867710e-06  2.8493585175109379e-06  2.5248846522843218e-06  2.2100170457696310e-06  1.9045946908360109e-06  1.6080508443621577e-06  1.3198685369053699e-06  1.0398373989742542e-06  7.6784449370964316e-07  5.0382930956364099e-07  2.4782631811187087e-07  0.0000000000000000e+00  0.0000000000000000e+00  8.2965265064572406e-06  1.3626995054013421e-05  1.8465089394209917e-05  1.9106197303939452e-05  2.4495428446405095e-05  2.8198225825271436e-05  1.0018202868301882e-05  1.3020841436800837e-04  1.1875713261887309e-04  2.3919304805415366e-04  4.9634235329074755e-05  6.0396692414433714e-05  2.8196284503936491e-05  2.8591477779542449e-04  5.8832651934833638e-04  2.1270281927855054e-04  -1.1173358123245188e-04  2.9306765614669160e-04  -7.0589268387622359e-05  6.6702017890043098e-04  -3.8083777545956319e-05  2.6953798908961732e-04  3.0974563330216700e-04  -3.0739059367860595e-04  5.6463279742868864e-04  1.1244730298769594e-04  -2.3036473070717103e-04  1.0571902077004551e-03  -1.2855230490793799e-03  1.5502964798973814e-03  -3.0643585588875158e-05  -1.4209004653236404e-03  1.1832288505596558e-03  1.5734595353895380e-03  -1.4060370237663066e-03  -1.0547764378370345e-03  -9.1298037348064580e-04  5.1236978631688935e-04  1.9126252462674212e-03  2.2329108948042839e-03  2.2307289429690721e-03  2.1868612855236087e-03  1.9221528187930448e-03  4.8676586141265508e-04  -7.0786207981574935e-04  -1.5215301557556017e-03  4.5220685804376074e-04  1.2009785202900870e-03  -9.4941830473791204e-04  6.4530197748515882e-04  -2.9003433590054967e-04  3.1705091679069222e-07  -1.2417743568400503e-05  5.1904373222882777e-04  -2.1173993317683927e-05  -2.3179768280976717e-04  -5.9584822118038221e-05  1.4322094173468156e-05  1.6849326215070050e-05  1.7256853834477705e-05  1.7680690229199934e-05  1.7712326007367250e-05  1.7487932219057228e-05  1.7105802211672179e-05  1.6633028176206914e-05  1.6109502025163734e-05  1.5557178712278097e-05  1.4988237514314875e-05  1.4409513117023707e-05  1.3825241669289441e-05  1.3238414887610166e-05  1.2651382560549553e-05  1.2066128205503874e-05  1.1484390407967319e-05  1.0907716995982188e-05  1.0337494379810811e-05  9.7749679259072697e-06  9.2212577074219699e-06  8.6773691065190293e-06  8.1441956740169356e-06  7.6225111868146814e-06  7.1129486380767409e-06  6.6159663842459156e-06  6.1318071112735903e-06  5.6604650702941076e-06  5.2016900659220864e-06  4.7550643299317524e-06  4.3201714256916131e-06  3.8968152589051332e-06  3.4851567971964794e-06  3.0856029276116102e-06  2.6984288593925261e-06  2.3234217002875313e-06  1.9599581815906247e-06  1.6074921491587328e-06  1.2658031255720507e-06  9.3465780882942416e-07  6.1359072041566633e-07  3.0221588469387601e-07  0.0000000000000000e+00  0.0000000000000000e+00  9.4186968284374070e-06  1.6328042258496775e-05  2.1172598131211457e-05  2.6332830428729794e-05  2.1784758905245904e-05  4.8083713597237867e-05  2.1242063307164686e-06  6.6474479161900330e-05  2.2479882373123387e-04  1.2310169298654892e-04  3.0568020694749962e-04  -3.0608699019861342e-06  -2.3170036233097919e-05  2.1630865784577302e-04  6.0856722979392192e-04  2.3666009062140941e-04  4.3358083082616387e-04  -3.6662846526814652e-04  3.5588951356844072e-04  4.5741591836429853e-04  -1.3568865856081454e-04  8.8282225298220811e-04  -6.4800515170335116e-04  1.0418307457995490e-03  -9.3848508963354979e-04  1.5108775515843957e-03  -1.1315136553553496e-03  1.1873707778453741e-03  -4.6186864521387662e-04  8.4345752765845771e-05  1.5399066889447829e-03  -1.2594855943631107e-03  -4.7394409191498145e-04  2.3535308608665755e-03  -6.3524625236872760e-04  -1.3830482319184057e-03  -9.3398363807633005e-04  -5.0180393012762064e-04  1.6120656260381976e-03  2.2948635582036424e-03  2.4198808196566725e-03  2.3876208679086911e-03  2.1509989411792898e-03  1.6650432893535732e-03  -4.9856068255497521e-04  -1.1651974769815434e-03  -1.1301283187970961e-03  1.8339828308904012e-03  -7.6517029586060351e-04  5.5890345816994439e-04  -4.2114244057666228e-04  3.5095563360956099e-04  -4.1211843032053241e-04  5.1942014314849115e-04  2.8964354674503170e-04  -2.4393254439168688e-04  -1.6078246000613986e-04  -1.7573842509552572e-06  2.2143150981099921e-05  2.0780237260223689e-05  2.1372457479656799e-05  2.1472269443134783e-05  2.1281518399910680e-05  2.0857104607331993e-05  2.0293936837814949e-05  1.9650340712542662e-05  1.8962353933234323e-05  1.8250185169272148e-05  1.7525095335120968e-05  1.6793844285528873e-05  1.6060848319101223e-05  1.5329319217722360e-05  1.4601824137877665e-05  1.3880531556124454e-05  1.3167322368003136e-05  1.2463846353592599e-05  1.1771556326264288e-05  1.1091732315309284e-05  1.0425498340521158e-05  9.7738301347395942e-06  9.1375509536975823e-06  8.5173131926187798e-06  7.9135661021448333e-06  7.3265156077169020e-06  6.7560924476984191e-06  6.2019584355699195e-06  5.6635887793737181e-06  5.1404510712023615e-06  4.6322381255174859e-06  4.1390165676561763e-06  3.6611157889555257e-06  3.1987330783296198e-06  2.7515542390874089e-06  2.3188313260638519e-06  1.8999077497421820e-06  1.4945082405459141e-06  1.1023900659902991e-06  7.2304602385527911e-07  3.5590227184439225e-07  0.0000000000000000e+00  0.0000000000000000e+00  1.0952115019135254e-05  1.7428522652746043e-05  2.5587913396395124e-05  3.2721917807269042e-05  3.0439936132566265e-05  3.8618080997413937e-05  4.5192565207606951e-05  1.8829538074585659e-06  2.0322504514646772e-04  1.9224892724886694e-04  3.5569114559368912e-04  3.8842449220629748e-05  1.1104771133523016e-04  -2.9525138077730106e-06  3.8316271310679295e-04  8.003