<?xml version="1.0"?>
<VTKFile type="UnstructuredGrid"  version="0.1"  >
<UnstructuredGrid>
<Piece  NumberOfPoints="10201" NumberOfCells="20000">
<Points>
<DataArray  type="Float64"  NumberOfComponents="3"  format="ascii">0 0 0  0.01 0 0  0.02 0 0  0.03 0 0  0.04 0 0  0.05 0 0  0.06 0 0  0.07000000000000001 0 0  0.08 0 0  0.09 0 0  0.1 0 0  0.11 0 0  0.12 0 0  0.13 0 0  0.14 0 0  0.15 0 0  0.16 0 0  0.17 0 0  0.18 0 0  0.19 0 0  0.2 0 0  0.21 0 0  0.22 0 0  0.23 0 0  0.24 0 0  0.25 0 0  0.26 0 0  0.27 0 0  0.28 0 0  0.29 0 0  0.3 0 0  0.31 0 0  0.32 0 0  0.33 0 0  0.34 0 0  0.35 0 0  0.36 0 0  0.37 0 0  0.38 0 0  0.39 0 0  0.4 0 0  0.41 0 0  0.42 0 0  0.43 0 0  0.44 0 0  0.45 0 0  0.46 0 0  0.47 0 0  0.48 0 0  0.49 0 0  0.5 0 0  0.51 0 0  0.52 0 0  0.53 0 0  0.54 0 0  0.55 0 0  0.5600000000000001 0 0  0.57 0 0  0.58 0 0  0.59 0 0  0.6 0 0  0.61 0 0  0.62 0 0  0.63 0 0  0.64 0 0  0.65 0 0  0.66 0 0  0.67 0 0  0.68 0 0  0.6899999999999999 0 0  0.7 0 0  0.71 0 0  0.72 0 0  0.73 0 0  0.74 0 0  0.75 0 0  0.76 0 0  0.77 0 0  0.78 0 0  0.79 0 0  0.8 0 0  0.8100000000000001 0 0  0.82 0 0  0.83 0 0  0.84 0 0  0.85 0 0  0.86 0 0  0.87 0 0  0.88 0 0  0.89 0 0  0.9 0 0  0.91 0 0  0.92 0 0  0.93 0 0  0.9399999999999999 0 0  0.95 0 0  0.96 0 0  0.97 0 0  0.98 0 0  0.99 0 0  1 0 0  0 0.01 0  0.01 0.01 0  0.02 0.01 0  0.03 0.01 0  0.04 0.01 0  0.05 0.01 0  0.06 0.01 0  0.07000000000000001 0.01 0  0.08 0.01 0  0.09 0.01 0  0.1 0.01 0  0.11 0.01 0  0.12 0.01 0  0.13 0.01 0  0.14 0.01 0  0.15 0.01 0  0.16 0.01 0  0.17 0.01 0  0.18 0.01 0  0.19 0.01 0  0.2 0.01 0  0.21 0.01 0  0.22 0.01 0  0.23 0.01 0  0.24 0.01 0  0.25 0.01 0  0.26 0.01 0  0.27 0.01 0  0.28 0.01 0  0.29 0.01 0  0.3 0.01 0  0.31 0.01 0  0.32 0.01 0  0.33 0.01 0  0.34 0.01 0  0.35 0.01 0  0.36 0.01 0  0.37 0.01 0  0.38 0.01 0  0.39 0.01 0  0.4 0.01 0  0.41 0.01 0  0.42 0.01 0  0.43 0.01 0  0.44 0.01 0  0.45 0.01 0  0.46 0.01 0  0.47 0.01 0  0.48 0.01 0  0.49 0.01 0  0.5 0.01 0  0.51 0.01 0  0.52 0.01 0  0.53 0.01 0  0.54 0.01 0  0.55 0.01 0  0.5600000000000001 0.01 0  0.57 0.01 0  0.58 0.01 0  0.59 0.01 0  0.6 0.01 0  0.61 0.01 0  0.62 0.01 0  0.63 0.01 0  0.64 0.01 0  0.65 0.01 0  0.66 0.01 0  0.67 0.01 0  0.68 0.01 0  0.6899999999999999 0.01 0  0.7 0.01 0  0.71 0.01 0  0.72 0.01 0  0.73 0.01 0  0.74 0.01 0  0.75 0.01 0  0.76 0.01 0  0.77 0.01 0  0.78 0.01 0  0.79 0.01 0  0.8 0.01 0  0.8100000000000001 0.01 0  0.82 0.01 0  0.83 0.01 0  0.84 0.01 0  0.85 0.01 0  0.86 0.01 0  0.87 0.01 0  0.88 0.01 0  0.89 0.01 0  0.9 0.01 0  0.91 0.01 0  0.92 0.01 0  0.93 0.01 0  0.9399999999999999 0.01 0  0.95 0.01 0  0.96 0.01 0  0.97 0.01 0  0.98 0.01 0  0.99 0.01 0  1 0.01 0  0 0.02 0  0.01 0.02 0  0.02 0.02 0  0.03 0.02 0  0.04 0.02 0  0.05 0.02 0  0.06 0.02 0  0.07000000000000001 0.02 0  0.08 0.02 0  0.09 0.02 0  0.1 0.02 0  0.11 0.02 0  0.12 0.02 0  0.13 0.02 0  0.14 0.02 0  0.15 0.02 0  0.16 0.02 0  0.17 0.02 0  0.18 0.02 0  0.19 0.02 0  0.2 0.02 0  0.21 0.02 0  0.22 0.02 0  0.23 0.02 0  0.24 0.02 0  0.25 0.02 0  0.26 0.02 0  0.27 0.02 0  0.28 0.02 0  0.29 0.02 0  0.3 0.02 0  0.31 0.02 0  0.32 0.02 0  0.33 0.02 0  0.34 0.02 0  0.35 0.02 0  0.36 0.02 0  0.37 0.02 0  0.38 0.02 0  0.39 0.02 0  0.4 0.02 0  0.41 0.02 0  0.42 0.02 0  0.43 0.02 0  0.44 0.02 0  0.45 0.02 0  0.46 0.02 0  0.47 0.02 0  0.48 0.02 0  0.49 0.02 0  0.5 0.02 0  0.51 0.02 0  0.52 0.02 0  0.53 0.02 0  0.54 0.02 0  0.55 0.02 0  0.5600000000000001 0.02 0  0.57 0.02 0  0.58 0.02 0  0.59 0.02 0  0.6 0.02 0  0.61 0.02 0  0.62 0.02 0  0.63 0.02 0  0.64 0.02 0  0.65 0.02 0  0.66 0.02 0  0.67 0.02 0  0.68 0.02 0  0.6899999999999999 0.02 0  0.7 0.02 0  0.71 0.02 0  0.72 0.02 0  0.73 0.02 0  0.74 0.02 0  0.75 0.02 0  0.76 0.02 0  0.77 0.02 0  0.78 0.02 0  0.79 0.02 0  0.8 0.02 0  0.8100000000000001 0.02 0  0.82 0.02 0  0.83 0.02 0  0.84 0.02 0  0.85 0.02 0  0.86 0.02 0  0.87 0.02 0  0.88 0.02 0  0.89 0.02 0  0.9 0.02 0  0.91 0.02 0  0.92 0.02 0  0.93 0.02 0  0.9399999999999999 0.02 0  0.95 0.02 0  0.96 0.02 0  0.97 0.02 0  0.98 0.02 0  0.99 0.02 0  1 0.02 0  0 0.03 0  0.01 0.03 0  0.02 0.03 0  0.03 0.03 0  0.04 0.03 0  0.05 0.03 0  0.06 0.03 0  0.07000000000000001 0.03 0  0.08 0.03 0  0.09 0.03 0  0.1 0.03 0  0.11 0.03 0  0.12 0.03 0  0.13 0.03 0  0.14 0.03 0  0.15 0.03 0  0.16 0.03 0  0.17 0.03 0  0.18 0.03 0  0.19 0.03 0  0.2 0.03 0  0.21 0.03 0  0.22 0.03 0  0.23 0.03 0  0.24 0.03 0  0.25 0.03 0  0.26 0.03 0  0.27 0.03 0  0.28 0.03 0  0.29 0.03 0  0.3 0.03 0  0.31 0.03 0  0.32 0.03 0  0.33 0.03 0  0.34 0.03 0  0.35 0.03 0  0.36 0.03 0  0.37 0.03 0  0.38 0.03 0  0.39 0.03 0  0.4 0.03 0  0.41 0.03 0  0.42 0.03 0  0.43 0.03 0  0.44 0.03 0  0.45 0.03 0  0.46 0.03 0  0.47 0.03 0  0.48 0.03 0  0.49 0.03 0  0.5 0.03 0  0.51 0.03 0  0.52 0.03 0  0.53 0.03 0  0.54 0.03 0  0.55 0.03 0  0.5600000000000001 0.03 0  0.57 0.03 0  0.58 0.03 0  0.59 0.03 0  0.6 0.03 0  0.61 0.03 0  0.62 0.03 0  0.63 0.03 0  0.64 0.03 0  0.65 0.03 0  0.66 0.03 0  0.67 0.03 0  0.68 0.03 0  0.6899999999999999 0.03 0  0.7 0.03 0  0.71 0.03 0  0.72 0.03 0  0.73 0.03 0  0.74 0.03 0  0.75 0.03 0  0.76 0.03 0  0.77 0.03 0  0.78 0.03 0  0.79 0.03 0  0.8 0.03 0  0.8100000000000001 0.03 0  0.82 0.03 0  0.83 0.03 0  0.84 0.03 0  0.85 0.03 0  0.86 0.03 0  0.87 0.03 0  0.88 0.03 0  0.89 0.03 0  0.9 0.03 0  0.91 0.03 0  0.92 0.03 0  0.93 0.03 0  0.9399999999999999 0.03 0  0.95 0.03 0  0.96 0.03 0  0.97 0.03 0  0.98 0.03 0  0.99 0.03 0  1 0.03 0  0 0.04 0  0.01 0.04 0  0.02 0.04 0  0.03 0.04 0  0.04 0.04 0  0.05 0.04 0  0.06 0.04 0  0.07000000000000001 0.04 0  0.08 0.04 0  0.09 0.04 0  0.1 0.04 0  0.11 0.04 0  0.12 0.04 0  0.13 0.04 0  0.14 0.04 0  0.15 0.04 0  0.16 0.04 0  0.17 0.04 0  0.18 0.04 0  0.19 0.04 0  0.2 0.04 0  0.21 0.04 0  0.22 0.04 0  0.23 0.04 0  0.24 0.04 0  0.25 0.04 0  0.26 0.04 0  0.27 0.04 0  0.28 0.04 0  0.29 0.04 0  0.3 0.04 0  0.31 0.04 0  0.32 0.04 0  0.33 0.04 0  0.34 0.04 0  0.35 0.04 0  0.36 0.04 0  0.37 0.04 0  0.38 0.04 0  0.39 0.04 0  0.4 0.04 0  0.41 0.04 0  0.42 0.04 0  0.43 0.04 0  0.44 0.04 0  0.45 0.04 0  0.46 0.04 0  0.47 0.04 0  0.48 0.04 0  0.49 0.04 0  0.5 0.04 0  0.51 0.04 0  0.52 0.04 0  0.53 0.04 0  0.54 0.04 0  0.55 0.04 0  0.5600000000000001 0.04 0  0.57 0.04 0  0.58 0.04 0  0.59 0.04 0  0.6 0.04 0  0.61 0.04 0  0.62 0.04 0  0.63 0.04 0  0.64 0.04 0  0.65 0.04 0  0.66 0.04 0  0.67 0.04 0  0.68 0.04 0  0.6899999999999999 0.04 0  0.7 0.04 0  0.71 0.04 0  0.72 0.04 0  0.73 0.04 0  0.74 0.04 0  0.75 0.04 0  0.76 0.04 0  0.77 0.04 0  0.78 0.04 0  0.79 0.04 0  0.8 0.04 0  0.8100000000000001 0.04 0  0.82 0.04 0  0.83 0.04 0  0.84 0.04 0  0.85 0.04 0  0.86 0.04 0  0.87 0.04 0  0.88 0.04 0  0.89 0.04 0  0.9 0.04 0  0.91 0.04 0  0.92 0.04 0  0.93 0.04 0  0.9399999999999999 0.04 0  0.95 0.04 0  0.96 0.04 0  0.97 0.04 0  0.98 0.04 0  0.99 0.04 0  1 0.04 0  0 0.05 0  0.01 0.05 0  0.02 0.05 0  0.03 0.05 0  0.04 0.05 0  0.05 0.05 0  0.06 0.05 0  0.07000000000000001 0.05 0  0.08 0.05 0  0.09 0.05 0  0.1 0.05 0  0.11 0.05 0  0.12 0.05 0  0.13 0.05 0  0.14 0.05 0  0.15 0.05 0  0.16 0.05 0  0.17 0.05 0  0.18 0.05 0  0.19 0.05 0  0.2 0.05 0  0.21 0.05 0  0.22 0.05 0  0.23 0.05 0  0.24 0.05 0  0.25 0.05 0  0.26 0.05 0  0.27 0.05 0  0.28 0.05 0  0.29 0.05 0  0.3 0.05 0  0.31 0.05 0  0.32 0.05 0  0.33 0.05 0  0.34 0.05 0  0.35 0.05 0  0.36 0.05 0  0.37 0.05 0  0.38 0.05 0  0.39 0.05 0  0.4 0.05 0  0.41 0.05 0  0.42 0.05 0  0.43 0.05 0  0.44 0.05 0  0.45 0.05 0  0.46 0.05 0  0.47 0.05 0  0.48 0.05 0  0.49 0.05 0  0.5 0.05 0  0.51 0.05 0  0.52 0.05 0  0.53 0.05 0  0.54 0.05 0  0.55 0.05 0  0.5600000000000001 0.05 0  0.57 0.05 0  0.58 0.05 0  0.59 0.05 0  0.6 0.05 0  0.61 0.05 0  0.62 0.05 0  0.63 0.05 0  0.64 0.05 0  0.65 0.05 0  0.66 0.05 0  0.67 0.05 0  0.68 0.05 0  0.6899999999999999 0.05 0  0.7 0.05 0  0.71 0.05 0  0.72 0.05 0  0.73 0.05 0  0.74 0.05 0  0.75 0.05 0  0.76 0.05 0  0.77 0.05 0  0.78 0.05 0  0.79 0.05 0  0.8 0.05 0  0.8100000000000001 0.05 0  0.82 0.05 0  0.83 0.05 0  0.84 0.05 0  0.85 0.05 0  0.86 0.05 0  0.87 0.05 0  0.88 0.05 0  0.89 0.05 0  0.9 0.05 0  0.91 0.05 0  0.92 0.05 0  0.93 0.05 0  0.9399999999999999 0.05 0  0.95 0.05 0  0.96 0.05 0  0.97 0.05 0  0.98 0.05 0  0.99 0.05 0  1 0.05 0  0 0.06 0  0.01 0.06 0  0.02 0.06 0  0.03 0.06 0  0.04 0.06 0  0.05 0.06 0  0.06 0.06 0  0.07000000000000001 0.06 0  0.08 0.06 0  0.09 0.06 0  0.1 0.06 0  0.11 0.06 0  0.12 0.06 0  0.13 0.06 0  0.14 0.06 0  0.15 0.06 0  0.16 0.06 0  0.17 0.06 0  0.18 0.06 0  0.19 0.06 0  0.2 0.06 0  0.21 0.06 0  0.22 0.06 0  0.23 0.06 0  0.24 0.06 0  0.25 0.06 0  0.26 0.06 0  0.27 0.06 0  0.28 0.06 0  0.29 0.06 0  0.3 0.06 0  0.31 0.06 0  0.32 0.06 0  0.33 0.06 0  0.34 0.06 0  0.35 0.06 0  0.36 0.06 0  0.37 0.06 0  0.38 0.06 0  0.39 0.06 0  0.4 0.06 0  0.41 0.06 0  0.42 0.06 0  0.43 0.06 0  0.44 0.06 0  0.45 0.06 0  0.46 0.06 0  0.47 0.06 0  0.48 0.06 0  0.49 0.06 0  0.5 0.06 0  0.51 0.06 0  0.52 0.06 0  0.53 0.06 0  0.54 0.06 0  0.55 0.06 0  0.5600000000000001 0.06 0  0.57 0.06 0  0.58 0.06 0  0.59 0.06 0  0.6 0.06 0  0.61 0.06 0  0.62 0.06 0  0.63 0.06 0  0.64 0.06 0  0.65 0.06 0  0.66 0.06 0  0.67 0.06 0  0.68 0.06 0  0.6899999999999999 0.06 0  0.7 0.06 0  0.71 0.06 0  0.72 0.06 0  0.73 0.06 0  0.74 0.06 0  0.75 0.06 0  0.76 0.06 0  0.77 0.06 0  0.78 0.06 0  0.79 0.06 0  0.8 0.06 0  0.8100000000000001 0.06 0  0.82 0.06 0  0.83 0.06 0  0.84 0.06 0  0.85 0.06 0  0.86 0.06 0  0.87 0.06 0  0.88 0.06 0  0.89 0.06 0  0.9 0.06 0  0.91 0.06 0  0.92 0.06 0  0.93 0.06 0  0.9399999999999999 0.06 0  0.95 0.06 0  0.96 0.06 0  0.97 0.06 0  0.98 0.06 0  0.99 0.06 0  1 0.06 0  0 0.07000000000000001 0  0.01 0.07000000000000001 0  0.02 0.07000000000000001 0  0.03 0.07000000000000001 0  0.04 0.07000000000000001 0  0.05 0.07000000000000001 0  0.06 0.07000000000000001 0  0.07000000000000001 0.07000000000000001 0  0.08 0.07000000000000001 0  0.09 0.07000000000000001 0  0.1 0.07000000000000001 0  0.11 0.07000000000000001 0  0.12 0.07000000000000001 0  0.13 0.07000000000000001 0  0.14 0.07000000000000001 0  0.15 0.07000000000000001 0  0.16 0.07000000000000001 0  0.17 0.0700
[...]
<PointData  Scalars="Indicator Function"> 
<DataArray  type="Float64"  Name="Indicator Function"  format="ascii">-1.8055593228630336e-35  -4.6535944740002583e-20  -4.8525977159153449e-20  -2.3829565473221695e-20  3.0583992119035721e-19  -2.8130324281787362e-20  -2.2542482643372274e-20  6.6613927248922587e-19  7.9578963565398782e-19  -2.4563322606836085e-21  3.7279341181316652e-18  4.6141184532752272e-19  -2.5833612409409881e-20  -3.0574349785326142e-20  8.0529918769551287e-18  -6.6785872272073377e-21  2.4299819220198327e-34  1.8611203813830287e-18  -3.3663265315688643e-20  1.2037062152420224e-35  7.4906453443864453e-18  0.0000000000000000e+00  -3.4185707963868160e-20  8.7391552234461003e-18  -3.7314674018175658e-20  -2.2505143165943064e-20  -1.7202011801855479e-20  -4.0210984963299964e-20  4.0376717913839785e-17  -1.6135657668013164e-20  -6.6615998717525835e-20  -2.4821885184524387e-20  -4.2501083263922633e-20  -3.0543838551706628e-20  1.7197939039567908e-18  -6.8194684086035066e-20  -9.8713464545715286e-20  -1.1626567516989784e-19  -1.2287587373169031e-19  -1.2069564101187765e-19  8.2634724180989859e-18  -5.4452625406549135e-20  -2.2402221947330284e-20  -2.8893227399733903e-20  -2.7477884226419770e-20  -1.9322565905491188e-20  1.4156517588872949e-17  -1.4943294377626179e-20  -1.0116385754765302e-20  -9.2426805794878262e-21  -1.2017811091346623e-20  -1.1450288689994729e-20  -8.3642840882536533e-21  -1.1787932269847011e-20  -7.3179765787291247e-21  -4.7960169513549330e-36  2.9851914138002156e-33  9.4039548065783001e-38  -4.7019774032891500e-38  2.3509887016445750e-38  -4.7019774032891500e-38  -4.7019774032891500e-38  -7.5358813524001917e-24  -8.2097689505275392e-23  -1.2581928573908911e-22  -1.3540312796816196e-22  -1.6085627547361395e-22  -2.1249691640879067e-22  4.2823788399503886e-20  -1.1226039017099596e-22  -1.0528246968325382e-22  -7.4491953757730174e-22  -1.3065521735200611e-21  -1.1621394230472112e-21  -2.1541369385984853e-21  -3.2412576165970112e-21  -1.3509187127847441e-21  -1.0927025277996112e-21  -9.5893681100137887e-22  -2.0629277355078668e-22  -2.6234005920797376e-22  -3.6006546931183948e-20  -2.7660651725787209e-22  -4.3620737948973337e-22  -2.1121670102419101e-21  -7.6076877664048278e-22  -1.1802853309300639e-22  -5.8774717541114375e-39  8.8162076311671563e-39  -8.8710632042971356e-24  -1.0069423859406365e-23  -5.5300860338003382e-24  -5.3176138324891203e-25  3.4663358199334009e-23  -6.0611427464274200e-39  -1.6530389308438418e-39  5.6938007617954551e-39  -2.2958874039497803e-39  6.4284847310593848e-40  -4.5917748078995606e-41  3.2142423655296924e-40  -2.2737884259749249e-20  3.8106941183798699e-04  2.1506572151928411e-04  1.1152313539158685e-04  3.1638863833380261e-04  2.1660475111722486e-04  3.9844849625446258e-04  2.0686501760355859e-04  6.2874883950139293e-04  8.8498696431302241e-05  1.1476448470046332e-05  4.0723129601687614e-04  6.3597011504038208e-04  1.4739193136241755e-04  4.7708255551994893e-04  1.1953086560777935e-04  6.0545298987359600e-05  6.6914981315060692e-04  1.5411001833858868e-04  6.0642347652723795e-04  6.9996098772547784e-05  3.2042327538640462e-04  9.6982333342411929e-05  5.6734379991869150e-04  2.6536925972783088e-04  8.1083323500848669e-04  6.1976779152687336e-04  7.3950020422486025e-04  3.5462660547523975e-04  5.8134833488833514e-04  6.1148897012678629e-04  8.9430266294125769e-04  5.6329028661282401e-04  4.8398630769456541e-04  3.0823572583243758e-04  5.0400621812014931e-04  9.7648310629399031e-04  1.2900221354311405e-03  1.4494451377689535e-03  1.4888123877189812e-03  1.4298531816858500e-03  1.1428108378107290e-03  4.0952587505575495e-04  4.0356255365707114e-04  3.1871283577535460e-04  6.9616880489452781e-04  6.0973233719251695e-04  5.3838891992611889e-04  3.6448120892397756e-04  1.9543571005383806e-04  1.6650133125474355e-04  3.9334294137331706e-04  9.5985928235208556e-06  1.5067754681232046e-04  1.3701373610564628e-04  6.3322078319458816e-05  5.3452069314020353e-05  2.4701515460501366e-05  9.6287523687252246e-06  4.2443355101688870e-06  2.3602713800168429e-06  2.2107231112144196e-06  2.2169896061778264e-06  1.6203201194893894e-06  1.6369968268937143e-06  2.4971922027409754e-06  3.3125379711372899e-06  2.8789963951905791e-06  2.5985462466919895e-06  2.8873613918298266e-06  1.5535736586486862e-06  5.0275733351820141e-06  1.6057865920853720e-05  1.8165052713705925e-05  1.9905054509736609e-05  3.6937076179263088e-05  3.9920768287640773e-05  4.3756039022004157e-06  1.9684378788100509e-05  7.4324804647403888e-06  3.6163858396874462e-06  2.9177054517298506e-06  6.0613317531119195e-06  1.9522341556472522e-06  2.8518184453948284e-05  2.3790326014104745e-05  1.8096289089203680e-06  1.2213985761668138e-06  1.8868118143099992e-06  5.6221302752790283e-08  1.5980686776501045e-07  1.0149118028172694e-07  5.5182045396664360e-08  2.9433416716216375e-08  2.1683194900465012e-08  1.7625032976762298e-08  1.6156588428075008e-08  1.3203738620923581e-08  1.0456201738137476e-08  5.9732103853909548e-09  5.5101297694794727e-40  -1.5638049324980293e-20  4.0960930831760052e-04  1.3720265639210612e-04  8.2276879627788072e-05  6.2795714823993723e-05  4.4933875207578508e-04  4.8342891055087975e-04  5.5954705790509768e-04  6.7641086287851041e-04  8.4348078026545226e-05  4.4599570334014283e-04  3.4987692610466506e-04  4.0306538369254185e-04  9.6432897570401951e-04  5.5169964824684423e-04  4.3659880193131742e-04  1.0790083587196948e-03  1.3220484016528353e-04  5.5158508749045515e-04  7.0875062364574796e-04  3.5440620402530634e-04  1.3404012547270927e-03  8.9178236066914714e-04  1.4620752252634201e-03  7.9195280851382789e-04  9.5817649517556519e-04  1.1062586763417066e-04  4.2552318201906602e-04  1.5494297456552242e-03  9.6567891692615814e-04  2.9693655670808369e-04  1.5302233039602305e-03  2.0531681638776510e-04  1.1144967216921158e-03  4.4894154024912561e-04  1.5681733435489250e-04  1.2900273527234006e-03  1.6506073063174238e-03  1.9689851809259326e-03  2.1093805882292250e-03  2.0689181794156706e-03  1.8297999609003402e-03  1.2196303819492107e-03  2.8961693638445150e-04  9.6259771650440793e-04  8.0398557084978195e-04  6.3587529247023135e-04  9.2975058145688375e-04  6.8337125771227578e-04  5.4275858673143553e-05  3.5823020935770410e-04  3.9857206660153476e-04  4.2892368486659204e-04  3.5350557564256931e-04  2.0976607503759892e-04  9.2601405682774080e-05  5.7862631235527325e-05  6.3019607863742862e-05  2.2615639268097059e-05  9.3903803152891810e-06  3.6323735669286266e-06  2.4443984747500176e-06  2.1622572859728410e-06  1.3238686815221790e-06  9.0355935058567675e-07  1.6612015211947303e-06  2.7315323696008136e-06  3.0046554278701993e-06  3.2094185368631414e-06  3.6418038895506375e-06  1.6087587372151109e-06  9.5829452282001644e-07  1.4096000726555655e-05  2.6953626228812967e-05  2.4375772856271120e-05  3.8873346455105895e-05  6.4222368676813602e-05  4.1971205348063533e-05  2.0459440273560358e-05  2.8333029051190671e-05  1.8269107829515470e-06  9.7911979271046646e-06  6.8186269612803909e-06  1.3138786286113051e-05  1.6176444942178651e-05  4.8952354040710494e-05  2.0417441549434241e-05  8.9034283884032110e-07  1.7327362202771084e-06  1.0137149988176387e-06  2.2540115951643007e-07  1.9213227604292296e-07  1.0818186910433651e-07  5.3167924419035112e-08  3.6946938751823294e-08  2.9694187260364046e-08  2.6369707261731470e-08  2.3373837799220395e-08  1.9154327387491930e-08  1.1761334194700807e-08  -4.4081038155835782e-39  -1.7194662163847337e-20  2.8171005245113123e-04  4.1916029853099947e-04  3.4810912743091666e-05  4.1549409963139214e-04  5.6822991794360639e-04  4.6153816109345075e-04  7.2444670441444139e-04  1.2654918500851431e-04  1.2932987655907915e-03  4.8587058765148748e-04  2.1868016696246146e-05  9.9673894308430363e-04  9.3712877589908821e-04  1.6441622265307286e-05  1.1178125139292537e-03  4.1168198907674157e-04  4.8228670062043321e-04  1.1979820126358566e-03  7.2019570937802515e-04  1.6053578197072901e-03  6.2591903323778737e-04  1.1420147951017477e-03  5.2103045811719112e-04  1.6648115708488708e-03  1.4177905896629766e-03  2.1248266678590717e-03  1.7287109973208854e-03  1.5402738351630669e-03  8.4738636379480677e-04  1.8810848101881569e-03  1.3466767457211959e-03  1.8948973470060344e-03  1.7997790614530664e-03  9.6268451269894743e-04  2.3322432605247498e-04  1.2329766626518253e-03  1.8365464655765884e-03  2.1069376917408652e-03  2.3376517469329314e-03  2.4129034506996517e-03  2.2965303538866060e-03  1.7294324739126718e-03  4.3385750977118078e-04  9.4262610494401605e-04  5.8402965279032593e-04  1.9640942368361770e-03  1.4490189091077139e-03  1.0389464984986707e-03  8.0607104471525320e-04  6.9782623184198335e-04  6.1348689064300238e-04  9.7324830593300312e-04  1.0449100002289549e-04  4.5541726137715040e-04  1.6152463317200554e-04  1.1176563503119125e-05  7.4221057340192564e-05  5.1625570574282850e-05  1.9656366426711367e-05  9.4333371579010084e-06  4.7683986602697687e-06  2.8786302644418513e-06  1.9857940952436952e-06  1.0925175690288563e-06  1.1991523958734031e-06  2.2989011648679412e-06  3.5388892635806244e-06  3.9816588268935612e-06  3.5134994096707643e-06  2.4156595977499671e-06  2.2527936697852041e-07  6.6685160646140934e-06  2.5861911356157497e-05  2.8362945954970805e-05  2.9561244814660339e-05  5.9484923999102412e-05  7.0906484183781422e-05  1.2181460375845399e-05  3.9198590911345334e-05  2.1839058722129033e-05  6.5292579193792148e-06  1.0349910440039640e-05  1.3144735039303349e-05  6.1046127092608161e-06  4.3959573108648331e-05  4.4776352551514708e-05  8.1322084216385051e-06  4.5184439986078889e-07  8.9599786297689957e-07  1.9177220128162384e-07  3.7761049828369178e-07  2.2230852450868855e-07  1.0786544483214043e-07  6.1295559058671666e-08  4.5700160047360137e-08  3.8105857974274304e-08  3.2858981065119781e-08  2.5620084828018987e-08  1.7397431599431272e-08  -6.7039912195333584e-39  -1.9103751219584004e-20  3.0975149645545827e-04  4.1710199125185188e-04  1.0768945447646336e-04  1.4201851891099132e-04  5.0596732634891693e-04  7.9367738591578296e-04  1.0661836602226095e-03  9.0546172504801033e-04  5.3219092298613770e-04  7.9244043882031515e-05  4.4031822276578215e-04  1.6476628038163127e-04  7.0731268409820406e-04  1.5079977229526724e-03  1.1327062715478545e-04  4.4295605093495839e-04  1.4126485198626237e-03  4.9150668738054469e-04  1.2372371280898237e-03  3.1643410897035551e-04  1.6955167597316239e-04  1.6198251295156598e-03  1.2992216120632639e-03  1.9564331847361136e-03  8.8899285866019580e-04  8.5532673297820851e-04  7.1266087458482670e-04  1.4754118058788017e-03  2.8723770376915484e-03  1.4663104863847302e-03  1.0301296494266720e-03  2.7438338639655911e-03  5.3096346720593807e-04  2.4118492549951034e-03  5.2508747570985696e-04  3.6053920054742383e-04  2.1295671147133198e-03  2.2303581290067953e-03  2.4644563037457021e-03  2.6109313127261492e-03  2.5578024877638559e-03  2.2694415494811915e-03  1.4210674375193372e-03  7.2253832081695579e-04  1.5551838897099762e-03  1.3255040286716498e-03  1.5333861153743410e-03  2.2633644736481120e-03  1.6648168114415758e-03  6.1363732992642927e-04  2.1564886651945198e-04  3.9661421588999549e-04  8.3177064599507017e-04  6.9638440807911399e-04  3.4952875924820206e-04  2.7160572058761907e-05  3.0065572054453545e-05  8.0211353377139367e-05  3.3524923964829824e-05  1.5420460310941499e-05  8.2094101952120263e-06  3.8344628956486139e-06  2.7187460335734285e-06  2.4746842486718727e-06  2.0270435563005737e-06  2.2777624632394959e-06  3.2651308260968867e-06  3.5203973109594816e-06  3.0624617984128219e-06  3.4134669608880230e-06  7.5138791893085398e-07  3.4699887070990964e-07  1.7213747759922364e-05  3.1859967833177880e-05  2.5506402462697489e-05  4.3289513214644087e-05  7.5935770613757685e-05  5.1776421243698404e-05  2.2483392608608938e-05  3.8093515804022442e-05  9.2789784882166603e-06  1.0466130792683219e-05  1.1567314597406897e-05  1.8159277770269331e-05  2.1060987782838046e-05  5.5241924038243019e-05  2.5469308485079359e-05  2.7256767051893001e-06  6.7810118482155787e-07  4.9479482981538652e-07  7.0256666623646762e-07  4.2950320351729795e-07  2.2260227321394256e-07  1.0828237757917338e-07  6.9827551745330794e-08  5.1541563388805430e-08  4.2223374127863508e-08  3.3651828810993754e-08  2.1622298618397922e-08  2.2040519077917891e-39  -1.3239352673783803e-20  3.4414258749558834e-04  5.2335995996759580e-04  7.2409617886810308e-04  1.9592996785678548e-04  4.9713019072798097e-04  4.2561881701123937e-04  3.5915020000812045e-04  1.1498945927433015e-03  3.3494452890706235e-04  1.6009033301828013e-03  9.4980254676383269e-04  2.8262534617761825e-04  1.1968870578681348e-03  9.4433927109282276e-04  2.3574651226264558e-04  1.2338686449383004e-03  9.8457692115705322e-04  1.1274826602038544e-03  9.9245361395351186e-04  6.8839893799741531e-04  1.9861341608532809e-03  1.1903171262263755e-03  1.9375293683726264e-03  1.2730542186752054e-03  2.6279690119287904e-03  2.3227854969636859e-03  2.9560265821120682e-03  2.1595121145943897e-03  1.4849525736158335e-03  1.7375600826670238e-03  2.9852152683376657e-03  1.5301740596049219e-03  3.1193911805842182e-03  2.3656529226183075e-03  1.7252538451739778e-03  9.8720163426353264e-05  1.5774479183907934e-03  2.5724117017376204e-03  2.5648701644361799e-03  2.7439313300659149e-03  2.8278705437998252e-03  2.6860971212379330e-03  1.9863781081070203e-03  3.8184278450226704e-04  1.5207571593102520e-03  1.0008682163567529e-03  3.0181868927588330e-03  1.5281439653360143e-03  5.7075156982587516e-04  4.9985695593509206e-04  7.2843065491052497e-04  9.4707073992605190e-04  1.3311281717329263e-03  7.8259340580708183e-07  8.0708189024347103e-04  1.9596311139508793e-04  1.1138909720329655e-04  3.3770080668624494e-05  6.7070303259532103e-05  2.1182487481882021e-05  1.0477391317191338e-05  5.1203497443360357e-06  3.2116175240589128e-06  3.5988086099263804e-06  3.5327226653640387e-06  2.8709872332813347e-06  2.9900926273892553e-06  3.2948401788474070e-06  3.6020590201406797e-06  4.0471733586923403e-06  1.9748973718464661e-06  3.5651959948492465e-06  6.2453897482045526e-06  3.0516599922786040e-05  2.8899435092480916e-05  2.8803293622215380e-05  6.3489296815698486e-05  7.5087916057998630e-05  1.2110212116739391e-05  3.7677484461735545e-05  2.4743738037750204e-05  2.3087815776863108e-06  9.5266349389156281e-06  1.8394392236409118e-05  3.8894299091771251e-06  4.9785091464193463e-05  4.1376926300901900e-05  9.5140221871803181e-06  2.5212153211638476e-06  3.9097868700057916e-08  1.1518461781217372e-06  7.1799940288680940e-07  3.9032830770841889e-07  1.8409320485395655e-07  1.0368046969105663e-07  6.8101875105973503e-08  5.2789661705008623e-08  4.1075305391824739e-08  2.6070031767484243e-08  2.9387358770557188e-39  -5.5599129385510031e-21  2.3849897507311729e-04  5.1108813078136028e-04  4.1110273373625773e-04  5.7006952885590761e-04  1.5315204346344285e-04  5.7955671021571572e-04  1.0294694768322827e-03  1.3162528168410986e-03  1.1645945168767113e-03  4.6104770888669117e-04  4.8297636535200693e-04  2.7023487329248748e-05  1.5703513664946272e-04  1.1598737830354378e-03  1.7039060287374795e-03  1.5616708617029762e-04  1.3574626548805692e-04  1.0643541590545787e-03  2.1636885534381323e-04  1.5483123309500987e-03  7.8623532499057404e-05  3.6652311902354401e-04  1.2145879492764680e-03  1.0073851091510762e-03  1.7359728302567112e-03  3.6666570494940854e-04  2.5849622391740706e-04  1.4882480830457233e-03  2.2820521220289864e-03  3.6997314202313614e-03  1.4375961290593355e-03  2.0354090623044261e-03  3.5922592179039848e-03  1.1721869274150688e-03  3.4896787496588974e-03  8.1363007684632919e-04  5.8806503870453711e-04  2.7492357914911079e-03  2.8479194646627466e-03  2.8832713108265639e-03  3.0099620783314977e-03  2.9634222388483680e-03  2.6427460108306975e-03  1.5470380531058233e-03  1.0414520053254291e-03  2.1701746398036666e-03  1.5225843097416659e-03  2.5116294336164466e-03  3.0373011248970298e-03  2.0325551340824020e-03  9.3637699914501417e-04  9.6111640957444647e-05  1.3109035258610169e-04  1.2421472182139288e-03  8.3513615559257539e-04  5.9168938478299567e-04  4.2639030439570652e-06  1.3378223311471895e-04  8.2488838989350948e-05  4.7437879036103056e-05  1.6797752698884224e-05  8.6135865901244747e-06  4.4045449815301930e-06  3.2183053787787913e-06  3.4565150264958992e-06  3.4567032260360255e-06  3.0307223928050624e-06  3.0941105282253508e-06  3.4774282638565545e-06  3.1732654098178666e-06  2.5915785060431073e-06  2.2121423463853687e-06  2.4433085913147497e-06  2.1431062652612853e-05  3.4957854587677348e-05  2.3595762775720008e-05  4.5266295251998689e-05  7.8649433641632109e-05  4.8215782709129747e-05  2.2747458528668445e-05  3.2958677580995481e-05  9.3741436460588543e-06  7.1467655585108393e-06  1.2190602981281746e-05  1.9619501382410280e-05  3.0594096673287904e-05  5.3700244674527842e-05  1.9447202136848525e-05  4.6186177795437752e-06  1.7299009475661883e-06  1.2344574064137606e-06  1.1477578945617175e-06  6.2541767922189208e-07  3.0350279773148364e-07  1.5056290314544621e-07  9.2228732605588924e-08  6.4736590557684733e-08  4.9473282079794282e-08  3.1576213311425046e-08  -8.8162076311671563e-39  -1.8996258115138371e-20  1.0015848735308271e-04  3.6754512784092539e-04  6.4620023693100009e-04  6.4193914780185898e-04  1.0307351004375089e-04  6.1405477029978994e-04  2.1743845481374377e-04  5.3906581370457542e-05  1.5100963029892863e-03  5.4965066953699361e-04  1.4920897901814787e-03  8.9112831697556866e-04  2.7652050101185477e-04  1.1336391477955047e-03  1.2285335991220007e-03  5.8390326707878637e-04  8.8817165548951910e-04  9.1267198202725725e-04  1.2852914910460151e-03  8.5327533879579352e-04  2.3683717654291424e-04  1.6940159777812638e-03  9.3145965453624556e-04  2.0390785877075464e-03  1.3630485231819944e-03  2.8627700588710748e-03  2.3554930743446907e-03  2.9492221515047875e-03  1.9082079509302749e-03  1.0419587160770286e-03  2.6258970045883660e-03  3.5320471046903319e-03  1.3187761065063641e-03  4.2902216268299320e-03  2.5043965168951377e-03  2.7825393094946856e-03  7.4032975265920904e-05  1.8524553468804163e-03  3.3997781783025095e-03  3.1434811660085034e-03  3.1866453154840279e-03  3.2680851525496405e-03  3.1013211836776375e-03  2.2567503012719233e-03  3.3150957733943181e-04  2.0747069345995162e-03  1.3961503462911180e-03  3.6787488059549845e-03  1.1987785829308322e-03  1.8829543185434113e-04  9.9280662771418054e-05  2.9403152939284601e-04  8.0455252874885811e-04  1.3447741400808564e-03  2.5985592987162157e-04  1.0777223694123253e-03  3.1027027571541363e-04  1.8191732172707494e-04  5.1601574584079768e-05  8.2519204600319408e-05  2.8865240308139828e-05  1.3250305333425652e-05  7.4978002365135002e-06  3.5691449236390943e-06  2.5969846992579782e-06  2.7116087192401829e-06  2.2114457410214951e-06  1.8050793204119981e-06  1.8670875082592252e-06  1.6823418667299948e-06  2.5503784776648179e-06  5.1923511135148197e-07  6.9193525266663313e-06  7.0997007064232088e-06  3.6016585340784329e-05  2.8840586987583047e-05  2.9174262360446630e-05  6.6959390310924525e-05  7.2795150744090086e-05  5.7906760331017533e-06  3.3278221681284917e-05  2.0229641108018259e-05  2.0460009268277978e-06  7.0100446344902107e-06  2.0938001526635587e-05  3.6844281127360625e-06  5.5717042091182470e-05  3.4104723392332422e-05  7.5862685661953048e-06  3.8948469863295690e-06  3.6598864577664500e-07  1.5771996744315489e-06  9.6043748365460937e-07  4.9522999989025017e-07  2.2434950653949509e-07  1.2862721887679700e-07  8.1177772142048690e-08  5.9645394812421847e-08  3.8648886181457560e-08  4.8047105078078224e-27  -2.4232939812416049e-21  3.4220616387508441e-04  5.0042638181811878e-04  5.5720894936274793e-04  4.5314916178673133e-04  7.5615759055295607e-04  4.2115015974174748e-05  5.1557427393858057e-04  8.8630408648278283e-04  1.2446639038212342e-03  1.4947581474599712e-03  6.2165395171906760e-04  5.1614329296966117e-04  2.9769716876357547e-04  3.5016471473503670e-04  1.3233553554594642e-03  1.7773394367244244e-03  