<?xml version="1.0"?>
<VTKFile type="UnstructuredGrid"  version="0.1"  >
<UnstructuredGrid>
<Piece  NumberOfPoints="10201" NumberOfCells="20000">
<Points>
<DataArray  type="Float64"  NumberOfComponents="3"  format="ascii">0 0 0  0.01 0 0  0.02 0 0  0.03 0 0  0.04 0 0  0.05 0 0  0.06 0 0  0.07000000000000001 0 0  0.08 0 0  0.09 0 0  0.1 0 0  0.11 0 0  0.12 0 0  0.13 0 0  0.14 0 0  0.15 0 0  0.16 0 0  0.17 0 0  0.18 0 0  0.19 0 0  0.2 0 0  0.21 0 0  0.22 0 0  0.23 0 0  0.24 0 0  0.25 0 0  0.26 0 0  0.27 0 0  0.28 0 0  0.29 0 0  0.3 0 0  0.31 0 0  0.32 0 0  0.33 0 0  0.34 0 0  0.35 0 0  0.36 0 0  0.37 0 0  0.38 0 0  0.39 0 0  0.4 0 0  0.41 0 0  0.42 0 0  0.43 0 0  0.44 0 0  0.45 0 0  0.46 0 0  0.47 0 0  0.48 0 0  0.49 0 0  0.5 0 0  0.51 0 0  0.52 0 0  0.53 0 0  0.54 0 0  0.55 0 0  0.5600000000000001 0 0  0.57 0 0  0.58 0 0  0.59 0 0  0.6 0 0  0.61 0 0  0.62 0 0  0.63 0 0  0.64 0 0  0.65 0 0  0.66 0 0  0.67 0 0  0.68 0 0  0.6899999999999999 0 0  0.7 0 0  0.71 0 0  0.72 0 0  0.73 0 0  0.74 0 0  0.75 0 0  0.76 0 0  0.77 0 0  0.78 0 0  0.79 0 0  0.8 0 0  0.8100000000000001 0 0  0.82 0 0  0.83 0 0  0.84 0 0  0.85 0 0  0.86 0 0  0.87 0 0  0.88 0 0  0.89 0 0  0.9 0 0  0.91 0 0  0.92 0 0  0.93 0 0  0.9399999999999999 0 0  0.95 0 0  0.96 0 0  0.97 0 0  0.98 0 0  0.99 0 0  1 0 0  0 0.01 0  0.01 0.01 0  0.02 0.01 0  0.03 0.01 0  0.04 0.01 0  0.05 0.01 0  0.06 0.01 0  0.07000000000000001 0.01 0  0.08 0.01 0  0.09 0.01 0  0.1 0.01 0  0.11 0.01 0  0.12 0.01 0  0.13 0.01 0  0.14 0.01 0  0.15 0.01 0  0.16 0.01 0  0.17 0.01 0  0.18 0.01 0  0.19 0.01 0  0.2 0.01 0  0.21 0.01 0  0.22 0.01 0  0.23 0.01 0  0.24 0.01 0  0.25 0.01 0  0.26 0.01 0  0.27 0.01 0  0.28 0.01 0  0.29 0.01 0  0.3 0.01 0  0.31 0.01 0  0.32 0.01 0  0.33 0.01 0  0.34 0.01 0  0.35 0.01 0  0.36 0.01 0  0.37 0.01 0  0.38 0.01 0  0.39 0.01 0  0.4 0.01 0  0.41 0.01 0  0.42 0.01 0  0.43 0.01 0  0.44 0.01 0  0.45 0.01 0  0.46 0.01 0  0.47 0.01 0  0.48 0.01 0  0.49 0.01 0  0.5 0.01 0  0.51 0.01 0  0.52 0.01 0  0.53 0.01 0  0.54 0.01 0  0.55 0.01 0  0.5600000000000001 0.01 0  0.57 0.01 0  0.58 0.01 0  0.59 0.01 0  0.6 0.01 0  0.61 0.01 0  0.62 0.01 0  0.63 0.01 0  0.64 0.01 0  0.65 0.01 0  0.66 0.01 0  0.67 0.01 0  0.68 0.01 0  0.6899999999999999 0.01 0  0.7 0.01 0  0.71 0.01 0  0.72 0.01 0  0.73 0.01 0  0.74 0.01 0  0.75 0.01 0  0.76 0.01 0  0.77 0.01 0  0.78 0.01 0  0.79 0.01 0  0.8 0.01 0  0.8100000000000001 0.01 0  0.82 0.01 0  0.83 0.01 0  0.84 0.01 0  0.85 0.01 0  0.86 0.01 0  0.87 0.01 0  0.88 0.01 0  0.89 0.01 0  0.9 0.01 0  0.91 0.01 0  0.92 0.01 0  0.93 0.01 0  0.9399999999999999 0.01 0  0.95 0.01 0  0.96 0.01 0  0.97 0.01 0  0.98 0.01 0  0.99 0.01 0  1 0.01 0  0 0.02 0  0.01 0.02 0  0.02 0.02 0  0.03 0.02 0  0.04 0.02 0  0.05 0.02 0  0.06 0.02 0  0.07000000000000001 0.02 0  0.08 0.02 0  0.09 0.02 0  0.1 0.02 0  0.11 0.02 0  0.12 0.02 0  0.13 0.02 0  0.14 0.02 0  0.15 0.02 0  0.16 0.02 0  0.17 0.02 0  0.18 0.02 0  0.19 0.02 0  0.2 0.02 0  0.21 0.02 0  0.22 0.02 0  0.23 0.02 0  0.24 0.02 0  0.25 0.02 0  0.26 0.02 0  0.27 0.02 0  0.28 0.02 0  0.29 0.02 0  0.3 0.02 0  0.31 0.02 0  0.32 0.02 0  0.33 0.02 0  0.34 0.02 0  0.35 0.02 0  0.36 0.02 0  0.37 0.02 0  0.38 0.02 0  0.39 0.02 0  0.4 0.02 0  0.41 0.02 0  0.42 0.02 0  0.43 0.02 0  0.44 0.02 0  0.45 0.02 0  0.46 0.02 0  0.47 0.02 0  0.48 0.02 0  0.49 0.02 0  0.5 0.02 0  0.51 0.02 0  0.52 0.02 0  0.53 0.02 0  0.54 0.02 0  0.55 0.02 0  0.5600000000000001 0.02 0  0.57 0.02 0  0.58 0.02 0  0.59 0.02 0  0.6 0.02 0  0.61 0.02 0  0.62 0.02 0  0.63 0.02 0  0.64 0.02 0  0.65 0.02 0  0.66 0.02 0  0.67 0.02 0  0.68 0.02 0  0.6899999999999999 0.02 0  0.7 0.02 0  0.71 0.02 0  0.72 0.02 0  0.73 0.02 0  0.74 0.02 0  0.75 0.02 0  0.76 0.02 0  0.77 0.02 0  0.78 0.02 0  0.79 0.02 0  0.8 0.02 0  0.8100000000000001 0.02 0  0.82 0.02 0  0.83 0.02 0  0.84 0.02 0  0.85 0.02 0  0.86 0.02 0  0.87 0.02 0  0.88 0.02 0  0.89 0.02 0  0.9 0.02 0  0.91 0.02 0  0.92 0.02 0  0.93 0.02 0  0.9399999999999999 0.02 0  0.95 0.02 0  0.96 0.02 0  0.97 0.02 0  0.98 0.02 0  0.99 0.02 0  1 0.02 0  0 0.03 0  0.01 0.03 0  0.02 0.03 0  0.03 0.03 0  0.04 0.03 0  0.05 0.03 0  0.06 0.03 0  0.07000000000000001 0.03 0  0.08 0.03 0  0.09 0.03 0  0.1 0.03 0  0.11 0.03 0  0.12 0.03 0  0.13 0.03 0  0.14 0.03 0  0.15 0.03 0  0.16 0.03 0  0.17 0.03 0  0.18 0.03 0  0.19 0.03 0  0.2 0.03 0  0.21 0.03 0  0.22 0.03 0  0.23 0.03 0  0.24 0.03 0  0.25 0.03 0  0.26 0.03 0  0.27 0.03 0  0.28 0.03 0  0.29 0.03 0  0.3 0.03 0  0.31 0.03 0  0.32 0.03 0  0.33 0.03 0  0.34 0.03 0  0.35 0.03 0  0.36 0.03 0  0.37 0.03 0  0.38 0.03 0  0.39 0.03 0  0.4 0.03 0  0.41 0.03 0  0.42 0.03 0  0.43 0.03 0  0.44 0.03 0  0.45 0.03 0  0.46 0.03 0  0.47 0.03 0  0.48 0.03 0  0.49 0.03 0  0.5 0.03 0  0.51 0.03 0  0.52 0.03 0  0.53 0.03 0  0.54 0.03 0  0.55 0.03 0  0.5600000000000001 0.03 0  0.57 0.03 0  0.58 0.03 0  0.59 0.03 0  0.6 0.03 0  0.61 0.03 0  0.62 0.03 0  0.63 0.03 0  0.64 0.03 0  0.65 0.03 0  0.66 0.03 0  0.67 0.03 0  0.68 0.03 0  0.6899999999999999 0.03 0  0.7 0.03 0  0.71 0.03 0  0.72 0.03 0  0.73 0.03 0  0.74 0.03 0  0.75 0.03 0  0.76 0.03 0  0.77 0.03 0  0.78 0.03 0  0.79 0.03 0  0.8 0.03 0  0.8100000000000001 0.03 0  0.82 0.03 0  0.83 0.03 0  0.84 0.03 0  0.85 0.03 0  0.86 0.03 0  0.87 0.03 0  0.88 0.03 0  0.89 0.03 0  0.9 0.03 0  0.91 0.03 0  0.92 0.03 0  0.93 0.03 0  0.9399999999999999 0.03 0  0.95 0.03 0  0.96 0.03 0  0.97 0.03 0  0.98 0.03 0  0.99 0.03 0  1 0.03 0  0 0.04 0  0.01 0.04 0  0.02 0.04 0  0.03 0.04 0  0.04 0.04 0  0.05 0.04 0  0.06 0.04 0  0.07000000000000001 0.04 0  0.08 0.04 0  0.09 0.04 0  0.1 0.04 0  0.11 0.04 0  0.12 0.04 0  0.13 0.04 0  0.14 0.04 0  0.15 0.04 0  0.16 0.04 0  0.17 0.04 0  0.18 0.04 0  0.19 0.04 0  0.2 0.04 0  0.21 0.04 0  0.22 0.04 0  0.23 0.04 0  0.24 0.04 0  0.25 0.04 0  0.26 0.04 0  0.27 0.04 0  0.28 0.04 0  0.29 0.04 0  0.3 0.04 0  0.31 0.04 0  0.32 0.04 0  0.33 0.04 0  0.34 0.04 0  0.35 0.04 0  0.36 0.04 0  0.37 0.04 0  0.38 0.04 0  0.39 0.04 0  0.4 0.04 0  0.41 0.04 0  0.42 0.04 0  0.43 0.04 0  0.44 0.04 0  0.45 0.04 0  0.46 0.04 0  0.47 0.04 0  0.48 0.04 0  0.49 0.04 0  0.5 0.04 0  0.51 0.04 0  0.52 0.04 0  0.53 0.04 0  0.54 0.04 0  0.55 0.04 0  0.5600000000000001 0.04 0  0.57 0.04 0  0.58 0.04 0  0.59 0.04 0  0.6 0.04 0  0.61 0.04 0  0.62 0.04 0  0.63 0.04 0  0.64 0.04 0  0.65 0.04 0  0.66 0.04 0  0.67 0.04 0  0.68 0.04 0  0.6899999999999999 0.04 0  0.7 0.04 0  0.71 0.04 0  0.72 0.04 0  0.73 0.04 0  0.74 0.04 0  0.75 0.04 0  0.76 0.04 0  0.77 0.04 0  0.78 0.04 0  0.79 0.04 0  0.8 0.04 0  0.8100000000000001 0.04 0  0.82 0.04 0  0.83 0.04 0  0.84 0.04 0  0.85 0.04 0  0.86 0.04 0  0.87 0.04 0  0.88 0.04 0  0.89 0.04 0  0.9 0.04 0  0.91 0.04 0  0.92 0.04 0  0.93 0.04 0  0.9399999999999999 0.04 0  0.95 0.04 0  0.96 0.04 0  0.97 0.04 0  0.98 0.04 0  0.99 0.04 0  1 0.04 0  0 0.05 0  0.01 0.05 0  0.02 0.05 0  0.03 0.05 0  0.04 0.05 0  0.05 0.05 0  0.06 0.05 0  0.07000000000000001 0.05 0  0.08 0.05 0  0.09 0.05 0  0.1 0.05 0  0.11 0.05 0  0.12 0.05 0  0.13 0.05 0  0.14 0.05 0  0.15 0.05 0  0.16 0.05 0  0.17 0.05 0  0.18 0.05 0  0.19 0.05 0  0.2 0.05 0  0.21 0.05 0  0.22 0.05 0  0.23 0.05 0  0.24 0.05 0  0.25 0.05 0  0.26 0.05 0  0.27 0.05 0  0.28 0.05 0  0.29 0.05 0  0.3 0.05 0  0.31 0.05 0  0.32 0.05 0  0.33 0.05 0  0.34 0.05 0  0.35 0.05 0  0.36 0.05 0  0.37 0.05 0  0.38 0.05 0  0.39 0.05 0  0.4 0.05 0  0.41 0.05 0  0.42 0.05 0  0.43 0.05 0  0.44 0.05 0  0.45 0.05 0  0.46 0.05 0  0.47 0.05 0  0.48 0.05 0  0.49 0.05 0  0.5 0.05 0  0.51 0.05 0  0.52 0.05 0  0.53 0.05 0  0.54 0.05 0  0.55 0.05 0  0.5600000000000001 0.05 0  0.57 0.05 0  0.58 0.05 0  0.59 0.05 0  0.6 0.05 0  0.61 0.05 0  0.62 0.05 0  0.63 0.05 0  0.64 0.05 0  0.65 0.05 0  0.66 0.05 0  0.67 0.05 0  0.68 0.05 0  0.6899999999999999 0.05 0  0.7 0.05 0  0.71 0.05 0  0.72 0.05 0  0.73 0.05 0  0.74 0.05 0  0.75 0.05 0  0.76 0.05 0  0.77 0.05 0  0.78 0.05 0  0.79 0.05 0  0.8 0.05 0  0.8100000000000001 0.05 0  0.82 0.05 0  0.83 0.05 0  0.84 0.05 0  0.85 0.05 0  0.86 0.05 0  0.87 0.05 0  0.88 0.05 0  0.89 0.05 0  0.9 0.05 0  0.91 0.05 0  0.92 0.05 0  0.93 0.05 0  0.9399999999999999 0.05 0  0.95 0.05 0  0.96 0.05 0  0.97 0.05 0  0.98 0.05 0  0.99 0.05 0  1 0.05 0  0 0.06 0  0.01 0.06 0  0.02 0.06 0  0.03 0.06 0  0.04 0.06 0  0.05 0.06 0  0.06 0.06 0  0.07000000000000001 0.06 0  0.08 0.06 0  0.09 0.06 0  0.1 0.06 0  0.11 0.06 0  0.12 0.06 0  0.13 0.06 0  0.14 0.06 0  0.15 0.06 0  0.16 0.06 0  0.17 0.06 0  0.18 0.06 0  0.19 0.06 0  0.2 0.06 0  0.21 0.06 0  0.22 0.06 0  0.23 0.06 0  0.24 0.06 0  0.25 0.06 0  0.26 0.06 0  0.27 0.06 0  0.28 0.06 0  0.29 0.06 0  0.3 0.06 0  0.31 0.06 0  0.32 0.06 0  0.33 0.06 0  0.34 0.06 0  0.35 0.06 0  0.36 0.06 0  0.37 0.06 0  0.38 0.06 0  0.39 0.06 0  0.4 0.06 0  0.41 0.06 0  0.42 0.06 0  0.43 0.06 0  0.44 0.06 0  0.45 0.06 0  0.46 0.06 0  0.47 0.06 0  0.48 0.06 0  0.49 0.06 0  0.5 0.06 0  0.51 0.06 0  0.52 0.06 0  0.53 0.06 0  0.54 0.06 0  0.55 0.06 0  0.5600000000000001 0.06 0  0.57 0.06 0  0.58 0.06 0  0.59 0.06 0  0.6 0.06 0  0.61 0.06 0  0.62 0.06 0  0.63 0.06 0  0.64 0.06 0  0.65 0.06 0  0.66 0.06 0  0.67 0.06 0  0.68 0.06 0  0.6899999999999999 0.06 0  0.7 0.06 0  0.71 0.06 0  0.72 0.06 0  0.73 0.06 0  0.74 0.06 0  0.75 0.06 0  0.76 0.06 0  0.77 0.06 0  0.78 0.06 0  0.79 0.06 0  0.8 0.06 0  0.8100000000000001 0.06 0  0.82 0.06 0  0.83 0.06 0  0.84 0.06 0  0.85 0.06 0  0.86 0.06 0  0.87 0.06 0  0.88 0.06 0  0.89 0.06 0  0.9 0.06 0  0.91 0.06 0  0.92 0.06 0  0.93 0.06 0  0.9399999999999999 0.06 0  0.95 0.06 0  0.96 0.06 0  0.97 0.06 0  0.98 0.06 0  0.99 0.06 0  1 0.06 0  0 0.07000000000000001 0  0.01 0.07000000000000001 0  0.02 0.07000000000000001 0  0.03 0.07000000000000001 0  0.04 0.07000000000000001 0  0.05 0.07000000000000001 0  0.06 0.07000000000000001 0  0.07000000000000001 0.07000000000000001 0  0.08 0.07000000000000001 0  0.09 0.07000000000000001 0  0.1 0.07000000000000001 0  0.11 0.07000000000000001 0  0.12 0.07000000000000001 0  0.13 0.07000000000000001 0  0.14 0.07000000000000001 0  0.15 0.07000000000000001 0  0.16 0.07000000000000001 0  0.17 0.0700
[...]
<PointData  Scalars="u"> 
<DataArray  type="Float64"  Name="u"  format="ascii">0.0000000000000000e+00  0.0000000000000000e+00  0.0000000000000000e+00  0.0000000000000000e+00  0.0000000000000000e+00  0.0000000000000000e+00  0.0000000000000000e+00  0.0000000000000000e+00  0.0000000000000000e+00  0.0000000000000000e+00  0.0000000000000000e+00  0.0000000000000000e+00  0.0000000000000000e+00  0.0000000000000000e+00  0.0000000000000000e+00  0.0000000000000000e+00  0.0000000000000000e+00  0.0000000000000000e+00  0.0000000000000000e+00  0.0000000000000000e+00  0.0000000000000000e+00  0.0000000000000000e+00  0.0000000000000000e+00  0.0000000000000000e+00  0.0000000000000000e+00  0.0000000000000000e+00  0.0000000000000000e+00  0.0000000000000000e+00  0.0000000000000000e+00  0.0000000000000000e+00  0.0000000000000000e+00  0.0000000000000000e+00  0.0000000000000000e+00  0.0000000000000000e+00  0.0000000000000000e+00  0.0000000000000000e+00  0.0000000000000000e+00  0.0000000000000000e+00  0.0000000000000000e+00  0.0000000000000000e+00  0.0000000000000000e+00  0.0000000000000000e+00  0.0000000000000000e+00  0.0000000000000000e+00  0.0000000000000000e+00  0.0000000000000000e+00  0.0000000000000000e+00  0.0000000000000000e+00  0.0000000000000000e+00  0.0000000000000000e+00  0.0000000000000000e+00  0.0000000000000000e+00  0.0000000000000000e+00  0.0000000000000000e+00  0.0000000000000000e+00  0.0000000000000000e+00  0.0000000000000000e+00  0.0000000000000000e+00  0.0000000000000000e+00  0.0000000000000000e+00  0.0000000000000000e+00  0.0000000000000000e+00  0.0000000000000000e+00  0.0000000000000000e+00  0.0000000000000000e+00  0.0000000000000000e+00  0.0000000000000000e+00  0.0000000000000000e+00  0.0000000000000000e+00  0.0000000000000000e+00  0.0000000000000000e+00  0.0000000000000000e+00  0.0000000000000000e+00  0.0000000000000000e+00  0.0000000000000000e+00  0.0000000000000000e+00  0.0000000000000000e+00  0.0000000000000000e+00  0.0000000000000000e+00  0.0000000000000000e+00  0.0000000000000000e+00  0.0000000000000000e+00  0.0000000000000000e+00  0.0000000000000000e+00  0.0000000000000000e+00  0.0000000000000000e+00  0.0000000000000000e+00  0.0000000000000000e+00  0.0000000000000000e+00  0.0000000000000000e+00  0.0000000000000000e+00  0.0000000000000000e+00  0.0000000000000000e+00  0.0000000000000000e+00  0.0000000000000000e+00  0.0000000000000000e+00  0.0000000000000000e+00  0.0000000000000000e+00  0.0000000000000000e+00  0.0000000000000000e+00  0.0000000000000000e+00  0.0000000000000000e+00  -7.5464612469494945e-04  -4.9099220363304195e-04  -1.0270522193963941e-04  -5.1390273941250616e-04  1.7991966871701385e-04  1.6524410796140700e-04  -1.5831723672791461e-04  1.9362509689109923e-04  -2.3042354705133912e-04  -5.5673881940480147e-05  2.6057327473686645e-04  3.1378766045972375e-04  -1.6692471886395777e-04  1.8275632043308242e-05  1.1854708821121202e-04  -1.3639648740342068e-04  5.4756260999365837e-04  -3.7243292407235392e-04  3.5203267324075417e-04  3.4936564358903610e-05  4.7954428910690041e-05  1.7436950724641746e-04  3.0531286406751358e-04  -2.3998309591847188e-04  7.4301002338319762e-04  -7.4606670444897700e-04  9.2664632241799458e-04  4.3897416435478349e-05  -4.6175385042560051e-04  9.5807708736651159e-04  5.7944764555364100e-04  -7.9727032276614572e-04  2.5710690486338421e-05  5.4506096641874970e-04  6.8070844143641479e-04  3.8358848719343113e-04  2.7159744156087965e-04  1.8826438523634762e-04  1.3927889062665278e-04  9.4740942995966148e-05  -5.8411722047165155e-05  -1.5636435553307987e-04  -6.1683723718408050e-04  4.5578663449270744e-05  8.0538187977805247e-04  -7.9977376368817318e-04  5.7537541839795196e-04  -3.3733252471609477e-04  6.5309782602454840e-05  6.8779218150518632e-05  2.9267919007054454e-04  -2.5088561572540117e-04  -3.8981303769834135e-05  3.7322244805940011e-05  6.0922445644491148e-05  4.4355453169341629e-05  3.5466052243952629e-05  3.3219518979962231e-05  3.0678384576499288e-05  2.9458665350327186e-05  2.6163387423590913e-05  2.8635732034494477e-05  2.1945568872955951e-05  2.2736862952093478e-05  2.2776400529020229e-05  5.2386629561775747e-05  2.6956717479717034e-05  1.4806768550604482e-05  1.7103035433592491e-05  1.7347767315405528e-05  1.7939188942709167e-05  2.0100886898068388e-05  1.7318290230504701e-05  1.5267575321357715e-05  1.6816026092568782e-05  1.3488789545987206e-05  1.5654342440365204e-05  1.4371547562106283e-05  1.1371215999285383e-05  1.3018734497926196e-05  1.1127817142793125e-05  1.1779843303274690e-05  1.3968131174700273e-05  1.1193797429036902e-05  7.6881972149069366e-06  8.2789637957059256e-06  7.4404041490980666e-06  1.1000277819287910e-05  9.1924141399319522e-06  9.7511753047218656e-08  9.1515196685953474e-06  5.8539700150454564e-06  1.1664382303554946e-06  6.4856236226829319e-06  2.4283571776951145e-06  3.7133879917825399e-06  2.7411868017564097e-06  5.0520756887471925e-07  -4.9787777009172749e-07  0.0000000000000000e+00  0.0000000000000000e+00  4.8393370275293270e-04  -5.0421760687761126e-04  -4.4026614679328134e-04  -3.2996293399264933e-04  -5.0770999017552899e-04  2.7082608733067107e-04  1.0015829502578275e-04  1.4889127393501221e-04  -5.0661923526381845e-04  -7.1507980637145683e-05  3.2919898206710217e-04  2.7100426405366975e-04  3.1772354579011222e-04  2.8563862615986469e-04  -1.0591313403616534e-03  1.0394211174155803e-03  -1.6062469656001306e-04  1.3637963447762872e-04  6.8028136808941011e-04  -8.2901910115738863e-04  1.3470026295579723e-03  -1.3155692056279109e-03  1.5749369774393377e-03  -1.2674085178892602e-03  1.2312330718116109e-03  -2.8714859483499651e-04  -2.7235649011058267e-04  1.5165731739820690e-03  -1.4554227563659014e-03  2.2003543670725027e-04  1.5481741960867476e-03  -3.7388298956636675e-04  -8.8527334533549263e-04  1.1706119415510310e-04  1.4442420800899734e-03  8.8874064564787377e-04  5.9668663691525223e-04  4.6674232959357978e-04  3.7008453044504977e-04  2.8749918948686834e-04  2.3437269840849456e-04  9.0315879005611102e-05  -1.0871646254163787e-03  -8.7014312306116204e-04  1.3459181809396096e-03  6.8798829819564065e-04  -1.2988488929529013e-03  1.0962858745190169e-03  -3.4199256824237340e-04  -2.5395450968799605e-04  7.1391966900856093e-04  4.6863388677897547e-05  -3.4349259009464972e-04  5.1719497249455611e-05  1.0884859244934369e-04  1.1348756086745901e-04  7.3315161103134304e-05  7.0087003747303203e-05  6.3876046024200411e-05  5.7990118180303724e-05  6.0647182732926274e-05  5.4663512945957887e-05  4.9358890589085447e-05  5.0683698207065449e-05  3.5106008862013159e-05  7.9405896755429099e-05  8.5897300019279366e-05  3.2854109123268968e-05  3.3519318148920764e-05  3.7231462846607147e-05  4.0789664314479571e-05  3.7424418715467775e-05  3.5197166081690225e-05  3.9006640983805407e-05  2.9183587924823925e-05  3.4535831320284523e-05  2.6905151132969455e-05  3.0312820711677201e-05  2.5685195456854805e-05  2.3076590482406695e-05  2.5840038804027801e-05  2.1926534359099852e-05  2.0909787647471652e-05  2.6402795667619284e-05  1.7582526404248911e-05  1.2882802342367153e-05  1.6659902520383668e-05  1.5369225670909261e-05  2.0411176495087383e-05  6.5034078469682274e-06  8.6219181183284991e-06  1.5609251619993686e-05  3.8051042581066281e-06  1.0843971725602897e-05  5.6862228577275599e-06  8.3456726154463676e-06  6.0936885254943322e-06  3.9572086440040924e-06  3.8177137784745300e-07  0.0000000000000000e+00  0.0000000000000000e+00  8.6824000180613683e-05  1.7079000642712636e-04  -3.1100404942269102e-04  1.6415693502161148e-04  -1.0475875440232193e-03  4.6513427929553892e-04  4.5189213844624347e-04  -4.1566842102406935e-04  6.5593634885015165e-04  -1.0062086251803721e-03  -2.1522678740233266e-04  8.1201727142894676e-04  7.0431408560384643e-04  -4.6579852898613269e-04  3.8742222350168689e-04  -5.2450960020788539e-04  1.0743016073823555e-04  1.2563729599668447e-03  -1.2000377696476119e-03  1.4007090756531834e-03  -7.4384744957050925e-04  8.0950605182580698e-04  -4.8969527016913669e-04  1.4045877769845588e-03  -1.5748332156550163e-03  2.3349238875420585e-03  -2.2420517916941921e-03  2.0518859876469822e-03  4.9162684360734175e-04  -2.0978303656153758e-03  2.1723625566938591e-03  1.7123997743183344e-03  -2.4519838855396694e-03  -4.1156643378370984e-04  9.4396741779390904e-04  1.8770812707912363e-03  1.0445948584169222e-03  8.1141558253131790e-04  6.5850821138794624e-04  5.7739581636490121e-04  4.7257708377483523e-04  1.0756097135056263e-04  -7.9761286404808030e-05  -1.8198793105196993e-03  -2.9006885161929943e-04  2.5629304390762629e-03  -1.5774076366070831e-03  8.9401788828908626e-04  -4.4790251370453922e-04  2.5834707117425467e-04  -3.8116354727143857e-05  1.0300054526037371e-03  -5.9173456323835722e-04  -1.4789221635465620e-04  1.4592049226981479e-04  2.0134313538513088e-04  1.5111492309042020e-04  1.1080161060742142e-04  1.0482023693078417e-04  9.6480900504897983e-05  9.0746853302943253e-05  8.6050257402500333e-05  9.0051550402907884e-05  6.9974803588869944e-05  7.6822289424149676e-05  6.5954500346295360e-05  1.5246711521592842e-04  8.7940337296932899e-05  4.4758896264140318e-05  5.4566484631744321e-05  5.7393759945246242e-05  6.1772702928520923e-05  6.1446744110755266e-05  5.2451251944790066e-05  5.3358017048069024e-05  4.8992641631881857e-05  4.5871734473449963e-05  4.4075761551794757e-05  4.4488169312093193e-05  3.4658435165481509e-05  3.5997628624869987e-05  3.4055813022071167e-05  3.4266621385698254e-05  3.6047146663254921e-05  3.1547665576048256e-05  1.9638517995659940e-05  1.9835560468959630e-05  2.0285176927633602e-05  2.7343355353017227e-05  2.4191999866073108e-05  -1.9986083364803219e-06  2.2554406494393445e-05  1.5712298394581872e-05  6.1678689780167727e-07  1.8823507737841672e-05  5.3935468306664404e-06  1.1326249277546304e-05  7.9253408668362146e-06  2.8396255723223603e-06  0.0000000000000000e+00  0.0000000000000000e+00  3.0135158304301843e-04  3.9193152590461243e-04  -3.5738066581355460e-04  -2.3904446480038405e-04  1.1757351431866743e-04  -9.5676489305444716e-04  9.1872327651528678e-04  5.2551566551165018e-04  7.8538493491782482e-06  -4.4488927892980890e-04  -3.8615786096140626e-04  2.7245096275824659e-04  6.6481282661802390e-04  8.4928050240390103e-04  3.1001442927405463e-05  -1.5074795733397463e-03  1.5365765045071622e-03  -6.0539176004205245e-04  8.6219984932207525e-04  3.3761003529411850e-04  -7.7589343753042687e-04  1.8522961292198976e-03  -1.9698497097480855e-03  2.3516418164978526e-03  -1.5710212929638773e-03  1.2900687886872029e-03  3.4645670995224888e-04  -1.4849752453926369e-03  3.2176069798347706e-03  -2.2221877800444462e-03  -4.9765431840962412e-04  3.2387768305677384e-03  -2.5477229126692737e-05  -2.5422386576797297e-03  -8.2040883947704239e-05  2.4498932301385205e-03  1.8960170317832148e-03  1.2628451597687799e-03  1.0410036415666446e-03  8.7365456993691902e-04  7.5277531628854572e-04  6.4862599221713073e-04  1.8733028154407032e-04  -1.6761293435242765e-03  -1.9722732377897012e-03  2.0264993718967354e-03  2.0589581056989913e-03  -2.8878399588801919e-03  2.3800803286930542e-03  -9.5263684129835084e-04  -2.1335495882559300e-04  1.1393857625283058e-03  4.4280755923513306e-04  -7.8142924344589185e-04  6.3116745094597102e-05  2.3713629254368084e-04  2.6357180933736361e-04  1.7667647046917400e-04  1.5586269937738233e-04  1.4092658303317221e-04  1.2815698031810857e-04  1.2922759839629496e-04  1.1635545016339683e-04  1.1186173887607200e-04  1.0374393957668116e-04  8.4362537292574950e-05  1.4819217498531623e-04  1.8527909469456973e-04  7.8038503349152182e-05  6.8502431591266119e-05  7.6296488388621729e-05  8.2026559823472766e-05  8.1406378029175196e-05  7.9143332059526967e-05  7.6366191900602200e-05  6.6247806143322687e-05  7.0919395786270528e-05  5.7322717167998901e-05  6.0252268799905394e-05  5.5173015280481702e-05  4.7395538981440143e-05  4.9487376707219748e-05  4.1528458468631968e-05  4.3455808766452284e-05  5.1302484209327295e-05  3.4350299467885001e-05  2.0742723732755277e-05  2.6751925532539967e-05  2.6227660907764386e-05  3.4573853916447937e-05  1.4357881514818668e-05  5.3778142714722541e-06  2.7748252257137582e-05  6.3404478391684299e-06  1.0523270830594277e-05  1.1458422934312153e-05  1.0594855267515667e-05  9.7714501964094961e-06  6.2125466587069683e-06  0.0000000000000000e+00  0.0000000000000000e+00  2.1160799120779913e-04  3.8966316735402197e-04  6.8694265545431936e-04  -5.2394544169814101e-04  1.6716730065883943e-04  -1.0636667265585906e-03  4.6233318436934411e-04  9.8098299287169245e-04  -1.8155193112808003e-04  9.8815288086995853e-04  -1.5047927243145693e-03  -2.6082916546234626e-04  1.2013157519349229e-03  1.0021851647935443e-03  -3.0732422000134124e-04  5.9513874780469170e-04  -1.3973216934436241e-03  8.5098143936900364e-04  1.2542148366280089e-03  -1.3038041084543182e-03  1.9885319867248147e-03  -1.4504370741473390e-03  1.7903813625849414e-03  -1.4009421270299125e-03  2.6076447462543952e-03  -2.6970852999102938e-03  3.5306630389026396e-03  -2.9096364068776307e-03  2.1910907167621515e-03  1.5518615903295321e-03  -3.5809088522028689e-03  2.7217222826578622e-03  3.2857932586572453e-03  -3.3297635131594228e-03  -1.4004260156996698e-03  1.1186696820081746e-03  3.2189257051991990e-03  1.9645774001233233e-03  1.5299891438938559e-03  1.2841583498128398e-03  1.1341927146179319e-03  9.5049190469778232e-04  4.3512247842218221e-04  2.3550986314148305e-06  -2.9216196070810095e-03  -1.0022884662100305e-03  4.0460061330164941e-03  -1.3610115335348921e-03  1.3874018054101827e-04  2.8898736762099678e-04  4.8410101050931246e-05  -2.0001365101237657e-04  1.7317650248788201e-03  -5.9944555328837366e-04  -4.3199943392447651e-04  2.1788867332587049e-04  3.3583954383337747e-04  2.8537417907601061e-04  2.0673118783953910e-04  1.9470006595679671e-04  1.7782669397351265e-04  1.6499079664690318e-04  1.5994970732528639e-04  1.5826442187224263e-04  1.3075622191732476e-04  1.3637277800911173e-04  1.1454935514302399e-04  2.4509957773553848e-04  1.6646802379048246e-04  8.4208686372021045e-05  9.4979742404857710e-05  9.8897483219121399e-05  1.0464287269057152e-04  1.0275141073391181e-04  9.6308112554528171e-05  9.2780460678134545e-05  8.3543020131838602e-05  8.4837008352812380e-05  7.2724283772222277e-05  7.5549502846074151e-05  6.1545043536660098e-05  6.0490330856798405e-05  5.8543156036491777e-05  5.2618975243466960e-05  5.7082715567112176e-05  5.4911617725807019e-05  3.3469842080798511e-05  2.7689754251499940e-05  2.8819794976396273e-05  3.9419807499358310e-05  3.3512605420664590e-05  -2.2957229675967227e-06  2.3070961227293238e-05  2.2175389916704776e-05  -2.8964627081766834e-06  1.9932884125188318e-05  3.9216419830772403e-06  1.1144376783238284e-05  6.5896798273731514e-06  0.0000000000000000e+00  0.0000000000000000e+00  2.8553644317038892e-04  4.6879155830162637e-04  3.3194835885582319e-04  2.9127931813093444e-04  -1.5025020609795863e-04  2.2173308242718959e-04  -1.3784810861386580e-03  1.3180698574400608e-03  9.4258289393471658e-04  -3.2204526672372068e-05  -1.1742430842352463e-04  -8.7961686738872937e-04  2.1945784183200628e-04  1.2402168825178311e-03  1.3070605083831434e-03  -1.8138936688948657e-04  -1.4284336444166496e-03  1.1805789904405831e-03  -3.7253930115121179e-04  1.4049115736317177e-03  -1.4187395068196307e-04  -1.7077491968456811e-04  1.5148236073682228e-03  -1.7164939148521699e-03  2.2409038830301601e-03  -1.0348980715846946e-03  6.9158057402788752e-04  1.3716274707211563e-03  -2.5107137057877819e-03  4.4444940422530138e-03  -2.2466556962516112e-03  -1.6942440953288253e-03  4.6075281042324808e-03  7.4293674175225448e-04  -4.0331145884798482e-03  -5.0447167836637267e-04  3.1224257565809835e-03  3.2433745411977466e-03  2.1742293397663554e-03  1.8103254061884080e-03  1.5524401844929181e-03  1.3677435449155288e-03  1.1465985607796254e-03  3.4251138477563240e-04  -1.9843520200117787e-03  -3.2269296610639995e-03  2.2677634967325656e-03  3.6088657474554779e-03  -3.6395311012531019e-03  2.7133512774567929e-03  -1.0035548592264402e-03  -1.0995834665186561e-04  1.2263424481405967e-03  1.0270977644629437e-03  -1.0498810263583221e-03  -2.1903697803642963e-05  3.6115930210673118e-04  4.1384167833804922e-04  2.9706089438200827e-04  2.4883434339793419e-04  2.2928876899173717e-04  2.1033366971408540e-04  2.0683514287477732e-04  1.9101022557500800e-04  1.8506800075263877e-04  1.6468266976276611e-04  1.4700594253421682e-04  2.1189202039121729e-04  2.8736767048015004e-04  1.3377215116806073e-04  1.0857938660296904e-04  1.1775063530797925e-04  1.2470690800954633e-04  1.2706095304179673e-04  1.1960490827907301e-04  1.1620131051380214e-04  1.0762543393321672e-04  1.0322697942855585e-04  9.4852279073516215e-05  8.7646176912645267e-05  8.6055378357344087e-05  7.1598816666647449e-05  7.2687655971806784e-05  6.3787919866449753e-05  6.3264670385331431e-05  7.2101808896044093e-05  5.3494147790430040e-05  2.9717072001704698e-05  3.4510645031843524e-05  3.4706181108144435e-05  4.6513945243958755e-05  2.0794910458912704e-05  -1.1511951200792179e-07  3.2148386673286602e-05  6.1102683100071458e-06  3.3842490595392931e-06  1.1728211235579257e-05  5.1292836043457245e-06  6.3236057177920031e-06  0.0000000000000000e+00  0.0000000000000000e+00  1.0216858671616253e-04  3.4906619320747290e-04  6.6069436981285143e-04  6.6192748313034008e-04  -4.1933628347641169e-04  3.0874625020343760e-04  -8.2136189347462995e-04  1.4299221380201533e-04  1.4961376830971169e-03  1.5586308279769769e-04  9.9110379728368624e-04  -1.5244705960275661e-03  -5.1897195390433748e-04  1.3358792911474576e-03  1.4620492088885995e-03  8.9034948242510989e-05  4.3703233790231958e-04  -1.6757072043909354e-03  1.1524781252556411e-03  1.1197141476024829e-03  -7.7557425826607759e-04  1.8040086785138976e-03  -1.2228212793924402e-03  2.0716662671522983e-03  -1.6100423517774627e-03  3.0618275542612307e-03  -2.8631685215830382e-03  3.7364153964138296e-03  -2.6617810278370142e-03  1.7619005679434410e-03  2.7406192066974011e-03  -4.3566244217424863e-03  2.6958961310116995e-03  4.9716482052533494e-03  -3.5949732117837585e-03  -2.8092616539440842e-03  1.2119408686115218e-03  4.3609486230779563e-03  3.2147011818163553e-03  2.4766476256916099e-03  2.1055755329064513e-03  1.8645607279721536e-03  1.5928359487462993e-03  8.8824435438932838e-04  3.0436422201369380e-05  -3.6797158517388922e-03  -1.9540949149165474e-03  4.9997033282161681e-03  -6.4974823092803463e-04  -6.9894464627380385e-04  1.1120379685929127e-03  -3.3855545328360188e-04  -6.4632559858232474e-05  2.1516071133674238e-03  -2.8785045765542222e-04  -7.8394112375682154e-04  2.5609792582796469e-04  4.8600939032629844e-04  4.4712264139984089e-04  3.2388699972558835e-04  2.9357122805187075e-04  2.6781730831028003e-04  2.4786875379039907e-04  2.4115940324041368e-04  2.3380188324952843e-04  2.0368605247473199e-04  1.9899425484618273e-04  1.7666494115504256e-04  3.2901378475139946e-04  2.6129032584664449e-04  1.2784044545987460e-04  1.4060010468887747e-04  1.4042761159436376e-04  1.4746622146078608e-04  1.4847936320757472e-04  1.3876381356926241e-04  1.2911449601451315e-04  1.2317914876318700e-04  1.1870218429003751e-04  1.0629000177037906e-04  1.0405343042982912e-04  9.1540466733368691e-05  8.2983409071913281e-05  8.1587815340869490e-05  7.1546353024801878e-05  7.8439734992000285e-05  7.6294557926525535e-05  4.8809816964567949e-05  3.3410314869987966e-05  3.5382037764840891e-05  4.9262346506995199e-05  4.1198206869339917e-05  2.4015032924060670e-06  1.7395956506315141e-05  2.8919445816565277e-05  -5.9793247622765058e-06  1.2332454652308643e-05  1.7169830672079128e-06  3.7770355566407781e-06  0.0000000000000000e+00  0.0000000000000000e+00  2.5283998129377924e-04  4.6673143836768581e-04  5.1194338261105216e-04  4.7109889367110563e-04  7.1623835137762048e-04  -2.5019959082777971e-04  1.3032853003902160e-04  -1.3248227775621135e-03  1.3836302485110610e-03  1.4360889873038314e-03  1.9805676172402224e-04  -6.5459403621369615e-05  -1.1809442186217994e-03  1.6363810865608849e-04  1.639