<?xml version="1.0"?>
<VTKFile type="UnstructuredGrid"  version="0.1"  >
<UnstructuredGrid>
<Piece  NumberOfPoints="10201" NumberOfCells="20000">
<Points>
<DataArray  type="Float64"  NumberOfComponents="3"  format="ascii">0 0 0  0.01 0 0  0.02 0 0  0.03 0 0  0.04 0 0  0.05 0 0  0.06 0 0  0.07000000000000001 0 0  0.08 0 0  0.09 0 0  0.1 0 0  0.11 0 0  0.12 0 0  0.13 0 0  0.14 0 0  0.15 0 0  0.16 0 0  0.17 0 0  0.18 0 0  0.19 0 0  0.2 0 0  0.21 0 0  0.22 0 0  0.23 0 0  0.24 0 0  0.25 0 0  0.26 0 0  0.27 0 0  0.28 0 0  0.29 0 0  0.3 0 0  0.31 0 0  0.32 0 0  0.33 0 0  0.34 0 0  0.35 0 0  0.36 0 0  0.37 0 0  0.38 0 0  0.39 0 0  0.4 0 0  0.41 0 0  0.42 0 0  0.43 0 0  0.44 0 0  0.45 0 0  0.46 0 0  0.47 0 0  0.48 0 0  0.49 0 0  0.5 0 0  0.51 0 0  0.52 0 0  0.53 0 0  0.54 0 0  0.55 0 0  0.5600000000000001 0 0  0.57 0 0  0.58 0 0  0.59 0 0  0.6 0 0  0.61 0 0  0.62 0 0  0.63 0 0  0.64 0 0  0.65 0 0  0.66 0 0  0.67 0 0  0.68 0 0  0.6899999999999999 0 0  0.7 0 0  0.71 0 0  0.72 0 0  0.73 0 0  0.74 0 0  0.75 0 0  0.76 0 0  0.77 0 0  0.78 0 0  0.79 0 0  0.8 0 0  0.8100000000000001 0 0  0.82 0 0  0.83 0 0  0.84 0 0  0.85 0 0  0.86 0 0  0.87 0 0  0.88 0 0  0.89 0 0  0.9 0 0  0.91 0 0  0.92 0 0  0.93 0 0  0.9399999999999999 0 0  0.95 0 0  0.96 0 0  0.97 0 0  0.98 0 0  0.99 0 0  1 0 0  0 0.01 0  0.01 0.01 0  0.02 0.01 0  0.03 0.01 0  0.04 0.01 0  0.05 0.01 0  0.06 0.01 0  0.07000000000000001 0.01 0  0.08 0.01 0  0.09 0.01 0  0.1 0.01 0  0.11 0.01 0  0.12 0.01 0  0.13 0.01 0  0.14 0.01 0  0.15 0.01 0  0.16 0.01 0  0.17 0.01 0  0.18 0.01 0  0.19 0.01 0  0.2 0.01 0  0.21 0.01 0  0.22 0.01 0  0.23 0.01 0  0.24 0.01 0  0.25 0.01 0  0.26 0.01 0  0.27 0.01 0  0.28 0.01 0  0.29 0.01 0  0.3 0.01 0  0.31 0.01 0  0.32 0.01 0  0.33 0.01 0  0.34 0.01 0  0.35 0.01 0  0.36 0.01 0  0.37 0.01 0  0.38 0.01 0  0.39 0.01 0  0.4 0.01 0  0.41 0.01 0  0.42 0.01 0  0.43 0.01 0  0.44 0.01 0  0.45 0.01 0  0.46 0.01 0  0.47 0.01 0  0.48 0.01 0  0.49 0.01 0  0.5 0.01 0  0.51 0.01 0  0.52 0.01 0  0.53 0.01 0  0.54 0.01 0  0.55 0.01 0  0.5600000000000001 0.01 0  0.57 0.01 0  0.58 0.01 0  0.59 0.01 0  0.6 0.01 0  0.61 0.01 0  0.62 0.01 0  0.63 0.01 0  0.64 0.01 0  0.65 0.01 0  0.66 0.01 0  0.67 0.01 0  0.68 0.01 0  0.6899999999999999 0.01 0  0.7 0.01 0  0.71 0.01 0  0.72 0.01 0  0.73 0.01 0  0.74 0.01 0  0.75 0.01 0  0.76 0.01 0  0.77 0.01 0  0.78 0.01 0  0.79 0.01 0  0.8 0.01 0  0.8100000000000001 0.01 0  0.82 0.01 0  0.83 0.01 0  0.84 0.01 0  0.85 0.01 0  0.86 0.01 0  0.87 0.01 0  0.88 0.01 0  0.89 0.01 0  0.9 0.01 0  0.91 0.01 0  0.92 0.01 0  0.93 0.01 0  0.9399999999999999 0.01 0  0.95 0.01 0  0.96 0.01 0  0.97 0.01 0  0.98 0.01 0  0.99 0.01 0  1 0.01 0  0 0.02 0  0.01 0.02 0  0.02 0.02 0  0.03 0.02 0  0.04 0.02 0  0.05 0.02 0  0.06 0.02 0  0.07000000000000001 0.02 0  0.08 0.02 0  0.09 0.02 0  0.1 0.02 0  0.11 0.02 0  0.12 0.02 0  0.13 0.02 0  0.14 0.02 0  0.15 0.02 0  0.16 0.02 0  0.17 0.02 0  0.18 0.02 0  0.19 0.02 0  0.2 0.02 0  0.21 0.02 0  0.22 0.02 0  0.23 0.02 0  0.24 0.02 0  0.25 0.02 0  0.26 0.02 0  0.27 0.02 0  0.28 0.02 0  0.29 0.02 0  0.3 0.02 0  0.31 0.02 0  0.32 0.02 0  0.33 0.02 0  0.34 0.02 0  0.35 0.02 0  0.36 0.02 0  0.37 0.02 0  0.38 0.02 0  0.39 0.02 0  0.4 0.02 0  0.41 0.02 0  0.42 0.02 0  0.43 0.02 0  0.44 0.02 0  0.45 0.02 0  0.46 0.02 0  0.47 0.02 0  0.48 0.02 0  0.49 0.02 0  0.5 0.02 0  0.51 0.02 0  0.52 0.02 0  0.53 0.02 0  0.54 0.02 0  0.55 0.02 0  0.5600000000000001 0.02 0  0.57 0.02 0  0.58 0.02 0  0.59 0.02 0  0.6 0.02 0  0.61 0.02 0  0.62 0.02 0  0.63 0.02 0  0.64 0.02 0  0.65 0.02 0  0.66 0.02 0  0.67 0.02 0  0.68 0.02 0  0.6899999999999999 0.02 0  0.7 0.02 0  0.71 0.02 0  0.72 0.02 0  0.73 0.02 0  0.74 0.02 0  0.75 0.02 0  0.76 0.02 0  0.77 0.02 0  0.78 0.02 0  0.79 0.02 0  0.8 0.02 0  0.8100000000000001 0.02 0  0.82 0.02 0  0.83 0.02 0  0.84 0.02 0  0.85 0.02 0  0.86 0.02 0  0.87 0.02 0  0.88 0.02 0  0.89 0.02 0  0.9 0.02 0  0.91 0.02 0  0.92 0.02 0  0.93 0.02 0  0.9399999999999999 0.02 0  0.95 0.02 0  0.96 0.02 0  0.97 0.02 0  0.98 0.02 0  0.99 0.02 0  1 0.02 0  0 0.03 0  0.01 0.03 0  0.02 0.03 0  0.03 0.03 0  0.04 0.03 0  0.05 0.03 0  0.06 0.03 0  0.07000000000000001 0.03 0  0.08 0.03 0  0.09 0.03 0  0.1 0.03 0  0.11 0.03 0  0.12 0.03 0  0.13 0.03 0  0.14 0.03 0  0.15 0.03 0  0.16 0.03 0  0.17 0.03 0  0.18 0.03 0  0.19 0.03 0  0.2 0.03 0  0.21 0.03 0  0.22 0.03 0  0.23 0.03 0  0.24 0.03 0  0.25 0.03 0  0.26 0.03 0  0.27 0.03 0  0.28 0.03 0  0.29 0.03 0  0.3 0.03 0  0.31 0.03 0  0.32 0.03 0  0.33 0.03 0  0.34 0.03 0  0.35 0.03 0  0.36 0.03 0  0.37 0.03 0  0.38 0.03 0  0.39 0.03 0  0.4 0.03 0  0.41 0.03 0  0.42 0.03 0  0.43 0.03 0  0.44 0.03 0  0.45 0.03 0  0.46 0.03 0  0.47 0.03 0  0.48 0.03 0  0.49 0.03 0  0.5 0.03 0  0.51 0.03 0  0.52 0.03 0  0.53 0.03 0  0.54 0.03 0  0.55 0.03 0  0.5600000000000001 0.03 0  0.57 0.03 0  0.58 0.03 0  0.59 0.03 0  0.6 0.03 0  0.61 0.03 0  0.62 0.03 0  0.63 0.03 0  0.64 0.03 0  0.65 0.03 0  0.66 0.03 0  0.67 0.03 0  0.68 0.03 0  0.6899999999999999 0.03 0  0.7 0.03 0  0.71 0.03 0  0.72 0.03 0  0.73 0.03 0  0.74 0.03 0  0.75 0.03 0  0.76 0.03 0  0.77 0.03 0  0.78 0.03 0  0.79 0.03 0  0.8 0.03 0  0.8100000000000001 0.03 0  0.82 0.03 0  0.83 0.03 0  0.84 0.03 0  0.85 0.03 0  0.86 0.03 0  0.87 0.03 0  0.88 0.03 0  0.89 0.03 0  0.9 0.03 0  0.91 0.03 0  0.92 0.03 0  0.93 0.03 0  0.9399999999999999 0.03 0  0.95 0.03 0  0.96 0.03 0  0.97 0.03 0  0.98 0.03 0  0.99 0.03 0  1 0.03 0  0 0.04 0  0.01 0.04 0  0.02 0.04 0  0.03 0.04 0  0.04 0.04 0  0.05 0.04 0  0.06 0.04 0  0.07000000000000001 0.04 0  0.08 0.04 0  0.09 0.04 0  0.1 0.04 0  0.11 0.04 0  0.12 0.04 0  0.13 0.04 0  0.14 0.04 0  0.15 0.04 0  0.16 0.04 0  0.17 0.04 0  0.18 0.04 0  0.19 0.04 0  0.2 0.04 0  0.21 0.04 0  0.22 0.04 0  0.23 0.04 0  0.24 0.04 0  0.25 0.04 0  0.26 0.04 0  0.27 0.04 0  0.28 0.04 0  0.29 0.04 0  0.3 0.04 0  0.31 0.04 0  0.32 0.04 0  0.33 0.04 0  0.34 0.04 0  0.35 0.04 0  0.36 0.04 0  0.37 0.04 0  0.38 0.04 0  0.39 0.04 0  0.4 0.04 0  0.41 0.04 0  0.42 0.04 0  0.43 0.04 0  0.44 0.04 0  0.45 0.04 0  0.46 0.04 0  0.47 0.04 0  0.48 0.04 0  0.49 0.04 0  0.5 0.04 0  0.51 0.04 0  0.52 0.04 0  0.53 0.04 0  0.54 0.04 0  0.55 0.04 0  0.5600000000000001 0.04 0  0.57 0.04 0  0.58 0.04 0  0.59 0.04 0  0.6 0.04 0  0.61 0.04 0  0.62 0.04 0  0.63 0.04 0  0.64 0.04 0  0.65 0.04 0  0.66 0.04 0  0.67 0.04 0  0.68 0.04 0  0.6899999999999999 0.04 0  0.7 0.04 0  0.71 0.04 0  0.72 0.04 0  0.73 0.04 0  0.74 0.04 0  0.75 0.04 0  0.76 0.04 0  0.77 0.04 0  0.78 0.04 0  0.79 0.04 0  0.8 0.04 0  0.8100000000000001 0.04 0  0.82 0.04 0  0.83 0.04 0  0.84 0.04 0  0.85 0.04 0  0.86 0.04 0  0.87 0.04 0  0.88 0.04 0  0.89 0.04 0  0.9 0.04 0  0.91 0.04 0  0.92 0.04 0  0.93 0.04 0  0.9399999999999999 0.04 0  0.95 0.04 0  0.96 0.04 0  0.97 0.04 0  0.98 0.04 0  0.99 0.04 0  1 0.04 0  0 0.05 0  0.01 0.05 0  0.02 0.05 0  0.03 0.05 0  0.04 0.05 0  0.05 0.05 0  0.06 0.05 0  0.07000000000000001 0.05 0  0.08 0.05 0  0.09 0.05 0  0.1 0.05 0  0.11 0.05 0  0.12 0.05 0  0.13 0.05 0  0.14 0.05 0  0.15 0.05 0  0.16 0.05 0  0.17 0.05 0  0.18 0.05 0  0.19 0.05 0  0.2 0.05 0  0.21 0.05 0  0.22 0.05 0  0.23 0.05 0  0.24 0.05 0  0.25 0.05 0  0.26 0.05 0  0.27 0.05 0  0.28 0.05 0  0.29 0.05 0  0.3 0.05 0  0.31 0.05 0  0.32 0.05 0  0.33 0.05 0  0.34 0.05 0  0.35 0.05 0  0.36 0.05 0  0.37 0.05 0  0.38 0.05 0  0.39 0.05 0  0.4 0.05 0  0.41 0.05 0  0.42 0.05 0  0.43 0.05 0  0.44 0.05 0  0.45 0.05 0  0.46 0.05 0  0.47 0.05 0  0.48 0.05 0  0.49 0.05 0  0.5 0.05 0  0.51 0.05 0  0.52 0.05 0  0.53 0.05 0  0.54 0.05 0  0.55 0.05 0  0.5600000000000001 0.05 0  0.57 0.05 0  0.58 0.05 0  0.59 0.05 0  0.6 0.05 0  0.61 0.05 0  0.62 0.05 0  0.63 0.05 0  0.64 0.05 0  0.65 0.05 0  0.66 0.05 0  0.67 0.05 0  0.68 0.05 0  0.6899999999999999 0.05 0  0.7 0.05 0  0.71 0.05 0  0.72 0.05 0  0.73 0.05 0  0.74 0.05 0  0.75 0.05 0  0.76 0.05 0  0.77 0.05 0  0.78 0.05 0  0.79 0.05 0  0.8 0.05 0  0.8100000000000001 0.05 0  0.82 0.05 0  0.83 0.05 0  0.84 0.05 0  0.85 0.05 0  0.86 0.05 0  0.87 0.05 0  0.88 0.05 0  0.89 0.05 0  0.9 0.05 0  0.91 0.05 0  0.92 0.05 0  0.93 0.05 0  0.9399999999999999 0.05 0  0.95 0.05 0  0.96 0.05 0  0.97 0.05 0  0.98 0.05 0  0.99 0.05 0  1 0.05 0  0 0.06 0  0.01 0.06 0  0.02 0.06 0  0.03 0.06 0  0.04 0.06 0  0.05 0.06 0  0.06 0.06 0  0.07000000000000001 0.06 0  0.08 0.06 0  0.09 0.06 0  0.1 0.06 0  0.11 0.06 0  0.12 0.06 0  0.13 0.06 0  0.14 0.06 0  0.15 0.06 0  0.16 0.06 0  0.17 0.06 0  0.18 0.06 0  0.19 0.06 0  0.2 0.06 0  0.21 0.06 0  0.22 0.06 0  0.23 0.06 0  0.24 0.06 0  0.25 0.06 0  0.26 0.06 0  0.27 0.06 0  0.28 0.06 0  0.29 0.06 0  0.3 0.06 0  0.31 0.06 0  0.32 0.06 0  0.33 0.06 0  0.34 0.06 0  0.35 0.06 0  0.36 0.06 0  0.37 0.06 0  0.38 0.06 0  0.39 0.06 0  0.4 0.06 0  0.41 0.06 0  0.42 0.06 0  0.43 0.06 0  0.44 0.06 0  0.45 0.06 0  0.46 0.06 0  0.47 0.06 0  0.48 0.06 0  0.49 0.06 0  0.5 0.06 0  0.51 0.06 0  0.52 0.06 0  0.53 0.06 0  0.54 0.06 0  0.55 0.06 0  0.5600000000000001 0.06 0  0.57 0.06 0  0.58 0.06 0  0.59 0.06 0  0.6 0.06 0  0.61 0.06 0  0.62 0.06 0  0.63 0.06 0  0.64 0.06 0  0.65 0.06 0  0.66 0.06 0  0.67 0.06 0  0.68 0.06 0  0.6899999999999999 0.06 0  0.7 0.06 0  0.71 0.06 0  0.72 0.06 0  0.73 0.06 0  0.74 0.06 0  0.75 0.06 0  0.76 0.06 0  0.77 0.06 0  0.78 0.06 0  0.79 0.06 0  0.8 0.06 0  0.8100000000000001 0.06 0  0.82 0.06 0  0.83 0.06 0  0.84 0.06 0  0.85 0.06 0  0.86 0.06 0  0.87 0.06 0  0.88 0.06 0  0.89 0.06 0  0.9 0.06 0  0.91 0.06 0  0.92 0.06 0  0.93 0.06 0  0.9399999999999999 0.06 0  0.95 0.06 0  0.96 0.06 0  0.97 0.06 0  0.98 0.06 0  0.99 0.06 0  1 0.06 0  0 0.07000000000000001 0  0.01 0.07000000000000001 0  0.02 0.07000000000000001 0  0.03 0.07000000000000001 0  0.04 0.07000000000000001 0  0.05 0.07000000000000001 0  0.06 0.07000000000000001 0  0.07000000000000001 0.07000000000000001 0  0.08 0.07000000000000001 0  0.09 0.07000000000000001 0  0.1 0.07000000000000001 0  0.11 0.07000000000000001 0  0.12 0.07000000000000001 0  0.13 0.07000000000000001 0  0.14 0.07000000000000001 0  0.15 0.07000000000000001 0  0.16 0.07000000000000001 0  0.17 0.0700
[...]
<PointData  Scalars="Indicator Function"> 
<DataArray  type="Float64"  Name="Indicator Function"  format="ascii">-1.2037062152420224e-35  -6.6949271444039647e-20  1.8039159410223220e-20  3.3156166593590452e-19  3.4463460957247177e-19  -3.5739333196089887e-20  -3.1285993277179059e-20  6.5312367192765511e-19  9.3437079253164009e-19  -1.0532429383367696e-35  5.0057512953291450e-18  2.9281853424650385e-18  -4.2235497329207990e-20  -3.6460515477621197e-20  7.6531153169434425e-18  -9.0329881559749336e-21  -6.4442255873857171e-21  2.1722061644328295e-18  -3.5791199301589112e-20  -4.5138983071575840e-35  5.5729218531369578e-18  0.0000000000000000e+00  -3.8859967543633905e-20  1.3244898188593615e-17  -5.2789077137547437e-20  -2.6394538568773719e-20  -1.9836382764174626e-20  -4.6200811841284015e-20  4.1428027000021832e-17  -1.7635276832949820e-20  -8.4815410109233059e-20  -3.0341682585059665e-20  -4.9814817547986608e-20  -1.5412220951046622e-20  2.4669387539982064e-17  -9.8321058400533877e-20  -1.3066017980596446e-19  -1.4808659799603968e-19  -1.5318125726947615e-19  -1.4900836619016980e-19  8.7088217160224026e-18  -8.8234053201068474e-20  -2.5678763119124252e-20  -3.4143497702547273e-20  -1.9736154642509060e-20  -2.2915909987436299e-20  3.0049078830383234e-17  -1.4703645655914022e-20  -8.3908418168070280e-21  -1.3092356537439464e-21  -2.2682318353860307e-20  -1.1341159176930161e-20  -8.2265695827179226e-21  -9.1506513935355811e-21  -8.5226570628609633e-21  -4.9609150248470956e-21  2.3947043280497977e-19  -1.1072862041031384e-21  -3.8370473869966533e-22  -3.0394411958013023e-22  -4.1124739832770319e-22  -6.6640104012591130e-22  -4.3006013279811102e-22  -1.4555738400593590e-21  -2.1527266238932067e-21  -8.1023098541219303e-22  -2.4125721373382005e-21  -2.8119654104363414e-21  3.0458832249356290e-18  1.8807909613156600e-37  -8.0171589583304365e-23  -3.1075031430537474e-22  -4.8550746263400743e-22  -5.9347160871042403e-22  -5.2401891331646324e-22  -6.6142777358748900e-22  -6.3835462543516233e-22  -5.5139742703656806e-22  -5.9994456139368569e-22  -5.9885728956382049e-22  -6.7383986542953624e-22  -1.6019541245229503e-20  -3.5281962815806429e-22  -2.0938496084183360e-22  0.0000000000000000e+00  -8.0165652328938371e-23  -2.2683374152856239e-22  -1.6858648282235146e-22  -7.5900653551996640e-23  -1.1754943508222875e-38  -7.2028694550984204e-23  -8.5603593409054615e-23  -2.5775170753579917e-22  8.9293898771161835e-19  -1.0334371745584916e-22  -1.3957700779068730e-22  -5.1074791972724568e-23  -1.0036819103343837e-22  -3.7856709674785075e-23  -6.4145704316882438e-23  9.4039548065783001e-38  -3.6246872095974011e-20  5.7173990457545592e-04  2.3677419125393091e-04  1.5942460733723101e-04  3.5476486839989852e-04  2.8519375700387288e-04  5.0122571215558505e-04  3.1298549458228593e-04  7.0598923949012431e-04  5.3815107162381269e-05  3.1797617530722888e-05  4.4108321646263492e-04  7.6064068576307874e-04  3.8052673725297526e-04  4.6655088704851492e-04  2.8109881913052282e-04  2.2174438807901715e-05  7.8704330599365876e-04  1.3351436464282442e-04  6.4475692735111942e-04  2.1806346404491418e-04  3.1883277690855069e-04  2.5433765738089851e-04  5.7287011270611187e-04  2.1255551832963379e-04  9.5096347250356393e-04  7.1468100820092258e-04  9.4716686051234090e-04  3.5869640571431168e-04  6.3537780938758680e-04  8.6944854876384512e-04  1.0931743230709484e-03  6.8420038945972818e-04  5.5528378025670273e-04  2.0486638444913348e-05  8.7186724535421114e-04  1.3352611052241628e-03  1.6861339957331327e-03  1.8246239923475486e-03  1.8471562164620529e-03  1.7607179815655142e-03  1.4091085239942742e-03  8.8492913447374476e-04  4.6258747205849270e-04  3.8378083809202288e-04  8.2563266944222862e-04  6.0078309273343771e-04  5.2975466477569739e-04  2.8583941439529545e-04  8.2362611203398404e-06  1.9466962249195719e-05  4.0860832194537691e-04  1.1106274474758865e-04  9.2665330455269236e-05  1.1851081559686197e-04  9.4275132891597643e-05  6.9271947416244233e-05  4.6027133985804526e-05  2.5085643845402629e-05  1.5095709421924514e-05  1.1193627637960963e-05  7.6609981834576797e-06  8.1743148122326196e-06  1.4088864138040942e-05  1.9176855145785811e-05  2.9191647711891055e-05  4.0599303750734636e-06  4.1431070727346306e-05  2.9940330134806531e-05  1.4488859484830936e-05  5.9347285329066834e-06  1.4442429638922787e-06  4.8758585168976644e-06  6.3081956527676117e-06  7.5369362369891324e-06  7.5342791401832735e-06  8.1480839285528102e-06  7.4255326486837116e-06  8.8877273035122356e-06  9.9008132961397580e-06  9.9206650208755156e-06  7.1853093729869011e-06  8.4331323287857316e-06  5.5281954871049729e-06  2.1599882352949274e-06  5.3744455366516019e-06  1.1018330017632740e-07  6.0739681697475555e-06  2.7346092404315892e-06  1.1967407867784495e-07  2.5951072155183663e-06  3.3556120007803559e-07  1.3743166454753562e-06  4.6432419760492038e-06  1.0264197060763223e-06  1.3484650566628155e-06  1.8401633127711037e-06  8.8828176454698905e-07  1.3639317086786801e-06  2.3110925604714364e-06  6.4145704316881791e-23  -1.2789433156360474e-20  6.5296559865909824e-04  1.6826977743229942e-04  9.5245081313508349e-05  9.7824914707349050e-06  3.3813474583822861e-04  5.4591086211549535e-04  6.5988862228600882e-04  7.8384419710354173e-04  7.3464487386819732e-05  1.7920946253642959e-04  4.9239268876172411e-04  6.7656236366262195e-04  1.0037334601731319e-03  9.6007822081919545e-04  6.4074476765291395e-04  1.2487572896722986e-03  8.4552407809795183e-05  4.9135629311817218e-04  1.0098018506646510e-03  4.8251865015578737e-04  1.6503240101560077e-03  1.0752963845637494e-03  1.7818174914328608e-03  1.0275016353674185e-03  1.3012352397078456e-03  4.3148082257995379e-05  3.2598079371937426e-04  1.7620825425253949e-03  1.2841138240526852e-03  3.6128089941768446e-05  1.7641561368070596e-03  1.1400381034071949e-04  1.1894955312376709e-03  6.7957880285197481e-04  1.1947994545053148e-03  1.6505860715123335e-03  2.1979281283939387e-03  2.5311525550706909e-03  2.6257069336724508e-03  2.5540898313469122e-03  2.3507824662501058e-03  1.7740026113042906e-03  2.3508972499038011e-04  1.0979610811295798e-03  9.5519980924858253e-04  9.1773358510315972e-04  1.2972380939971558e-03  1.1100342748100471e-03  3.9119246128794822e-04  3.6855317964693549e-04  6.7109476316779481e-04  2.0446221507173411e-04  2.8809583211787714e-04  1.1782780818955718e-04  1.2641369293623324e-04  9.5090551395023119e-05  7.8819566542896261e-05  4.8621279236684422e-05  2.8108377121175941e-05  1.8031636227980375e-05  1.2492077753211638e-05  1.3216020270589117e-05  1.1362453044667335e-05  2.6628960794370001e-05  2.9634701719726852e-05  2.8192338377037711e-05  5.0898677585869899e-05  5.3088533523184979e-05  2.0047588583790576e-05  1.1513310364320068e-05  2.8290197981493213e-06  4.7670074744983112e-06  8.0039524488818242e-06  8.9844094889910205e-06  7.9058509465589762e-06  1.2464366993361014e-05  1.3124808459189578e-05  1.1232097601862514e-05  1.1616213686067288e-05  1.2065185593389776e-05  1.3805364415249603e-05  1.3326866380305747e-05  7.3140983084025365e-06  8.0641763621073363e-06  6.5752908024742752e-07  7.4337410962853379e-06  7.9378774641553910e-06  3.8001705182241063e-06  7.8240857149167758e-06  8.3560493491782347e-06  3.2719949020894112e-06  4.8632973146561370e-06  1.1918806239433951e-05  6.6289828135887461e-06  8.2251659445479403e-06  2.1895883609362347e-06  1.6295757418131220e-06  5.3814133676303574e-06  3.0450835891585781e-06  7.6066243033321589e-22  -2.4225449284208514e-20  2.3039394558906046e-04  4.5502303534083354e-04  7.5345561967144048e-05  5.3925319878596497e-04  7.4907772454754545e-04  6.6622042195428252e-04  8.8092749634049799e-04  2.2455241605009866e-04  1.3452177011606325e-03  5.1171665705944847e-04  8.2445310127159214e-06  1.0663380698436784e-03  1.2745197860653576e-03  2.7915382673221749e-04  1.0271999973810422e-03  1.8682707873626214e-04  3.2396598392721852e-04  1.5747136296832582e-03  8.4166601774701341e-04  1.7818227489546229e-03  4.3571977399599148e-04  1.1481554384133335e-03  3.1319568927697675e-04  1.6883889984359020e-03  1.4540382704541477e-03  2.5120874940695319e-03  2.1309429493021757e-03  2.0486824520598427e-03  7.8444457302272814e-04  2.1863214048055244e-03  2.0068272676619682e-03  2.1596445898474145e-03  2.2741367442807238e-03  1.0201492280172699e-03  2.8409502124719497e-04  2.0292331030843836e-03  2.2754684812566419e-03  2.7855175913063216e-03  3.0029237822923912e-03  3.0398901533592090e-03  2.8547911236492291e-03  2.1780089373013571e-03  1.4214766923801021e-03  1.4154685003158615e-03  7.5877642541914117e-04  2.3982542626080979e-03  1.3791812500309403e-03  8.0724706816851692e-04  4.4417112784992638e-04  1.1247754717192352e-04  1.7131624345273280e-04  1.0387410664259521e-03  4.7400837232542493e-04  2.1805581060539014e-04  1.0825422617519962e-04  8.3600101114146054e-05  8.1970912421183465e-05  7.0166358230932947e-05  3.8395969876762921e-05  2.6075628722007650e-05  2.0663933015129659e-05  1.2218778700978653e-05  1.5364797463315971e-05  2.2799022938219297e-05  2.9684648400911622e-05  4.3793977517697984e-05  1.9895298050346019e-05  8.2782823883453344e-05  3.0207537582886800e-05  5.7036424280506459e-06  7.4449766060413876e-06  1.5661436063409152e-07  6.1466105060738134e-06  8.8589957947740323e-06  1.1810034583571001e-05  8.9512634600277549e-06  1.2219508367127302e-05  1.2697512251804080e-05  1.5617973142133268e-05  1.5380406381660157e-05  1.3576712738965627e-05  1.0014134234566741e-05  1.5916464634172457e-05  7.5156403729267142e-06  5.3445295087376998e-06  8.3148470060133112e-06  3.4775414407738098e-07  1.5515410867736873e-05  5.2864662125702098e-06  8.4588833819340575e-07  1.2185502845623895e-05  9.3767993957192184e-07  3.4418622648203175e-06  1.8382815217560230e-05  4.0592552006311729e-06  5.3941699356305642e-06  1.0833384363809448e-06  4.8929585922907366e-06  6.6325205742765917e-06  -9.2044713160774193e-22  -1.8762383043861817e-20  4.3640689747697812e-04  6.1538574832253662e-04  3.7396709353970032e-06  1.5448780222575864e-04  4.9137392115170041e-04  6.9789369129455794e-04  1.1743101951160338e-03  1.0644962184742030e-03  6.8174734415025388e-04  2.1512391337072910e-04  1.7182135268905858e-05  4.8162379463371661e-04  1.0265237098688624e-03  1.5137319641185447e-03  7.8044891173408070e-04  9.8953334453973757e-04  1.8101750886302180e-03  3.5500811599284399e-04  1.1906667822199444e-03  7.0040192452912775e-04  4.2811617474663159e-04  2.1734204723119935e-03  1.7122817481715702e-03  2.5566643446477953e-03  1.3519019077642086e-03  1.3799435759824724e-03  5.2035722316724439e-04  1.4974091220710457e-03  3.3513727384187433e-03  2.0374538385329734e-03  7.1442311719223666e-04  3.2714858731850527e-03  3.8699129286254991e-04  2.6953796436252528e-03  8.6189036891491059e-04  2.0483543172239217e-03  2.4581810245462694e-03  2.8456798112815531e-03  3.2327394062602087e-03  3.3310219234778103e-03  3.2451761895888206e-03  2.9837251459380494e-03  2.0767605017133297e-03  5.5575596651861298e-04  2.0316449003541324e-03  1.5410169170025935e-03  2.1011909467424047e-03  2.8836782720392420e-03  2.2910651193106825e-03  1.0395517726973003e-03  3.8897178030134426e-04  9.8918279070548103e-04  4.6062662956998317e-04  7.3082332954923059e-04  1.3361327998538769e-04  8.2112307157535547e-05  5.5037076744534842e-05  7.4583127873489833e-05  5.3637161048736340e-05  3.0185747331635872e-05  2.1935417178305324e-05  1.7498841809510511e-05  1.6317082526242713e-05  1.2702055430525959e-05  3.5897562076112805e-05  3.4114567831804118e-05  3.9465239285565167e-05  8.5422033124997994e-05  7.2714990286269852e-05  2.8769076554466132e-06  1.3580955905701365e-06  2.3108268349970854e-06  3.5815198409023437e-06  7.6317802707634403e-06  9.0882862625537175e-06  9.9579146916013087e-06  1.3873698643934974e-05  1.3772383366069495e-05  1.0893454018908329e-05  1.5745941369970700e-05  1.6039233565837796e-05  1.6472681061407511e-05  1.2134516929738572e-05  9.0727654289575438e-06  9.1370536873564361e-06  7.9013429631386461e-08  1.4650867834884594e-05  7.5616088572483094e-06  8.2161842893497436e-06  1.3118815754213386e-05  1.6143152947383617e-05  1.0049840655591239e-05  4.9728150168510660e-06  1.6940337572899796e-05  1.2969473918174028e-06  1.4813723487461774e-05  7.8964123174305604e-07  3.0369156542314182e-06  3.4681616708053680e-06  7.0142278794883839e-22  -2.3268692458176828e-20  3.3799304513967393e-04  5.9045560467014169e-04  9.6037691383457624e-04  1.3402373467533583e-04  5.6321632167121479e-04  7.2382764082534864e-04  6.8720002657108735e-04  1.3300219011177575e-03  4.0732265987568377e-04  1.6872296046669781e-03  9.1692128726499121e-04  2.0661149158644811e-05  1.4151584579602126e-03  1.4834792457180624e-03  3.8887528602060581e-04  1.2738213991201025e-03  9.6756522449815204e-04  1.0388606157520647e-03  1.5466137336146986e-03  9.8685171798105673e-04  2.3451517598854056e-03  1.1304042693359028e-03  2.0836713239434277e-03  1.1933646929480125e-03  2.8120696368151505e-03  2.5462481470463405e-03  3.6465958442393905e-03  2.8360559127553141e-03  2.1824613959374002e-03  1.7071646562262829e-03  3.6274637886033459e-03  2.5159361230640801e-03  3.5412347381818849e-03  3.1365178591839303e-03  1.8552578949782451e-03  3.8261652777570959e-04  3.0964790268385614e-03  2.9201470162357238e-03  3.3813409535019029e-03  3.6085812474870994e-03  3.6319629564395299e-03  3.3971150104123468e-03  2.5997838006505580e-03  1.6637281486025944e-03  2.2872256215114811e-03  1.3846242238454438e-03  3.7146301302485390e-03  1.3377637980175117e-03  4.8475637709437861e-05  1.8116830110624085e-04  1.6067262269662093e-04  3.9954860948312131e-04  1.5824193934223512e-03  5.8622389763884908e-04  4.9324320454912360e-04  8.4539468039320474e-05  4.2880552459435847e-05  5.5870881965700463e-05  7.0479439752231822e-05  3.7745168234359486e-05  2.6030510582367282e-05  2.1883601416008998e-05  1.2299564489427678e-05  1.7794584821007467e-05  2.1672518621423993e-05  3.5627293530107673e-05  5.1008966691460228e-05  1.9631459689392199e-05  1.1730804930707869e-04  3.0442598904656999e-05  1.0920299402756475e-05  2.4939067330228027e-06  3.0296595140307714e-07  5.9339535103513759e-06  8.6189522496246824e-06  1.1109195712460849e-05  8.6386373967007066e-06  1.4418637569303486e-05  1.4345299247544168e-05  1.4110478945636511e-05  1.6150214665438335e-05  1.4688287333829124e-05  1.2986779527393792e-05  1.6204812882809763e-05  6.1182316625563702e-06  4.8079348498723345e-06  6.1121571685506393e-06  4.0937209232139369e-06  2.0947930174605341e-05  5.3558552781495018e-06  3.5166290810023072e-06  2.1850923852424333e-05  2.7986593798027214e-06  4.5889000522842693e-06  2.9356115634930930e-05  7.1056300197775042e-06  1.5684539500278999e-05  5.4127300924676513e-06  1.7697377186172943e-06  3.7615819226313200e-37  -1.2832681452436885e-20  4.1917149873617554e-04  6.5296913530967383e-04  5.6284346846206270e-04  6.0542659525779862e-04  2.4761986219057927e-04  6.0339187234583727e-04  1.0761207618925565e-03  1.5355454162620935e-03  1.3828780225348229e-03  6.0448259479347233e-04  5.4014925132201633e-04  4.1575836003857628e-04  4.5038205947264581e-04  1.5036739697930231e-03  1.8706332528868859e-03  5.5319990291183101e-04  8.8619433295101721e-04  1.5147870904089948e-03  1.8587486261387268e-04  1.6721768746129110e-03  2.0337485464241243e-04  1.0844633361004456e-04  1.8416855257171899e-03  1.5273155878062694e-03  2.4629012611623808e-03  9.2854588139178803e-04  8.1197641671088255e-04  1.4190650211489599e-03  2.5027634801296846e-03  4.5069724450027583e-03  2.1725773586930698e-03  1.8446056721881821e-03  4.5194639857165817e-03  9.7241885070772449e-04  4.1073120498024340e-03  1.2052009875316791e-03  2.5451096649366594e-03  3.4481162387379272e-03  3.4843412204466190e-03  3.8649660105986045e-03  3.9575713430959119e-03  3.8579099986146073e-03  3.5121498556121840e-03  2.3028180772796630e-03  7.0452906740793705e-04  3.1247745154897805e-03  1.7889095850897943e-03  3.4077893187923363e-03  3.7068652822567186e-03  2.5554495069083404e-03  1.1815068827511262e-03  3.8165962509602921e-04  9.7867130979027977e-04  8.6253747663765656e-04  1.0570321655096308e-03  2.2358016798574958e-04  2.8987093252513732e-05  1.2117549658102685e-05  6.3814610037081582e-05  6.0829489101379328e-05  3.1557411309271286e-05  2.3444490469306077e-05  1.9634151814149148e-05  1.4765624686554922e-05  1.3114560254710594e-05  3.8464257886093837e-05  3.6770823177309204e-05  4.8610482590193004e-05  1.0505501896896083e-04  9.5077661810035008e-05  1.0332413820601679e-05  1.0520506194370314e-05  1.4630547938379735e-06  1.5273200384073695e-06  6.9739169827400538e-06  8.5769777383224804e-06  1.0153909167704630e-05  1.2072236833760774e-05  1.4278916007906678e-05  1.1985444546070758e-05  1.6520227488857007e-05  1.6333616370573211e-05  1.5254011960814336e-05  1.2853965401337314e-05  1.0833572349508345e-05  6.8012681765202470e-06  6.2864132892163103e-07  1.3167442820613426e-05  4.8507100726366428e-06  1.2594394751287593e-05  1.6689940040121359e-05  1.5893282215379872e-05  1.8902322210859451e-05  5.9056520166927709e-06  1.4914750870356060e-05  8.7954028447110023e-06  1.1417250570766980e-05  6.6447033414019572e-06  6.0989835713515790e-06  1.0579449157400588e-37  -2.0942820931005335e-20  2.3117303762943621e-04  5.3221738935717040e-04  8.7456812652185424e-04  9.1090362829118440e-04  6.4968306376041716e-05  7.0808695473919864e-04  4.7575346936611188e-04  3.9963479435962740e-04  1.7630351214735652e-03  6.4681490578035947e-04  1.6686204013192892e-03  9.1292716605269916e-04  1.7581982949654490e-04  1.5303948703372832e-03  1.8293960881800009e-03  6.7848536960696932e-04  1.1200803820213114e-03  1.1991587058486888e-03  1.3408320407421639e-03  1.3613467130559824e-03  5.5344171556095001e-04  2.1349993730925229e-03  9.5108056749504551e-04  2.3356515334251923e-03  1.4304125654474454e-03  3.2124127078006761e-03  2.7670949434521908e-03  3.8430913127194587e-03  2.7252557569593405e-03  1.7798822937972528e-03  2.7254507779694214e-03  4.4629513036152854e-03  2.5260718003145550e-03  5.0592090923251530e-03  3.5291208372039431e-03  3.1501522925536192e-03  4.5871761326066331e-04  3.9765328718999581e-03  3.8033934970972136e-03  4.0937727727064629e-03  4.3131161054487778e-03  4.3177642364372491e-03  4.0379752374095851e-03  3.0764935865471893e-03  1.7683805687267529e-03  2.8776926108960259e-03  2.2122682957361767e-03  4.5805980300549064e-03  8.9468819075263389e-04  8.1243088818985386e-04  8.5371369225669595e-04  6.1324558587329920e-04  3.6153323054015401e-04  1.8595391859059093e-03  4.3930276189326661e-04  8.7085877955767662e-04  8.1943518870164538e-05  1.4512625379861711e-05  1.2538791312507845e-05  6.4069784602525717e-05  4.2578030892000741e-05  2.9651956979003909e-05  2.5275969649751390e-05  1.4966325227254839e-05  1.8781443726204209e-05  1.9887410914074419e-05  4.1788512828759690e-05  5.4690904543153981e-05  1.4385487029479680e-05  1.4856676086557236e-04  3.7947464850938179e-05  2.7661803926198806e-05  4.7209268368078716e-06  2.5671744746937244e-07  3.2392142790465869e-06  7.1051179962088118e-06  8.6971973198387452e-06  9.5946364097182745e-06  1.3507537477272680e-05  1.3561915462373428e-05  1.2342008584855818e-05  1.7305640617744095e-05  1.5166407022037868e-05  1.2607118637193773e-05  1.4127015236688830e-05  7.8076169667789623e-06  2.1572781943568189e-06  6.1409895723547417e-06  7.9927105897837637e-06  1.7754451412069796e-05  5.5860663790710380e-06  1.1547645531338658e-05  2.2920257889610777e-05  5.2141641489947783e-06  5.7414280671830735e-06  2.9643487594766623e-05  4.1158066788363954e-06  1.6003918791590406e-05  5.3850453083757723e-06  -7.4732516125105676e-22  -1.4963807926173873e-20  3.7727232216385208e-04  6.4720701330385250e-04  7.1092784663142532e-04  6.9692787341633141e-04  9.8387398144694185e-04  1.2770204506667139e-04  5.0917819027561254e-04  1.0036994035964432e-03  1.5953633502196686e-03  1.7687508143973264e-03  7.6013186277329870e-04  5.6528911665464456e-04  6.5151329488097667e-04  4.2287266887583967e-04  1.8324786292673921e-03  2.1431855223798756e-03