<?xml version="1.0"?>
<VTKFile type="UnstructuredGrid"  version="0.1"  >
<UnstructuredGrid>
<Piece  NumberOfPoints="10201" NumberOfCells="20000">
<Points>
<DataArray  type="Float64"  NumberOfComponents="3"  format="ascii">0 0 0  0.01 0 0  0.02 0 0  0.03 0 0  0.04 0 0  0.05 0 0  0.06 0 0  0.07000000000000001 0 0  0.08 0 0  0.09 0 0  0.1 0 0  0.11 0 0  0.12 0 0  0.13 0 0  0.14 0 0  0.15 0 0  0.16 0 0  0.17 0 0  0.18 0 0  0.19 0 0  0.2 0 0  0.21 0 0  0.22 0 0  0.23 0 0  0.24 0 0  0.25 0 0  0.26 0 0  0.27 0 0  0.28 0 0  0.29 0 0  0.3 0 0  0.31 0 0  0.32 0 0  0.33 0 0  0.34 0 0  0.35 0 0  0.36 0 0  0.37 0 0  0.38 0 0  0.39 0 0  0.4 0 0  0.41 0 0  0.42 0 0  0.43 0 0  0.44 0 0  0.45 0 0  0.46 0 0  0.47 0 0  0.48 0 0  0.49 0 0  0.5 0 0  0.51 0 0  0.52 0 0  0.53 0 0  0.54 0 0  0.55 0 0  0.5600000000000001 0 0  0.57 0 0  0.58 0 0  0.59 0 0  0.6 0 0  0.61 0 0  0.62 0 0  0.63 0 0  0.64 0 0  0.65 0 0  0.66 0 0  0.67 0 0  0.68 0 0  0.6899999999999999 0 0  0.7 0 0  0.71 0 0  0.72 0 0  0.73 0 0  0.74 0 0  0.75 0 0  0.76 0 0  0.77 0 0  0.78 0 0  0.79 0 0  0.8 0 0  0.8100000000000001 0 0  0.82 0 0  0.83 0 0  0.84 0 0  0.85 0 0  0.86 0 0  0.87 0 0  0.88 0 0  0.89 0 0  0.9 0 0  0.91 0 0  0.92 0 0  0.93 0 0  0.9399999999999999 0 0  0.95 0 0  0.96 0 0  0.97 0 0  0.98 0 0  0.99 0 0  1 0 0  0 0.01 0  0.01 0.01 0  0.02 0.01 0  0.03 0.01 0  0.04 0.01 0  0.05 0.01 0  0.06 0.01 0  0.07000000000000001 0.01 0  0.08 0.01 0  0.09 0.01 0  0.1 0.01 0  0.11 0.01 0  0.12 0.01 0  0.13 0.01 0  0.14 0.01 0  0.15 0.01 0  0.16 0.01 0  0.17 0.01 0  0.18 0.01 0  0.19 0.01 0  0.2 0.01 0  0.21 0.01 0  0.22 0.01 0  0.23 0.01 0  0.24 0.01 0  0.25 0.01 0  0.26 0.01 0  0.27 0.01 0  0.28 0.01 0  0.29 0.01 0  0.3 0.01 0  0.31 0.01 0  0.32 0.01 0  0.33 0.01 0  0.34 0.01 0  0.35 0.01 0  0.36 0.01 0  0.37 0.01 0  0.38 0.01 0  0.39 0.01 0  0.4 0.01 0  0.41 0.01 0  0.42 0.01 0  0.43 0.01 0  0.44 0.01 0  0.45 0.01 0  0.46 0.01 0  0.47 0.01 0  0.48 0.01 0  0.49 0.01 0  0.5 0.01 0  0.51 0.01 0  0.52 0.01 0  0.53 0.01 0  0.54 0.01 0  0.55 0.01 0  0.5600000000000001 0.01 0  0.57 0.01 0  0.58 0.01 0  0.59 0.01 0  0.6 0.01 0  0.61 0.01 0  0.62 0.01 0  0.63 0.01 0  0.64 0.01 0  0.65 0.01 0  0.66 0.01 0  0.67 0.01 0  0.68 0.01 0  0.6899999999999999 0.01 0  0.7 0.01 0  0.71 0.01 0  0.72 0.01 0  0.73 0.01 0  0.74 0.01 0  0.75 0.01 0  0.76 0.01 0  0.77 0.01 0  0.78 0.01 0  0.79 0.01 0  0.8 0.01 0  0.8100000000000001 0.01 0  0.82 0.01 0  0.83 0.01 0  0.84 0.01 0  0.85 0.01 0  0.86 0.01 0  0.87 0.01 0  0.88 0.01 0  0.89 0.01 0  0.9 0.01 0  0.91 0.01 0  0.92 0.01 0  0.93 0.01 0  0.9399999999999999 0.01 0  0.95 0.01 0  0.96 0.01 0  0.97 0.01 0  0.98 0.01 0  0.99 0.01 0  1 0.01 0  0 0.02 0  0.01 0.02 0  0.02 0.02 0  0.03 0.02 0  0.04 0.02 0  0.05 0.02 0  0.06 0.02 0  0.07000000000000001 0.02 0  0.08 0.02 0  0.09 0.02 0  0.1 0.02 0  0.11 0.02 0  0.12 0.02 0  0.13 0.02 0  0.14 0.02 0  0.15 0.02 0  0.16 0.02 0  0.17 0.02 0  0.18 0.02 0  0.19 0.02 0  0.2 0.02 0  0.21 0.02 0  0.22 0.02 0  0.23 0.02 0  0.24 0.02 0  0.25 0.02 0  0.26 0.02 0  0.27 0.02 0  0.28 0.02 0  0.29 0.02 0  0.3 0.02 0  0.31 0.02 0  0.32 0.02 0  0.33 0.02 0  0.34 0.02 0  0.35 0.02 0  0.36 0.02 0  0.37 0.02 0  0.38 0.02 0  0.39 0.02 0  0.4 0.02 0  0.41 0.02 0  0.42 0.02 0  0.43 0.02 0  0.44 0.02 0  0.45 0.02 0  0.46 0.02 0  0.47 0.02 0  0.48 0.02 0  0.49 0.02 0  0.5 0.02 0  0.51 0.02 0  0.52 0.02 0  0.53 0.02 0  0.54 0.02 0  0.55 0.02 0  0.5600000000000001 0.02 0  0.57 0.02 0  0.58 0.02 0  0.59 0.02 0  0.6 0.02 0  0.61 0.02 0  0.62 0.02 0  0.63 0.02 0  0.64 0.02 0  0.65 0.02 0  0.66 0.02 0  0.67 0.02 0  0.68 0.02 0  0.6899999999999999 0.02 0  0.7 0.02 0  0.71 0.02 0  0.72 0.02 0  0.73 0.02 0  0.74 0.02 0  0.75 0.02 0  0.76 0.02 0  0.77 0.02 0  0.78 0.02 0  0.79 0.02 0  0.8 0.02 0  0.8100000000000001 0.02 0  0.82 0.02 0  0.83 0.02 0  0.84 0.02 0  0.85 0.02 0  0.86 0.02 0  0.87 0.02 0  0.88 0.02 0  0.89 0.02 0  0.9 0.02 0  0.91 0.02 0  0.92 0.02 0  0.93 0.02 0  0.9399999999999999 0.02 0  0.95 0.02 0  0.96 0.02 0  0.97 0.02 0  0.98 0.02 0  0.99 0.02 0  1 0.02 0  0 0.03 0  0.01 0.03 0  0.02 0.03 0  0.03 0.03 0  0.04 0.03 0  0.05 0.03 0  0.06 0.03 0  0.07000000000000001 0.03 0  0.08 0.03 0  0.09 0.03 0  0.1 0.03 0  0.11 0.03 0  0.12 0.03 0  0.13 0.03 0  0.14 0.03 0  0.15 0.03 0  0.16 0.03 0  0.17 0.03 0  0.18 0.03 0  0.19 0.03 0  0.2 0.03 0  0.21 0.03 0  0.22 0.03 0  0.23 0.03 0  0.24 0.03 0  0.25 0.03 0  0.26 0.03 0  0.27 0.03 0  0.28 0.03 0  0.29 0.03 0  0.3 0.03 0  0.31 0.03 0  0.32 0.03 0  0.33 0.03 0  0.34 0.03 0  0.35 0.03 0  0.36 0.03 0  0.37 0.03 0  0.38 0.03 0  0.39 0.03 0  0.4 0.03 0  0.41 0.03 0  0.42 0.03 0  0.43 0.03 0  0.44 0.03 0  0.45 0.03 0  0.46 0.03 0  0.47 0.03 0  0.48 0.03 0  0.49 0.03 0  0.5 0.03 0  0.51 0.03 0  0.52 0.03 0  0.53 0.03 0  0.54 0.03 0  0.55 0.03 0  0.5600000000000001 0.03 0  0.57 0.03 0  0.58 0.03 0  0.59 0.03 0  0.6 0.03 0  0.61 0.03 0  0.62 0.03 0  0.63 0.03 0  0.64 0.03 0  0.65 0.03 0  0.66 0.03 0  0.67 0.03 0  0.68 0.03 0  0.6899999999999999 0.03 0  0.7 0.03 0  0.71 0.03 0  0.72 0.03 0  0.73 0.03 0  0.74 0.03 0  0.75 0.03 0  0.76 0.03 0  0.77 0.03 0  0.78 0.03 0  0.79 0.03 0  0.8 0.03 0  0.8100000000000001 0.03 0  0.82 0.03 0  0.83 0.03 0  0.84 0.03 0  0.85 0.03 0  0.86 0.03 0  0.87 0.03 0  0.88 0.03 0  0.89 0.03 0  0.9 0.03 0  0.91 0.03 0  0.92 0.03 0  0.93 0.03 0  0.9399999999999999 0.03 0  0.95 0.03 0  0.96 0.03 0  0.97 0.03 0  0.98 0.03 0  0.99 0.03 0  1 0.03 0  0 0.04 0  0.01 0.04 0  0.02 0.04 0  0.03 0.04 0  0.04 0.04 0  0.05 0.04 0  0.06 0.04 0  0.07000000000000001 0.04 0  0.08 0.04 0  0.09 0.04 0  0.1 0.04 0  0.11 0.04 0  0.12 0.04 0  0.13 0.04 0  0.14 0.04 0  0.15 0.04 0  0.16 0.04 0  0.17 0.04 0  0.18 0.04 0  0.19 0.04 0  0.2 0.04 0  0.21 0.04 0  0.22 0.04 0  0.23 0.04 0  0.24 0.04 0  0.25 0.04 0  0.26 0.04 0  0.27 0.04 0  0.28 0.04 0  0.29 0.04 0  0.3 0.04 0  0.31 0.04 0  0.32 0.04 0  0.33 0.04 0  0.34 0.04 0  0.35 0.04 0  0.36 0.04 0  0.37 0.04 0  0.38 0.04 0  0.39 0.04 0  0.4 0.04 0  0.41 0.04 0  0.42 0.04 0  0.43 0.04 0  0.44 0.04 0  0.45 0.04 0  0.46 0.04 0  0.47 0.04 0  0.48 0.04 0  0.49 0.04 0  0.5 0.04 0  0.51 0.04 0  0.52 0.04 0  0.53 0.04 0  0.54 0.04 0  0.55 0.04 0  0.5600000000000001 0.04 0  0.57 0.04 0  0.58 0.04 0  0.59 0.04 0  0.6 0.04 0  0.61 0.04 0  0.62 0.04 0  0.63 0.04 0  0.64 0.04 0  0.65 0.04 0  0.66 0.04 0  0.67 0.04 0  0.68 0.04 0  0.6899999999999999 0.04 0  0.7 0.04 0  0.71 0.04 0  0.72 0.04 0  0.73 0.04 0  0.74 0.04 0  0.75 0.04 0  0.76 0.04 0  0.77 0.04 0  0.78 0.04 0  0.79 0.04 0  0.8 0.04 0  0.8100000000000001 0.04 0  0.82 0.04 0  0.83 0.04 0  0.84 0.04 0  0.85 0.04 0  0.86 0.04 0  0.87 0.04 0  0.88 0.04 0  0.89 0.04 0  0.9 0.04 0  0.91 0.04 0  0.92 0.04 0  0.93 0.04 0  0.9399999999999999 0.04 0  0.95 0.04 0  0.96 0.04 0  0.97 0.04 0  0.98 0.04 0  0.99 0.04 0  1 0.04 0  0 0.05 0  0.01 0.05 0  0.02 0.05 0  0.03 0.05 0  0.04 0.05 0  0.05 0.05 0  0.06 0.05 0  0.07000000000000001 0.05 0  0.08 0.05 0  0.09 0.05 0  0.1 0.05 0  0.11 0.05 0  0.12 0.05 0  0.13 0.05 0  0.14 0.05 0  0.15 0.05 0  0.16 0.05 0  0.17 0.05 0  0.18 0.05 0  0.19 0.05 0  0.2 0.05 0  0.21 0.05 0  0.22 0.05 0  0.23 0.05 0  0.24 0.05 0  0.25 0.05 0  0.26 0.05 0  0.27 0.05 0  0.28 0.05 0  0.29 0.05 0  0.3 0.05 0  0.31 0.05 0  0.32 0.05 0  0.33 0.05 0  0.34 0.05 0  0.35 0.05 0  0.36 0.05 0  0.37 0.05 0  0.38 0.05 0  0.39 0.05 0  0.4 0.05 0  0.41 0.05 0  0.42 0.05 0  0.43 0.05 0  0.44 0.05 0  0.45 0.05 0  0.46 0.05 0  0.47 0.05 0  0.48 0.05 0  0.49 0.05 0  0.5 0.05 0  0.51 0.05 0  0.52 0.05 0  0.53 0.05 0  0.54 0.05 0  0.55 0.05 0  0.5600000000000001 0.05 0  0.57 0.05 0  0.58 0.05 0  0.59 0.05 0  0.6 0.05 0  0.61 0.05 0  0.62 0.05 0  0.63 0.05 0  0.64 0.05 0  0.65 0.05 0  0.66 0.05 0  0.67 0.05 0  0.68 0.05 0  0.6899999999999999 0.05 0  0.7 0.05 0  0.71 0.05 0  0.72 0.05 0  0.73 0.05 0  0.74 0.05 0  0.75 0.05 0  0.76 0.05 0  0.77 0.05 0  0.78 0.05 0  0.79 0.05 0  0.8 0.05 0  0.8100000000000001 0.05 0  0.82 0.05 0  0.83 0.05 0  0.84 0.05 0  0.85 0.05 0  0.86 0.05 0  0.87 0.05 0  0.88 0.05 0  0.89 0.05 0  0.9 0.05 0  0.91 0.05 0  0.92 0.05 0  0.93 0.05 0  0.9399999999999999 0.05 0  0.95 0.05 0  0.96 0.05 0  0.97 0.05 0  0.98 0.05 0  0.99 0.05 0  1 0.05 0  0 0.06 0  0.01 0.06 0  0.02 0.06 0  0.03 0.06 0  0.04 0.06 0  0.05 0.06 0  0.06 0.06 0  0.07000000000000001 0.06 0  0.08 0.06 0  0.09 0.06 0  0.1 0.06 0  0.11 0.06 0  0.12 0.06 0  0.13 0.06 0  0.14 0.06 0  0.15 0.06 0  0.16 0.06 0  0.17 0.06 0  0.18 0.06 0  0.19 0.06 0  0.2 0.06 0  0.21 0.06 0  0.22 0.06 0  0.23 0.06 0  0.24 0.06 0  0.25 0.06 0  0.26 0.06 0  0.27 0.06 0  0.28 0.06 0  0.29 0.06 0  0.3 0.06 0  0.31 0.06 0  0.32 0.06 0  0.33 0.06 0  0.34 0.06 0  0.35 0.06 0  0.36 0.06 0  0.37 0.06 0  0.38 0.06 0  0.39 0.06 0  0.4 0.06 0  0.41 0.06 0  0.42 0.06 0  0.43 0.06 0  0.44 0.06 0  0.45 0.06 0  0.46 0.06 0  0.47 0.06 0  0.48 0.06 0  0.49 0.06 0  0.5 0.06 0  0.51 0.06 0  0.52 0.06 0  0.53 0.06 0  0.54 0.06 0  0.55 0.06 0  0.5600000000000001 0.06 0  0.57 0.06 0  0.58 0.06 0  0.59 0.06 0  0.6 0.06 0  0.61 0.06 0  0.62 0.06 0  0.63 0.06 0  0.64 0.06 0  0.65 0.06 0  0.66 0.06 0  0.67 0.06 0  0.68 0.06 0  0.6899999999999999 0.06 0  0.7 0.06 0  0.71 0.06 0  0.72 0.06 0  0.73 0.06 0  0.74 0.06 0  0.75 0.06 0  0.76 0.06 0  0.77 0.06 0  0.78 0.06 0  0.79 0.06 0  0.8 0.06 0  0.8100000000000001 0.06 0  0.82 0.06 0  0.83 0.06 0  0.84 0.06 0  0.85 0.06 0  0.86 0.06 0  0.87 0.06 0  0.88 0.06 0  0.89 0.06 0  0.9 0.06 0  0.91 0.06 0  0.92 0.06 0  0.93 0.06 0  0.9399999999999999 0.06 0  0.95 0.06 0  0.96 0.06 0  0.97 0.06 0  0.98 0.06 0  0.99 0.06 0  1 0.06 0  0 0.07000000000000001 0  0.01 0.07000000000000001 0  0.02 0.07000000000000001 0  0.03 0.07000000000000001 0  0.04 0.07000000000000001 0  0.05 0.07000000000000001 0  0.06 0.07000000000000001 0  0.07000000000000001 0.07000000000000001 0  0.08 0.07000000000000001 0  0.09 0.07000000000000001 0  0.1 0.07000000000000001 0  0.11 0.07000000000000001 0  0.12 0.07000000000000001 0  0.13 0.07000000000000001 0  0.14 0.07000000000000001 0  0.15 0.07000000000000001 0  0.16 0.07000000000000001 0  0.17 0.0700
[...]
<PointData  Scalars="u"> 
<DataArray  type="Float64"  Name="u"  format="ascii">0.0000000000000000e+00  0.0000000000000000e+00  0.0000000000000000e+00  0.0000000000000000e+00  0.0000000000000000e+00  0.0000000000000000e+00  0.0000000000000000e+00  0.0000000000000000e+00  0.0000000000000000e+00  0.0000000000000000e+00  0.0000000000000000e+00  0.0000000000000000e+00  0.0000000000000000e+00  0.0000000000000000e+00  0.0000000000000000e+00  0.0000000000000000e+00  0.0000000000000000e+00  0.0000000000000000e+00  0.0000000000000000e+00  0.0000000000000000e+00  0.0000000000000000e+00  0.0000000000000000e+00  0.0000000000000000e+00  0.0000000000000000e+00  0.0000000000000000e+00  0.0000000000000000e+00  0.0000000000000000e+00  0.0000000000000000e+00  0.0000000000000000e+00  0.0000000000000000e+00  0.0000000000000000e+00  0.0000000000000000e+00  0.0000000000000000e+00  0.0000000000000000e+00  0.0000000000000000e+00  0.0000000000000000e+00  0.0000000000000000e+00  0.0000000000000000e+00  0.0000000000000000e+00  0.0000000000000000e+00  0.0000000000000000e+00  0.0000000000000000e+00  0.0000000000000000e+00  0.0000000000000000e+00  0.0000000000000000e+00  0.0000000000000000e+00  0.0000000000000000e+00  0.0000000000000000e+00  0.0000000000000000e+00  0.0000000000000000e+00  0.0000000000000000e+00  0.0000000000000000e+00  0.0000000000000000e+00  0.0000000000000000e+00  0.0000000000000000e+00  0.0000000000000000e+00  0.0000000000000000e+00  0.0000000000000000e+00  0.0000000000000000e+00  0.0000000000000000e+00  0.0000000000000000e+00  0.0000000000000000e+00  0.0000000000000000e+00  0.0000000000000000e+00  0.0000000000000000e+00  0.0000000000000000e+00  0.0000000000000000e+00  0.0000000000000000e+00  0.0000000000000000e+00  0.0000000000000000e+00  0.0000000000000000e+00  0.0000000000000000e+00  0.0000000000000000e+00  0.0000000000000000e+00  0.0000000000000000e+00  0.0000000000000000e+00  0.0000000000000000e+00  0.0000000000000000e+00  0.0000000000000000e+00  0.0000000000000000e+00  0.0000000000000000e+00  0.0000000000000000e+00  0.0000000000000000e+00  0.0000000000000000e+00  0.0000000000000000e+00  0.0000000000000000e+00  0.0000000000000000e+00  0.0000000000000000e+00  0.0000000000000000e+00  0.0000000000000000e+00  0.0000000000000000e+00  0.0000000000000000e+00  0.0000000000000000e+00  0.0000000000000000e+00  0.0000000000000000e+00  0.0000000000000000e+00  0.0000000000000000e+00  0.0000000000000000e+00  0.0000000000000000e+00  0.0000000000000000e+00  0.0000000000000000e+00  0.0000000000000000e+00  -7.4765565430135242e-04  -4.8742794471467511e-04  -1.0225848112865456e-04  -5.1093836877514395e-04  1.7982532888120411e-04  1.6449873473528277e-04  -1.5827014262596292e-04  1.9351527298894992e-04  -2.2703260387623927e-04  -6.0230162455328572e-05  2.5889547899117711e-04  3.1269672415753396e-04  -1.7111200255543526e-04  2.3102501327534844e-05  1.1294749850297576e-04  -1.3404117371463686e-04  5.4397738507469973e-04  -3.7219080804903209e-04  3.5172679859095504e-04  3.0325993214991770e-05  4.9115010205900239e-05  1.6887099713719996e-04  3.0628016206678212e-04  -2.4320631086162495e-04  7.3945249871516100e-04  -7.4424421249221450e-04  9.1834012396982162e-04  4.4527172509853308e-05  -4.6303536833192625e-04  9.4920696407422797e-04  5.7560528481658902e-04  -7.9507088240058309e-04  2.3897495542462758e-05  5.3017702608745972e-04  6.7722971870853811e-04  3.8245545580119689e-04  2.6939558627740381e-04  1.8628363452061363e-04  1.3760689926873280e-04  9.4109400288148714e-05  -5.8233935557546997e-05  -1.6400925356671478e-04  -6.0788541887230041e-04  4.6953242976960271e-05  7.9927563851412060e-04  -7.9885145065787771e-04  5.7594748331158329e-04  -3.4096251409576123e-04  7.1573235234922023e-05  6.1966681910785782e-05  2.9426262417162259e-04  -2.4958386980424030e-04  -4.2421000396438029e-05  3.6364131699689273e-05  6.1602592860576831e-05  4.3880365313000960e-05  3.5072055349798013e-05  3.2270658620114265e-05  2.8463482165693658e-05  2.7772248325781685e-05  2.6357058748497175e-05  2.6063830766664064e-05  2.1302318670553257e-05  1.9616293369659389e-05  2.9883091583056363e-05  4.6276900043341440e-05  1.5172294309943491e-05  1.8100923826061337e-05  1.8816416892574597e-05  1.7120967138735998e-05  1.8311738276375426e-05  1.6199040290310834e-05  1.5933673108199225e-05  1.7985584821289260e-05  1.2443869606446032e-05  1.6861460133731539e-05  1.2441465959415412e-05  1.4564768197405628e-05  1.0434574717463158e-05  1.2027030440063649e-05  1.0947091816829546e-05  1.1647398886237333e-05  1.3939402501219179e-05  1.2387512653757155e-05  6.6893097628496106e-06  7.2547060601794589e-06  7.6451163318812098e-06  9.1239875013458237e-06  8.0112093835957398e-06  -1.5238146899922732e-07  9.2297572308710033e-06  4.4544939112295797e-06  1.3223847306858694e-06  5.8844330485340369e-06  2.5398121374166920e-06  3.5440111637265237e-06  1.9442488027715680e-06  8.2305294727896236e-07  -1.6033999024688370e-08  0.0000000000000000e+00  0.0000000000000000e+00  4.7845848251614745e-04  -4.9951236818900698e-04  -4.3741448704987375e-04  -3.2649559194662702e-04  -5.0641092685501602e-04  2.7060040579101978e-04  1.0119090273723522e-04  1.4944461600537463e-04  -5.1000754471659056e-04  -6.2623213353360031e-05  3.2190491944168536e-04  2.6325590888402100e-04  3.2035684678517686e-04  2.7851413222111546e-04  -1.0498108697422600e-03  1.0350489699886020e-03  -1.7084681319704090e-04  1.4009403533768455e-04  6.7023540450067149e-04  -8.2349788641060992e-04  1.3372497495662532e-03  -1.3084257954196275e-03  1.5639860614926246e-03  -1.2596665692418251e-03  1.2178515721740259e-03  -2.8091243275921347e-04  -2.7761378524224125e-04  1.5083150465295351e-03  -1.4464632843600625e-03  2.0904558052781033e-04  1.5392542937152287e-03  -3.6719852233025891e-04  -8.8805440147866248e-04  1.1606429402251709e-04  1.4174677375773295e-03  8.8798721629405821e-04  5.9231492403579464e-04  4.6176502526544647e-04  3.6584199139220514e-04  2.8345855451723312e-04  2.2940344547239233e-04  8.5692606237031121e-05  -1.0821874795471052e-03  -8.6183778972211654e-04  1.3370745243329470e-03  6.7610099976344001e-04  -1.2879795410506633e-03  1.0801349177375747e-03  -3.2918907093948445e-04  -2.6137063817473384e-04  7.0444900640495817e-04  5.5859876605419216e-05  -3.5240704261342841e-04  4.6762005016198920e-05  1.0582519756084527e-04  1.1312310877493076e-04  7.2082839047726824e-05  6.7713683297203331e-05  6.1610041178843973e-05  5.6697525219733037e-05  5.5399837214050625e-05  5.4372484334074874e-05  4.7658339269502422e-05  4.6345695340593146e-05  4.0821007747139357e-05  8.4594187695706535e-05  6.4376479003873697e-05  2.4010424053632749e-05  4.7247283407159479e-05  3.7733082189685558e-05  3.5768124308935989e-05  3.8762199312096428e-05  3.7164615764564594e-05  3.1199743466497761e-05  3.1878989420129468e-05  3.2950954214103777e-05  2.6308346383200541e-05  2.9249663044498379e-05  2.6712599745591133e-05  2.0567599157807056e-05  2.4873306301263257e-05  1.7264957377304657e-05  2.6934998006609713e-05  2.8838376022080522e-05  1.8162838725996292e-05  9.6268990475362614e-06  1.3027771090650018e-05  1.9119802949700118e-05  1.4051855409264232e-05  9.3439932263863279e-06  4.2415744064713635e-06  1.6547267526310081e-05  3.7735485464818509e-06  7.0691213228611232e-06  7.6565885041440434e-06  6.5169789222440920e-06  5.0348029791253045e-06  2.9382353588942502e-06  6.3309483972451804e-07  0.0000000000000000e+00  0.0000000000000000e+00  8.8807470255296202e-05  1.7288760203238679e-04  -3.0826756961498667e-04  1.6205493400331400e-04  -1.0396839693685633e-03  4.6367533747800722e-04  4.4960046701983261e-04  -4.1363660874199615e-04  6.5734883780342113e-04  -1.0015301791834596e-03  -2.2097873918064447e-04  8.0866957998194282e-04  6.9742241565387336e-04  -4.7255133055872670e-04  3.9706149911761962e-04  -5.3333249473069811e-04  1.1610452058775416e-04  1.2408202739320716e-03  -1.1942356417291810e-03  1.3944721946509816e-03  -7.5049157332761243e-04  8.0926080562172733e-04  -4.9721365661790332e-04  1.4044561912536445e-03  -1.5764539376527473e-03  2.3213345633039629e-03  -2.2306542626139470e-03  2.0312410328311723e-03  4.9354975714263020e-04  -2.0916640452152691e-03  2.1485790737136483e-03  1.7022878955296572e-03  -2.4373804228878361e-03  -4.1358800173849509e-04  9.1469411511650733e-04  1.8645067760888101e-03  1.0425384420263820e-03  8.0328912764959608e-04  6.4986667791541177e-04  5.6937948611753659e-04  4.6688946907239622e-04  1.0172227525009236e-04  -1.0465839527054504e-04  -1.7925962010587008e-03  -2.8292528945918574e-04  2.5418254544297787e-03  -1.5823084389571117e-03  9.0052959487023593e-04  -4.6909060529557302e-04  2.7952842775245772e-04  -6.1129251430837498e-05  1.0281222711026685e-03  -5.8492868805409511e-04  -1.6182816818976559e-04  1.4126721544759297e-04  2.0015140226522512e-04  1.4796061519451511e-04  1.0855675241888288e-04  1.0070385447589927e-04  9.0324502570849111e-05  8.8107909197668950e-05  8.3734069019401666e-05  8.3317672238581751e-05  7.0097720576687433e-05  6.6393200043021576e-05  8.8386957720757087e-05  1.3664021725019162e-04  5.2771098443881194e-05  4.8705678560698193e-05  6.9824940870797533e-05  5.9908358735685874e-05  5.7568929213648262e-05  5.4413543976370536e-05  5.4611938324153561e-05  5.3195434190317619e-05  4.1302481960844537e-05  5.2504899990630290e-05  3.6394117912920527e-05  4.4890154588131913e-05  3.3394186416228895e-05  3.3625794716731988e-05  3.3778743830894056e-05  2.8401376055501668e-05  4.0421095592685092e-05  3.7428357561904938e-05  1.9341339089529665e-05  1.6169595203446751e-05  1.8413259723114551e-05  2.6454499968467188e-05  1.9230401397791220e-05  6.5362230189433728e-07  2.0329055920363197e-05  1.3560047571681849e-05  2.4901077747125734e-06  1.4944316143218722e-05  6.6592814073885788e-06  9.2120811859323962e-06  5.1093244432406846e-06  2.2932136278536905e-06  0.0000000000000000e+00  0.0000000000000000e+00  2.9972575235885488e-04  3.8840143347022203e-04  -3.5031638307817133e-04  -2.3601539440829881e-04  1.1903943119309158e-04  -9.5295493949875852e-04  9.1721090460103114e-04  5.2511766329048923e-04  7.9130962135659080e-06  -4.4773882693588212e-04  -3.6776232828349001e-04  2.5605030208164016e-04  6.5384864516759779e-04  8.5298434087972851e-04  1.4810994690307020e-05  -1.4859849946157926e-03  1.5232050141111607e-03  -6.1344179374405979e-04  8.6404961902506686e-04  3.2399248490166455e-04  -7.6698013386682757e-04  1.8326763155917056e-03  -1.9562076420208893e-03  2.3292343909226123e-03  -1.5560682334299393e-03  1.2678366964419137e-03  3.5280152133338686e-04  -1.4877326722552468e-03  3.1961576286089807e-03  -2.2055895900043501e-03  -5.1174749018143462e-04  3.2167902744814820e-03  -1.8588983866633288e-05  -2.5394029638823330e-03  -8.0746069778229096e-05  2.3924861624656213e-03  1.8933301446072289e-03  1.2546866964402389e-03  1.0287732620119926e-03  8.6163947007314402e-04  7.4056767556953730e-04  6.3631867899446664e-04  1.7642088579718457e-04  -1.6821781792570201e-03  -1.9489270758825256e-03  2.0156196691135651e-03  2.0317773579178085e-03  -2.8694057552349356e-03  2.3579444259380694e-03  -9.4274951383770675e-04  -2.1732853642455341e-04  1.1144860816743440e-03  4.5517796092170264e-04  -7.9397157570039586e-04  4.9849823327684760e-05  2.3115819318206607e-04  2.6329853570061860e-04  1.7316498602912056e-04  1.5080175304497744e-04  1.3551851315476960e-04  1.2253443524209564e-04  1.1947855239971105e-04  1.1592353545415930e-04  1.0452264755752251e-04  9.8584715599702789e-05  8.6894836447072967e-05  1.6642161916419722e-04  1.4296450275710226e-04  4.8700143959056323e-05  8.5182499410494335e-05  8.6433250610483541e-05  7.9259228966353887e-05  8.0160509219975463e-05  7.4312941873425352e-05  6.7671287106047158e-05  6.8369543724356157e-05  6.2875915068783331e-05  5.9772171691514836e-05  5.4130871285267877e-05  5.3574501853567606e-05  4.1739530405722444e-05  4.7251428569660404e-05  3.5987680313465209e-05  4.5690158715925939e-05  5.4239703256215489e-05  3.6443391133545301e-05  1.7706374102982123e-05  2.2276321250205252e-05  3.0183666827830484e-05  2.6593612668663199e-05  1.7283300392505277e-05  1.4006204450381842e-06  2.9490611163867084e-05  6.0453350374000853e-06  7.5060906083200114e-06  1.4110805373586447e-05  8.8338101917902794e-06  7.8958298968022883e-06  3.5541371064389356e-06  0.0000000000000000e+00  0.0000000000000000e+00  2.1186942700938870e-04  3.8865228893209918e-04  6.8490204401123870e-04  -5.1952037871320770e-04  1.6471588123647931e-04  -1.0531147799391653e-03  4.5981502842466125e-04  9.7728691702190585e-04  -1.7815314035621893e-04  9.8861280940579178e-04  -1.5023262085558189e-03  -2.5773643345696948e-04  1.1915165372455377e-03  9.8744122896701563e-04  -3.1153769527146786e-04  6.0181196151646297e-04  -1.3996182697709537e-03  8.5713913936536303e-04  1.2287542575691039e-03  -1.2926107209594575e-03  1.9744604950314481e-03  -1.4541208523779151e-03  1.7835034718593629e-03  -1.4051709478577873e-03  2.5998259582236454e-03  -2.6945211571159653e-03  3.5034512268117476e-03  -2.8903369441124708e-03  2.1615772198966474e-03  1.5492044737970573e-03  -3.5656565110683946e-03  2.6838147353335420e-03  3.2645156299071290e-03  -3.3042827398471223e-03  -1.4016924831279495e-03  1.0828434356189090e-03  3.1793885044563821e-03  1.9584483753370160e-03  1.5143029813674495e-03  1.2666998942498558e-03  1.1177325926795506e-03  9.3662190264590171e-04  4.1967480930576377e-04  -3.6550262287671353e-05  -2.8891603411364897e-03  -9.8742737985035118e-04  4.0118770203299214e-03  -1.3778062249797354e-03  1.5227027904082612e-04  2.5526725200809266e-04  8.0997419828822244e-05  -2.3286366627071114e-04  1.7206069636828128e-03  -5.8753173706266001e-04  -4.5684257562368495e-04  2.0610523953997774e-04  3.3076715246289879e-04  2.8056893713407469e-04  2.0298351531301156e-04  1.8767436692340109e-04  1.6882861658862271e-04  1.6067955459998792e-04  1.5126439979167976e-04  1.4958378135595111e-04  1.2725637668169914e-04  1.1984548797853927e-04  1.4490021934731489e-04  2.2926399216649957e-04  1.1121594679083791e-04  7.4558186689531442e-05  1.1488647511016058e-04  1.0650894201593427e-04  9.9866791142150309e-05  9.6692881566565599e-05  9.2480388600967007e-05  8.7670980076467580e-05  7.7433424167968479e-05  8.3809122068858937e-05  6.6523489809565438e-05  7.3524928633557959e-05  5.4940780357035845e-05  5.5143235377740042e-05  5.6526821958650334e-05  4.3510286258232825e-05  6.2466419928851154e-05  6.0637652291924138e-05  3.1631624316549585e-05  2.0826078164047412e-05  2.7169369426151715e-05  3.9132043146897409e-05  2.5939269487128939e-05  4.1155107011173111e-06  1.9681737408843003e-05  2.2666440895840961e-05  5.5878127852609154e-07  1.6124784873841887e-05  8.7770671349276330e-06  9.9562167328489826e-06  4.7429580830579335e-06  0.0000000000000000e+00  0.0000000000000000e+00  2.8161177922232682e-04  4.6659900100305408e-04  3.2808543438538724e-04  2.9441025315955110e-04  -1.4830148207218855e-04  2.2038771896462433e-04  -1.3716175031816013e-03  1.3141261893200040e-03  9.3992494075047358e-04  -3.1613293903343256e-05  -1.1772607005746912e-04  -8.6025701364211599e-04  2.0046703934763601e-04  1.2266775808023817e-03  1.3057902894745032e-03  -2.0154814905115696e-04  -1.3998998483491733e-03  1.1643056518407077e-03  -3.7672541194040828e-04  1.3975151673713744e-03  -1.5334488440235932e-04  -1.6390834815334067e-04  1.4907087345583589e-03  -1.7015013834112891e-03  2.2127177004116730e-03  -1.0179976448309630e-03  6.6536119660104919e-04  1.3712382168159717e-03  -2.5095228126401081e-03  4.4083474886511351e-03  -2.2263041764025299e-03  -1.7067113045498800e-03  4.5685719880913340e-03  7.4659959386386707e-04  -4.0199103867098913e-03  -5.0273639517860126e-04  3.0445654255081799e-03  3.2267597176425006e-03  2.1597577728324695e-03  1.7878123410075965e-03  1.5297817467990970e-03  1.3455340649594623e-03  1.1260993406194987e-03  3.2257633682665672e-04  -1.9997736740388046e-03  -3.1887384110862839e-03  2.2544589988847960e-03  3.5632469642480043e-03  -3.6267181660414967e-03  2.6899277645922111e-03  -1.0084953067798440e-03  -1.0042958725603094e-04  1.1863722380253802e-03  1.0386596080601907e-03  -1.0589304015962120e-03  -4.6677994024933417e-05  3.5013058530896599e-04  4.1048552836029338e-04  2.8896005238677601e-04  2.4007661289568395e-04  2.2017395275527926e-04  2.0072083874799639e-04  1.9623080962368736e-04  1.8751369649608270e-04  1.7239592268205347e-04  1.5994258340116380e-04  1.4018617989335996e-04  2.4540002137889605e-04  2.3092682278849278e-04  9.0756059095533530e-05  1.1722729688174599e-04  1.3697810363337245e-04  1.2673728504566020e-04  1.2168673481861641e-04  1.1567747336179377e-04  1.0749688236271894e-04  1.0241533765518331e-04  9.8100903581812481e-05  9.3187739171946661e-05  8.0804631940352444e-05  8.6194250117343851e-05  6.0398209573684938e-05  7.0267784606356011e-05  5.8675699709363681e-05  5.9146169222670211e-05  7.9680241472956752e-05  5.6476489544651730e-05  2.6319699538670483e-05  2.6230489913324669e-05  3.8115022980485235e-05  4.0155682250808560e-05  1.9896556218949260e-05  7.2918146890924948e-07  3.2749315241581274e-05  9.0432994370582156e-06  3.7664553754107520e-06  1.4982991658962396e-05  7.6572742804439361e-06  6.4449350849070898e-06  0.0000000000000000e+00  0.0000000000000000e+00  9.7371086171882509e-05  3.4506411147428056e-04  6.5566521326276286e-04  6.5822272537041887e-04  -4.1636886744789007e-04  3.0477621726007374e-04  -8.1191730115654187e-04  1.4066633054489903e-04  1.4895246583994867e-03  1.5818067028866136e-04  9.8860230592683930e-04  -1.5209941191356544e-03  -5.0646260974583559e-04  1.3166536988550148e-03  1.4419473874376760e-03  8.5620535661941138e-05  4.3786000549579499e-04  -1.6688141014001667e-03  1.1521235551004573e-03  1.0941073964515062e-03  -7.6648929978937385e-04  1.7855027497974125e-03  -1.2264553765520545e-03  2.0581427051154745e-03  -1.6119110391405449e-03  3.0467845224294420e-03  -2.8564614395430146e-03  3.6994653465979989e-03  -2.6397353454133549e-03  1.7277263139982839e-03  2.7290111884198357e-03  -4.3343428931641656e-03  2.6464174140097231e-03  4.9336485785111354e-03  -3.5634499504845424e-03  -2.8053113999846387e-03  1.1687404208150509e-03  4.2908757565550508e-03  3.2005478844951063e-03  2.4517715010026896e-03  2.0758963986663445e-03  1.8360296553594641e-03  1.5675209442844464e-03  8.6187989232416385e-04  -2.0366218827670781e-05  -3.6509231869371940e-03  -1.9233410506982601e-03  4.9565468816533658e-03  -6.7855004832651877e-04  -6.8693690320536149e-04  1.0733766638116975e-03  -3.1527035384478841e-04  -9.7956997189212696e-05  2.1249533566062477e-03  -2.7446369742456007e-04  -8.1101806792640251e-04  2.3598483190613484e-04  4.7797142792034466e-04  4.4136589032571819e-04  3.1629949126597173e-04  2.8112487095296096e-04  2.5417704526466150e-04  2.3934625671483107e-04  2.2807159464137162e-04  2.2462284663215751e-04  1.9405446598405303e-04  1.8339442136549943e-04  2.0414819973330056e-04  3.2557821461161990e-04  1.8649239081987957e-04  1.0755619700587158e-04  1.5349623438215101e-04  1.5753652049109478e-04  1.4789778121497289e-04  1.3908083866546496e-04  1.3122766342288483e-04  1.2677592231224581e-04  1.1310110936984510e-04  1.1527148391555284e-04  1.0075685737609992e-04  9.7493291585699674e-05  8.8215933422961261e-05  7.3496178968471677e-05  8.1281711930101836e-05  6.4299917559463199e-05  7.7347697397149134e-05  8.6411990129335166e-05  4.7642866683323242e-05  2.7100473421252248e-05  3.2200048508300672e-05  4.7079977735664581e-05  3.5857898864185909e-05  6.2620269220096761e-06  1.5511454891102916e-05  2.8760717207938020e-05  -1.8311014209673891e-06  1.1522916654249870e-05  7.9211215041842783e-06  5.7288584966891516e-06  0.0000000000000000e+00  0.0000000000000000e+00  2.5109725776060018e-04  4.6199046003797561e-04  5.0782709847610062e-04  4.6366192075027418e-04  7.1522819944119570e-04  -2.4949991583708838e-04  1.2656310329906947e-04  -1.3174917758766540e-03  1.3774080113461754e-03  1.4310344780320561e-03  1.9847091929028966e-04  -6.5819899299037908e-05  -1.1656663202751975e-03  1.5207695123170128e-04  1.6185