<?xml version="1.0"?>
<VTKFile type="UnstructuredGrid"  version="0.1"  >
<UnstructuredGrid>
<Piece  NumberOfPoints="10201" NumberOfCells="20000">
<Points>
<DataArray  type="Float64"  NumberOfComponents="3"  format="ascii">0 0 0  0.01 0 0  0.02 0 0  0.03 0 0  0.04 0 0  0.05 0 0  0.06 0 0  0.07000000000000001 0 0  0.08 0 0  0.09 0 0  0.1 0 0  0.11 0 0  0.12 0 0  0.13 0 0  0.14 0 0  0.15 0 0  0.16 0 0  0.17 0 0  0.18 0 0  0.19 0 0  0.2 0 0  0.21 0 0  0.22 0 0  0.23 0 0  0.24 0 0  0.25 0 0  0.26 0 0  0.27 0 0  0.28 0 0  0.29 0 0  0.3 0 0  0.31 0 0  0.32 0 0  0.33 0 0  0.34 0 0  0.35 0 0  0.36 0 0  0.37 0 0  0.38 0 0  0.39 0 0  0.4 0 0  0.41 0 0  0.42 0 0  0.43 0 0  0.44 0 0  0.45 0 0  0.46 0 0  0.47 0 0  0.48 0 0  0.49 0 0  0.5 0 0  0.51 0 0  0.52 0 0  0.53 0 0  0.54 0 0  0.55 0 0  0.5600000000000001 0 0  0.57 0 0  0.58 0 0  0.59 0 0  0.6 0 0  0.61 0 0  0.62 0 0  0.63 0 0  0.64 0 0  0.65 0 0  0.66 0 0  0.67 0 0  0.68 0 0  0.6899999999999999 0 0  0.7 0 0  0.71 0 0  0.72 0 0  0.73 0 0  0.74 0 0  0.75 0 0  0.76 0 0  0.77 0 0  0.78 0 0  0.79 0 0  0.8 0 0  0.8100000000000001 0 0  0.82 0 0  0.83 0 0  0.84 0 0  0.85 0 0  0.86 0 0  0.87 0 0  0.88 0 0  0.89 0 0  0.9 0 0  0.91 0 0  0.92 0 0  0.93 0 0  0.9399999999999999 0 0  0.95 0 0  0.96 0 0  0.97 0 0  0.98 0 0  0.99 0 0  1 0 0  0 0.01 0  0.01 0.01 0  0.02 0.01 0  0.03 0.01 0  0.04 0.01 0  0.05 0.01 0  0.06 0.01 0  0.07000000000000001 0.01 0  0.08 0.01 0  0.09 0.01 0  0.1 0.01 0  0.11 0.01 0  0.12 0.01 0  0.13 0.01 0  0.14 0.01 0  0.15 0.01 0  0.16 0.01 0  0.17 0.01 0  0.18 0.01 0  0.19 0.01 0  0.2 0.01 0  0.21 0.01 0  0.22 0.01 0  0.23 0.01 0  0.24 0.01 0  0.25 0.01 0  0.26 0.01 0  0.27 0.01 0  0.28 0.01 0  0.29 0.01 0  0.3 0.01 0  0.31 0.01 0  0.32 0.01 0  0.33 0.01 0  0.34 0.01 0  0.35 0.01 0  0.36 0.01 0  0.37 0.01 0  0.38 0.01 0  0.39 0.01 0  0.4 0.01 0  0.41 0.01 0  0.42 0.01 0  0.43 0.01 0  0.44 0.01 0  0.45 0.01 0  0.46 0.01 0  0.47 0.01 0  0.48 0.01 0  0.49 0.01 0  0.5 0.01 0  0.51 0.01 0  0.52 0.01 0  0.53 0.01 0  0.54 0.01 0  0.55 0.01 0  0.5600000000000001 0.01 0  0.57 0.01 0  0.58 0.01 0  0.59 0.01 0  0.6 0.01 0  0.61 0.01 0  0.62 0.01 0  0.63 0.01 0  0.64 0.01 0  0.65 0.01 0  0.66 0.01 0  0.67 0.01 0  0.68 0.01 0  0.6899999999999999 0.01 0  0.7 0.01 0  0.71 0.01 0  0.72 0.01 0  0.73 0.01 0  0.74 0.01 0  0.75 0.01 0  0.76 0.01 0  0.77 0.01 0  0.78 0.01 0  0.79 0.01 0  0.8 0.01 0  0.8100000000000001 0.01 0  0.82 0.01 0  0.83 0.01 0  0.84 0.01 0  0.85 0.01 0  0.86 0.01 0  0.87 0.01 0  0.88 0.01 0  0.89 0.01 0  0.9 0.01 0  0.91 0.01 0  0.92 0.01 0  0.93 0.01 0  0.9399999999999999 0.01 0  0.95 0.01 0  0.96 0.01 0  0.97 0.01 0  0.98 0.01 0  0.99 0.01 0  1 0.01 0  0 0.02 0  0.01 0.02 0  0.02 0.02 0  0.03 0.02 0  0.04 0.02 0  0.05 0.02 0  0.06 0.02 0  0.07000000000000001 0.02 0  0.08 0.02 0  0.09 0.02 0  0.1 0.02 0  0.11 0.02 0  0.12 0.02 0  0.13 0.02 0  0.14 0.02 0  0.15 0.02 0  0.16 0.02 0  0.17 0.02 0  0.18 0.02 0  0.19 0.02 0  0.2 0.02 0  0.21 0.02 0  0.22 0.02 0  0.23 0.02 0  0.24 0.02 0  0.25 0.02 0  0.26 0.02 0  0.27 0.02 0  0.28 0.02 0  0.29 0.02 0  0.3 0.02 0  0.31 0.02 0  0.32 0.02 0  0.33 0.02 0  0.34 0.02 0  0.35 0.02 0  0.36 0.02 0  0.37 0.02 0  0.38 0.02 0  0.39 0.02 0  0.4 0.02 0  0.41 0.02 0  0.42 0.02 0  0.43 0.02 0  0.44 0.02 0  0.45 0.02 0  0.46 0.02 0  0.47 0.02 0  0.48 0.02 0  0.49 0.02 0  0.5 0.02 0  0.51 0.02 0  0.52 0.02 0  0.53 0.02 0  0.54 0.02 0  0.55 0.02 0  0.5600000000000001 0.02 0  0.57 0.02 0  0.58 0.02 0  0.59 0.02 0  0.6 0.02 0  0.61 0.02 0  0.62 0.02 0  0.63 0.02 0  0.64 0.02 0  0.65 0.02 0  0.66 0.02 0  0.67 0.02 0  0.68 0.02 0  0.6899999999999999 0.02 0  0.7 0.02 0  0.71 0.02 0  0.72 0.02 0  0.73 0.02 0  0.74 0.02 0  0.75 0.02 0  0.76 0.02 0  0.77 0.02 0  0.78 0.02 0  0.79 0.02 0  0.8 0.02 0  0.8100000000000001 0.02 0  0.82 0.02 0  0.83 0.02 0  0.84 0.02 0  0.85 0.02 0  0.86 0.02 0  0.87 0.02 0  0.88 0.02 0  0.89 0.02 0  0.9 0.02 0  0.91 0.02 0  0.92 0.02 0  0.93 0.02 0  0.9399999999999999 0.02 0  0.95 0.02 0  0.96 0.02 0  0.97 0.02 0  0.98 0.02 0  0.99 0.02 0  1 0.02 0  0 0.03 0  0.01 0.03 0  0.02 0.03 0  0.03 0.03 0  0.04 0.03 0  0.05 0.03 0  0.06 0.03 0  0.07000000000000001 0.03 0  0.08 0.03 0  0.09 0.03 0  0.1 0.03 0  0.11 0.03 0  0.12 0.03 0  0.13 0.03 0  0.14 0.03 0  0.15 0.03 0  0.16 0.03 0  0.17 0.03 0  0.18 0.03 0  0.19 0.03 0  0.2 0.03 0  0.21 0.03 0  0.22 0.03 0  0.23 0.03 0  0.24 0.03 0  0.25 0.03 0  0.26 0.03 0  0.27 0.03 0  0.28 0.03 0  0.29 0.03 0  0.3 0.03 0  0.31 0.03 0  0.32 0.03 0  0.33 0.03 0  0.34 0.03 0  0.35 0.03 0  0.36 0.03 0  0.37 0.03 0  0.38 0.03 0  0.39 0.03 0  0.4 0.03 0  0.41 0.03 0  0.42 0.03 0  0.43 0.03 0  0.44 0.03 0  0.45 0.03 0  0.46 0.03 0  0.47 0.03 0  0.48 0.03 0  0.49 0.03 0  0.5 0.03 0  0.51 0.03 0  0.52 0.03 0  0.53 0.03 0  0.54 0.03 0  0.55 0.03 0  0.5600000000000001 0.03 0  0.57 0.03 0  0.58 0.03 0  0.59 0.03 0  0.6 0.03 0  0.61 0.03 0  0.62 0.03 0  0.63 0.03 0  0.64 0.03 0  0.65 0.03 0  0.66 0.03 0  0.67 0.03 0  0.68 0.03 0  0.6899999999999999 0.03 0  0.7 0.03 0  0.71 0.03 0  0.72 0.03 0  0.73 0.03 0  0.74 0.03 0  0.75 0.03 0  0.76 0.03 0  0.77 0.03 0  0.78 0.03 0  0.79 0.03 0  0.8 0.03 0  0.8100000000000001 0.03 0  0.82 0.03 0  0.83 0.03 0  0.84 0.03 0  0.85 0.03 0  0.86 0.03 0  0.87 0.03 0  0.88 0.03 0  0.89 0.03 0  0.9 0.03 0  0.91 0.03 0  0.92 0.03 0  0.93 0.03 0  0.9399999999999999 0.03 0  0.95 0.03 0  0.96 0.03 0  0.97 0.03 0  0.98 0.03 0  0.99 0.03 0  1 0.03 0  0 0.04 0  0.01 0.04 0  0.02 0.04 0  0.03 0.04 0  0.04 0.04 0  0.05 0.04 0  0.06 0.04 0  0.07000000000000001 0.04 0  0.08 0.04 0  0.09 0.04 0  0.1 0.04 0  0.11 0.04 0  0.12 0.04 0  0.13 0.04 0  0.14 0.04 0  0.15 0.04 0  0.16 0.04 0  0.17 0.04 0  0.18 0.04 0  0.19 0.04 0  0.2 0.04 0  0.21 0.04 0  0.22 0.04 0  0.23 0.04 0  0.24 0.04 0  0.25 0.04 0  0.26 0.04 0  0.27 0.04 0  0.28 0.04 0  0.29 0.04 0  0.3 0.04 0  0.31 0.04 0  0.32 0.04 0  0.33 0.04 0  0.34 0.04 0  0.35 0.04 0  0.36 0.04 0  0.37 0.04 0  0.38 0.04 0  0.39 0.04 0  0.4 0.04 0  0.41 0.04 0  0.42 0.04 0  0.43 0.04 0  0.44 0.04 0  0.45 0.04 0  0.46 0.04 0  0.47 0.04 0  0.48 0.04 0  0.49 0.04 0  0.5 0.04 0  0.51 0.04 0  0.52 0.04 0  0.53 0.04 0  0.54 0.04 0  0.55 0.04 0  0.5600000000000001 0.04 0  0.57 0.04 0  0.58 0.04 0  0.59 0.04 0  0.6 0.04 0  0.61 0.04 0  0.62 0.04 0  0.63 0.04 0  0.64 0.04 0  0.65 0.04 0  0.66 0.04 0  0.67 0.04 0  0.68 0.04 0  0.6899999999999999 0.04 0  0.7 0.04 0  0.71 0.04 0  0.72 0.04 0  0.73 0.04 0  0.74 0.04 0  0.75 0.04 0  0.76 0.04 0  0.77 0.04 0  0.78 0.04 0  0.79 0.04 0  0.8 0.04 0  0.8100000000000001 0.04 0  0.82 0.04 0  0.83 0.04 0  0.84 0.04 0  0.85 0.04 0  0.86 0.04 0  0.87 0.04 0  0.88 0.04 0  0.89 0.04 0  0.9 0.04 0  0.91 0.04 0  0.92 0.04 0  0.93 0.04 0  0.9399999999999999 0.04 0  0.95 0.04 0  0.96 0.04 0  0.97 0.04 0  0.98 0.04 0  0.99 0.04 0  1 0.04 0  0 0.05 0  0.01 0.05 0  0.02 0.05 0  0.03 0.05 0  0.04 0.05 0  0.05 0.05 0  0.06 0.05 0  0.07000000000000001 0.05 0  0.08 0.05 0  0.09 0.05 0  0.1 0.05 0  0.11 0.05 0  0.12 0.05 0  0.13 0.05 0  0.14 0.05 0  0.15 0.05 0  0.16 0.05 0  0.17 0.05 0  0.18 0.05 0  0.19 0.05 0  0.2 0.05 0  0.21 0.05 0  0.22 0.05 0  0.23 0.05 0  0.24 0.05 0  0.25 0.05 0  0.26 0.05 0  0.27 0.05 0  0.28 0.05 0  0.29 0.05 0  0.3 0.05 0  0.31 0.05 0  0.32 0.05 0  0.33 0.05 0  0.34 0.05 0  0.35 0.05 0  0.36 0.05 0  0.37 0.05 0  0.38 0.05 0  0.39 0.05 0  0.4 0.05 0  0.41 0.05 0  0.42 0.05 0  0.43 0.05 0  0.44 0.05 0  0.45 0.05 0  0.46 0.05 0  0.47 0.05 0  0.48 0.05 0  0.49 0.05 0  0.5 0.05 0  0.51 0.05 0  0.52 0.05 0  0.53 0.05 0  0.54 0.05 0  0.55 0.05 0  0.5600000000000001 0.05 0  0.57 0.05 0  0.58 0.05 0  0.59 0.05 0  0.6 0.05 0  0.61 0.05 0  0.62 0.05 0  0.63 0.05 0  0.64 0.05 0  0.65 0.05 0  0.66 0.05 0  0.67 0.05 0  0.68 0.05 0  0.6899999999999999 0.05 0  0.7 0.05 0  0.71 0.05 0  0.72 0.05 0  0.73 0.05 0  0.74 0.05 0  0.75 0.05 0  0.76 0.05 0  0.77 0.05 0  0.78 0.05 0  0.79 0.05 0  0.8 0.05 0  0.8100000000000001 0.05 0  0.82 0.05 0  0.83 0.05 0  0.84 0.05 0  0.85 0.05 0  0.86 0.05 0  0.87 0.05 0  0.88 0.05 0  0.89 0.05 0  0.9 0.05 0  0.91 0.05 0  0.92 0.05 0  0.93 0.05 0  0.9399999999999999 0.05 0  0.95 0.05 0  0.96 0.05 0  0.97 0.05 0  0.98 0.05 0  0.99 0.05 0  1 0.05 0  0 0.06 0  0.01 0.06 0  0.02 0.06 0  0.03 0.06 0  0.04 0.06 0  0.05 0.06 0  0.06 0.06 0  0.07000000000000001 0.06 0  0.08 0.06 0  0.09 0.06 0  0.1 0.06 0  0.11 0.06 0  0.12 0.06 0  0.13 0.06 0  0.14 0.06 0  0.15 0.06 0  0.16 0.06 0  0.17 0.06 0  0.18 0.06 0  0.19 0.06 0  0.2 0.06 0  0.21 0.06 0  0.22 0.06 0  0.23 0.06 0  0.24 0.06 0  0.25 0.06 0  0.26 0.06 0  0.27 0.06 0  0.28 0.06 0  0.29 0.06 0  0.3 0.06 0  0.31 0.06 0  0.32 0.06 0  0.33 0.06 0  0.34 0.06 0  0.35 0.06 0  0.36 0.06 0  0.37 0.06 0  0.38 0.06 0  0.39 0.06 0  0.4 0.06 0  0.41 0.06 0  0.42 0.06 0  0.43 0.06 0  0.44 0.06 0  0.45 0.06 0  0.46 0.06 0  0.47 0.06 0  0.48 0.06 0  0.49 0.06 0  0.5 0.06 0  0.51 0.06 0  0.52 0.06 0  0.53 0.06 0  0.54 0.06 0  0.55 0.06 0  0.5600000000000001 0.06 0  0.57 0.06 0  0.58 0.06 0  0.59 0.06 0  0.6 0.06 0  0.61 0.06 0  0.62 0.06 0  0.63 0.06 0  0.64 0.06 0  0.65 0.06 0  0.66 0.06 0  0.67 0.06 0  0.68 0.06 0  0.6899999999999999 0.06 0  0.7 0.06 0  0.71 0.06 0  0.72 0.06 0  0.73 0.06 0  0.74 0.06 0  0.75 0.06 0  0.76 0.06 0  0.77 0.06 0  0.78 0.06 0  0.79 0.06 0  0.8 0.06 0  0.8100000000000001 0.06 0  0.82 0.06 0  0.83 0.06 0  0.84 0.06 0  0.85 0.06 0  0.86 0.06 0  0.87 0.06 0  0.88 0.06 0  0.89 0.06 0  0.9 0.06 0  0.91 0.06 0  0.92 0.06 0  0.93 0.06 0  0.9399999999999999 0.06 0  0.95 0.06 0  0.96 0.06 0  0.97 0.06 0  0.98 0.06 0  0.99 0.06 0  1 0.06 0  0 0.07000000000000001 0  0.01 0.07000000000000001 0  0.02 0.07000000000000001 0  0.03 0.07000000000000001 0  0.04 0.07000000000000001 0  0.05 0.07000000000000001 0  0.06 0.07000000000000001 0  0.07000000000000001 0.07000000000000001 0  0.08 0.07000000000000001 0  0.09 0.07000000000000001 0  0.1 0.07000000000000001 0  0.11 0.07000000000000001 0  0.12 0.07000000000000001 0  0.13 0.07000000000000001 0  0.14 0.07000000000000001 0  0.15 0.07000000000000001 0  0.16 0.07000000000000001 0  0.17 0.0700
[...]
<PointData  Scalars="Indicator Function"> 
<DataArray  type="Float64"  Name="Indicator Function"  format="ascii">-1.2037062152420224e-35  -6.4096574558094225e-20  2.8242487201409091e-20  2.8285904096186466e-19  3.4131589619607451e-19  -3.4222578938273002e-20  -2.9790779556263541e-20  6.5243295910554886e-19  8.9572066857663242e-19  -3.7615819226313200e-36  4.7890998693184636e-18  2.4972272300132701e-18  -3.8984553425507417e-20  -3.5518292121476296e-20  7.9716259930640310e-18  -9.0552962880991942e-21  -3.7281799435080687e-21  2.1104920996953080e-18  -3.5405782422478804e-20  -3.3101920919155616e-35  5.9008294441041193e-18  0.0000000000000000e+00  -3.8113961048152510e-20  1.2249637958064995e-17  -5.1378204367366716e-20  -2.5689102183683367e-20  -1.9271520082133210e-20  -4.5012989957906427e-20  4.1337773356139867e-17  -1.7284953563657249e-20  -8.1080846015362646e-20  -2.9166386450521774e-20  -4.7915800895188410e-20  -1.8139821008214627e-20  1.8579892199499914e-17  -9.1522536057578267e-20  -1.2343015370205801e-19  -1.4090544103681073e-19  -1.4634735998903479e-19  -1.4281715324353082e-19  8.9536370431225671e-18  -8.0227290507597717e-20  -2.5062724824241778e-20  -3.2831997959382470e-20  -2.2206877157257590e-20  -2.2108161416589431e-20  2.6977190589880470e-17  -1.4838190967874062e-20  -8.7104491207593609e-21  -2.7531652666173472e-21  -2.3074099187636406e-20  -1.1537049593818212e-20  -8.4930364333858533e-21  -1.0374298828565289e-20  -9.2807628558293808e-21  -4.8663826840479710e-21  2.8808586131308784e-19  -2.0245547607464228e-22  -1.0214634187532476e-22  -1.9322780835413608e-22  -1.6075905616919671e-22  -6.1257356837987153e-22  -1.0663267245243937e-21  -1.1787849951865511e-21  -1.1665404771330056e-21  -2.8521627107903819e-21  -2.2505809756111846e-21  -1.0672677843435549e-22  6.2592723192585165e-34  -5.2795039800344968e-23  -2.1305137520635444e-22  -2.8168171329846934e-22  -2.8782402205788969e-22  -2.9248339906023271e-22  -3.4715842127345691e-22  -3.7616722244028347e-22  -2.1695917864546992e-22  -4.1393937758815450e-22  -3.4086791594149946e-22  -4.9503231366589421e-22  -8.8763010703447533e-22  -4.2399213067061454e-20  -4.8255385780786562e-22  -2.9692212942884352e-22  -3.5556292694037829e-22  -1.0355093111297832e-22  -2.1270497254006553e-23  -1.6241823530324281e-22  -1.4999805180956938e-22  -2.7161315370288785e-23  -3.8371095435027104e-22  -2.8927405988116297e-22  -4.0127983986223712e-22  7.8802651937100837e-20  -1.0474487503903793e-22  0.0000000000000000e+00  0.0000000000000000e+00  -8.8162076311671563e-39  -2.3554080642316837e-23  -6.5594058677180140e-24  3.5264830524668625e-38  -3.4164035500038010e-20  5.4087239216450830e-04  2.2905626340570401e-04  1.4591434941648929e-04  3.5134860409697467e-04  2.7171225872394560e-04  4.8064304565428189e-04  2.9634145200752021e-04  6.9157205197107707e-04  6.9545598381692394e-05  1.7902179132609258e-05  4.3075164633706313e-04  7.3671476285432655e-04  3.3392589969411820e-04  4.7287771880540752e-04  2.4755479076216320e-04  3.9348320574170240e-05  7.6323777273200051e-04  1.3245006369387956e-04  6.3781387409854548e-04  1.9012014435071479e-04  3.1833770027972350e-04  2.2374628145641911e-04  5.7472694236808798e-04  2.2251568093124597e-04  9.2554744817535174e-04  6.9432968528606546e-04  9.0278985821901254e-04  3.5948701009552828e-04  6.2275608342722392e-04  8.1958570880835441e-04  1.0508298172025100e-03  6.5939064697447664e-04  5.3347900873967902e-04  6.0038460162806151e-05  7.9324715900212252e-04  1.2520998576385880e-03  1.5974700480561918e-03  1.7395917429633286e-03  1.7665637921714273e-03  1.6894832164330083e-03  1.3448476806818305e-03  7.7282254219893109e-04  4.5148991271737809e-04  3.6570373874412608e-04  7.9653046014082772e-04  6.0584197710880671e-04  5.3460217051015907e-04  3.1382700331585213e-04  4.0083727236480023e-05  4.9596616275309122e-05  4.1566601801339668e-04  9.1754663313257920e-05  1.0711961120993331e-04  1.3332694774926049e-04  1.0052388668227830e-04  7.1536588732755947e-05  4.3843102966236218e-05  2.4344840677521072e-05  1.4123146061438689e-05  9.2022674188324624e-06  8.2183300428030678e-06  1.1631998728657893e-05  2.1223293095338137e-05  1.0623456112619275e-05  2.7709003201647032e-05  3.7525494085238832e-05  2.1780115529899200e-05  1.0426050387154982e-05  3.2911416760347636e-06  9.5107088628737397e-07  3.3624569328167507e-06  4.1017478706427500e-06  4.7515202740910685e-06  4.5172825255093302e-06  5.2106141182402036e-06  4.5598613029266707e-06  6.7595726177418024e-06  5.2761176178320718e-06  3.9772621175798810e-06  1.1893958775554671e-05  1.0197708282432902e-05  1.3781593608311137e-05  1.8021206926832233e-06  5.3488735658151763e-06  3.7308154781942157e-06  7.6635042805703745e-07  1.8077949194220756e-06  4.4689081316358063e-06  4.6767061512560436e-07  2.4844733715567583e-06  5.6700853583410533e-06  2.3760555139844965e-06  6.6175034492243298e-06  3.5190070369049033e-06  1.3992163768385351e-06  3.6602048469365947e-07  1.8251163230456102e-07  3.7597018528431464e-07  2.3632750257301346e-07  6.5594058677180140e-24  -1.3170249090353137e-20  6.1544455018977399e-04  1.5821567844411571e-04  9.7520664607097127e-05  1.0645000147553084e-05  3.5089431381805664e-04  5.2662312968996606e-04  6.4345427650544019e-04  7.6585839564501026e-04  4.1010637960049488e-05  2.3822571752959076e-04  4.5899995260511174e-04  6.2207878759691236e-04  9.9247439561525900e-04  8.8752830826200832e-04  5.9922408876726186e-04  1.2249526742040798e-03  3.2622216396369743e-05  5.1061278643216366e-04  9.4917243575787854e-04  4.5263504065908803e-04  1.5884444380133156e-03  1.0339476353513066e-03  1.7167498207197633e-03  9.7632068144612005e-04  1.2316185661074858e-03  6.5099108227410799e-06  3.3911092319932612e-04  1.7145845984755843e-03  1.2186054388571611e-03  7.8055131348531780e-05  1.7040014861458798e-03  1.4413006543510164e-04  1.1743396632669647e-03  6.4749051886213134e-04  1.0052021210008981e-03  1.5565691761845956e-03  2.0743549919178162e-03  2.4064090404965367e-03  2.5084804319543187e-03  2.4408031576239075e-03  2.2339232439853628e-03  1.6629005667356002e-03  2.7907444065772486e-04  1.0683189053194938e-03  9.2855740938266079e-04  8.5181778269257671e-04  1.2307400087400602e-03  1.0301343275258526e-03  3.1279504919748624e-04  3.8443700807489850e-04  6.2737168377867880e-04  2.6234898233042873e-04  3.2051482969734765e-04  1.3893135576272466e-04  1.4276119392019689e-04  9.5244846831157265e-05  8.1312527950525484e-05  4.5796656278777734e-05  2.6741754706908713e-05  1.6502606472166455e-05  1.2015088484497125e-05  1.5095172328732978e-05  2.0131874774099895e-05  2.8536275937034126e-05  2.0338012611152103e-05  5.3039067217818834e-05  3.5106398786315370e-05  1.8512901901224424e-05  1.0302295327241424e-05  1.6768659500424750e-06  2.2097652808547302e-06  3.8134481770353314e-06  5.3559230700420381e-06  5.8371771385258978e-06  7.1878731857183007e-06  6.5798609227972873e-06  6.1318283867678207e-06  8.6190137770313464e-06  8.0373037773916415e-06  1.0173585276800641e-05  1.4568152677591015e-05  1.5413687064547372e-05  1.5601390281776208e-05  1.1832692992951563e-05  4.8896846218505439e-06  1.4075816590966809e-06  2.6685556841190546e-06  6.9868108826602004e-06  5.3922353567629918e-06  3.9092702260347353e-06  5.4665448031546768e-06  4.3411091115609920e-06  5.9578240726597252e-06  6.7265633412049786e-06  2.3981457396712672e-06  1.2796112305394156e-06  4.4134918078513549e-07  5.3022033568198486e-08  4.0260266292681253e-07  3.7541432923305184e-23  -2.3594127500893012e-20  2.3725411558276480e-04  4.5361528663146074e-04  7.1728140172203639e-05  5.0480436648163375e-04  7.2514767722270314e-04  6.3662309324053065e-04  8.4675883148389636e-04  2.1355394984397532e-04  1.3339757204232988e-03  4.9283685458519858e-04  5.4501083181277703e-06  1.0482681009301913e-03  1.2156748465424086e-03  2.1491140902251923e-04  1.0534540832818822e-03  2.3914939444846935e-04  3.7940564904401664e-04  1.4886071226543319e-03  8.0468199669665459e-04  1.7434647685941275e-03  4.7098317247399441e-04  1.1430967357827543e-03  3.4902012649010936e-04  1.6889314270999102e-03  1.4463435190101047e-03  2.4379164441390116e-03  2.0479454213845330e-03  1.9459111485355971e-03  8.0223888319067309e-04  2.1188661280234669e-03  1.8860545993955803e-03  2.0890831891533742e-03  2.1711898570993186e-03  9.9028736822368056e-04  1.3579534078403353e-04  1.8894270767315891e-03  2.1633532587025024e-03  2.6360195696098756e-03  2.8546807632233205e-03  2.8994424637278186e-03  2.7318396610882573e-03  2.0603832977380112e-03  1.1999530894085180e-03  1.3186869170132333e-03  7.0668978564599686e-04  2.3031502777664538e-03  1.4014745606481217e-03  8.5928148641731923e-04  5.4430345028230417e-04  2.6362431079500519e-04  2.7413429466278174e-04  1.0508237857852849e-03  4.0908939492312411e-04  2.7697317996906224e-04  1.3326503831046635e-04  8.5666333329676851e-05  8.0538787889718739e-05  6.8342519114099299e-05  3.9903320820931149e-05  2.5188555248178056e-05  1.7714969834568160e-05  1.3995930745206847e-05  1.8929920319442458e-05  3.3214979068059052e-05  9.7025536585818899e-06  6.0566426036202860e-05  5.1520780025574867e-05  1.7754013183861995e-05  1.3123635713860779e-05  7.7090997106437014e-06  3.6356812140184061e-07  4.3509318031767355e-06  5.0381151195876710e-06  6.7673702624401239e-06  6.0557284056566410e-06  8.3455941955462079e-06  6.3306415905048735e-06  1.0186360416518765e-05  7.5681936544587936e-06  6.1211562770820653e-06  2.0084606054214581e-05  1.4151957856652924e-05  2.1221270969222530e-05  7.5085942745756834e-07  1.6637935363299415e-05  9.2906734189880448e-07  5.6758750684983247e-06  2.4333115655140270e-06  1.0978525586236758e-05  2.9163008732193824e-07  6.4108434064935574e-06  8.3334785039681768e-06  3.3170925236922445e-07  9.4273269739419657e-06  4.0935367075695840e-06  6.3393397253253456e-07  3.7080615202033054e-08  7.4216897270845482e-07  1.2326795916970564e-07  -1.7106865808595010e-23  -1.8855016882126442e-20  4.2503401528461561e-04  5.8819796580505534e-04  1.9246579894729178e-05  1.5249359854545481e-04  4.7728247029578164e-04  7.0045626340866642e-04  1.1473107352990277e-03  1.0397794735711179e-03  6.6023598007841893e-04  1.8392710307451387e-04  9.1476239993679555e-05  4.0580283927763960e-04  9.6010816202517875e-04  1.5131408470277737e-03  6.6068687225296859e-04  8.8347731430349200e-04  1.7381851871378497e-03  3.8844370079587975e-04  1.2078249075795208e-03  6.2653278114607768e-04  3.7241596676377913e-04  2.0627004851106285e-03  1.6270345844821509e-03  2.4349344467122776e-03  1.2516364204946443e-03  1.2712821047261417e-03  5.6855917802047006e-04  1.4849768628139809e-03  3.2424719192350893e-03  1.9193742146645853e-03  7.5996704806866890e-04  3.1539249393408748e-03  4.2746720116111002e-04  2.6401098507323317e-03  7.9976341558765293e-04  1.7086158486386423e-03  2.3615321962336816e-03  2.6966015293186326e-03  3.0617808399152359e-03  3.1674235107371431e-03  3.0862665961813845e-03  2.8286768802126862e-03  1.9389487916333130e-03  6.4845970876773644e-04  1.9209684023233772e-03  1.5130341221355006e-03  1.9716994851975240e-03  2.7627996038107447e-03  2.1890483783942286e-03  9.6368301333577650e-04  3.6621738225482269e-04  8.8252144370797362e-04  5.6541755706185370e-04  7.5771774000579350e-04  1.7656374845753076e-04  1.0115147053765423e-04  4.3262001197169168e-05  7.5039242965255456e-05  5.1135423609819014e-05  3.2087482916667754e-05  2.0512036302351011e-05  1.5651523155849519e-05  1.9442401243649313e-05  2.3774405957296130e-05  4.1510575421008050e-05  3.5938857660153550e-05  7.7232440256775055e-05  2.9057156326020169e-05  7.4546841732459767e-06  1.0100586745447191e-05  2.9780288087998520e-06  1.9416060007163505e-06  4.7384144535182648e-06  6.0892773047699683e-06  7.0969588446586200e-06  8.5747955827373522e-06  7.8329714932228434e-06  6.9041334699368166e-06  1.1559296498414790e-05  8.1031439377580462e-06  1.1267420629240041e-05  1.9528485005775664e-05  1.7356198311135923e-05  2.2801817002643013e-05  2.3628398689529986e-05  7.7416951253183030e-06  3.9824649284073469e-06  8.8005578177237243e-06  1.0283033382789257e-05  8.8056817275937554e-06  8.0085334281985329e-06  9.0581041624705008e-06  5.0977074230702960e-06  3.4493459202198566e-06  8.3429749891488485e-06  1.1886487318086568e-06  1.9044310552723377e-07  1.0917763975246775e-06  4.6630937410290085e-07  1.1648416583870680e-22  -2.1898077513358002e-20  3.3966178801763574e-04  5.8070804193016267e-04  9.3733436453010365e-04  1.2565968408374836e-04  5.2942871362867999e-04  6.8411632232396908e-04  6.5054811797736088e-04  1.2900698796995515e-03  4.0568648018617044e-04  1.6697699260070380e-03  9.1151833285772754e-04  5.8325295224679021e-05  1.3709228310606182e-03  1.3888455908278503e-03  3.4572332022468047e-04  1.2858279635020444e-03  9.8401098788846678e-04  1.0860350651251249e-03  1.4142589681562061e-03  9.1041100643848361e-04  2.2702431786007066e-03  1.1406119688069378e-03  2.0506002412312564e-03  1.2019145653059361e-03  2.7795337795676338e-03  2.5046512973150355e-03  3.5093630712157995e-03  2.6972871326012555e-03  2.0424116916593267e-03  1.7142961322502101e-03  3.4950711751664163e-03  2.3317807628899651e-03  3.4244777159953750e-03  2.9620622615622546e-03  1.8080539609201132e-03  2.2519201817678105e-04  2.8301084115879786e-03  2.7967155166476474e-03  3.1910252246005978e-03  3.4123665315428618e-03  3.4481173636603120e-03  3.2360803095124176e-03  2.4421729430679842e-03  1.3850792367533773e-03  2.1505175938066759e-03  1.2801444110098210e-03  3.5649359233944100e-03  1.3946276860315123e-03  1.5744124129736119e-04  3.1127803029764899e-05  6.0338375496783187e-05  5.4432611302942223e-04  1.5663899614723922e-03  4.7101863878023240e-04  5.8284685548167935e-04  1.1538600252232046e-04  3.9966833603189504e-05  4.3513741716159854e-05  6.7777330062053533e-05  4.0604568179255367e-05  2.6202538043519556e-05  1.8709343709794401e-05  1.3656087314470152e-05  2.1474536771100551e-05  3.7801689379337448e-05  1.8603927363364168e-05  8.3631451301820160e-05  6.1190631044399964e-05  6.5920323588733177e-06  5.5950471725721795e-06  6.6997003277642698e-06  6.5158565388134933e-08  4.9484528692472093e-06  6.1444651113438890e-06  8.5240811404420216e-06  6.7398916935393498e-06  1.0354793682039864e-05  7.0353435900643882e-06  1.1342590180282587e-05  1.0057067897737251e-05  6.5990451013272866e-06  2.1649453521751409e-05  1.6025892732589235e-05  2.3330585049749700e-05  7.1666425603822731e-06  3.1591337585109169e-05  2.4379948619459423e-06  1.1623876928837572e-05  3.0482430567525043e-06  1.5421520033528294e-05  4.7297534393742114e-07  1.1466172615996073e-05  1.1302211056438762e-05  9.0708993963348556e-07  8.8050780686891641e-06  5.5985622040487677e-06  3.6012059420518268e-07  4.2260783518943256e-08  8.8719604510997664e-07  -4.9249273831873713e-23  -1.1269635158746124e-20  3.9448069491715751e-04  6.3727633806048454e-04  5.3655288659256069e-04  6.0927586469382842e-04  2.4247840901185918e-04  5.7649153930098770e-04  1.0605349217855731e-03  1.4968308014067580e-03  1.3481994510964183e-03  5.8903398109193576e-04  5.2372697706557099e-04  3.0592993765253426e-04  3.6880401652527006e-04  1.4332661093747615e-03  1.8513099710096631e-03  4.1952715052647637e-04  7.4023553481381108e-04  1.4303956135648236e-03  1.9067303989095573e-04  1.6490513823343631e-03  1.5130322363692109e-04  1.6262177989798349e-04  1.7150670515275318e-03  1.4231445772010039e-03  2.3180666111187994e-03  8.0451152731194492e-04  6.9325411852922520e-04  1.4455035010156698e-03  2.4546715232989869e-03  4.3293284260107175e-03  2.0171433202055590e-03  1.8654359130487038e-03  4.3236408722272766e-03  1.0120559915588355e-03  3.9784683455722008e-03  1.1207298751583217e-03  2.1210646004105678e-03  3.2987274922593309e-03  3.3096680353571096e-03  3.6403813757503612e-03  3.7388537424673956e-03  3.6489222013219597e-03  3.3199724149512075e-03  2.1301460997151665e-03  8.2458378387838152e-04  2.9200160632653666e-03  1.7625840814729341e-03  3.2075422923243837e-03  3.5815723060695971e-03  2.4697459780668907e-03  1.1541346274710966e-03  2.6437588253136533e-04  8.0549342344965621e-04  9.8739615859665011e-04  1.0476455557489191e-03  3.0527434376429889e-04  5.0199018207603826e-05  9.4873142427589512e-06  5.5820499682805100e-05  5.6261876177802284e-05  3.5366775471806066e-05  2.2449163017013176e-05  1.6127084935467242e-05  1.7148002729556899e-05  2.3605566121290497e-05  5.0451755817196714e-05  4.2723903748339115e-05  1.0185899363847427e-04  2.5504518445410339e-05  2.4371664583726968e-06  7.3269594879258820e-06  2.8492439916655610e-06  1.8872801428756435e-06  5.7489711274386228e-06  6.4440274502376333e-06  8.7529491938904372e-06  8.9201467804060272e-06  9.8445006610420917e-06  7.5792367704981210e-06  1.3602965522787991e-05  8.7601869144105909e-06  1.3134191560499842e-05  2.1141427524594126e-05  1.8743937320113978e-05  2.3645016700082667e-05  1.8327303958057968e-05  2.0323167295909302e-05  1.0235439484189883e-05  1.4807422095021052e-05  8.3604231867284844e-06  1.2813780820505826e-05  1.1027450896315290e-05  1.4075552126225014e-05  5.9067894501786498e-06  4.9845198554346541e-06  9.5493432797881499e-06  2.2484884452292186e-06  8.8198504071537261e-07  2.3106101097690080e-07  -1.2826462723985930e-23  -2.0355269529732775e-20  2.0301569880612196e-04  5.0818887456154560e-04  8.4117674979578927e-04  8.8143251123243326e-04  5.9484667406380062e-05  6.6933430286972566e-04  4.4002833963350412e-04  3.6442688443481358e-04  1.7096901141573462e-03  6.4183189076343701e-04  1.6372580465504865e-03  8.9933281967923332e-04  9.1271959740126809e-05  1.4460378735133813e-03  1.7149571929732745e-03  6.4938770822975823e-04  1.1069162996008340e-03  1.1646201806883129e-03  1.3599569393491669e-03  1.2382299543306412e-03  4.7548468759274829e-04  2.0467574053329423e-03  9.5058729361796124e-04  2.2765205190350881e-03  1.4144763526906981e-03  3.1509779490763545e-03  2.6888434539049030e-03  3.6654063971882449e-03  2.5527519962926745e-03  1.6283701896653909e-03  2.7030303951696131e-03  4.2706369850175393e-03  2.2946198990565366e-03  4.8683167846758756e-03  3.3005530702816415e-03  3.0547413957801007e-03  2.8619276636113292e-04  3.5720221796908176e-03  3.6573161069939492e-03  3.8594074723817848e-03  4.0538310702943978e-03  4.0733297081273021e-03  3.8218229936818316e-03  2.8701397769709722e-03  1.4426476610851779e-03  2.7422246487694250e-03  2.0092207048121400e-03  4.3962917177066000e-03  9.7527048449339189e-04  6.7701988848162655e-04  7.0705594742324007e-04  4.1139185358338707e-04  4.7503962547805001e-04  1.7871442512145638e-03  2.8675192430564696e-04  9.4856100764677969e-04  1.3281519905325044e-04  1.9450695054619818e-05  1.0327071225258948e-05  5.8521000541192915e-05  4.4234856973391342e-05  2.8418538469627551e-05  2.1113023311380450e-05  1.5489455057495927e-05  2.2217507242297282e-05  3.7808107277474482e-05  2.7730941119163480e-05  1.0429835208659670e-04  7.8703454441798477e-05  1.3164083063334971e-06  1.2227113683353538e-06  7.0467468488570630e-06  8.5755664868308578e-08  3.3831644526936004e-06  5.9570771564376889e-06  8.0819187985514331e-06  7.2921917843084014e-06  9.6182443266041553e-06  7.8816551316242966e-06  1.1258693072027969e-05  1.2703807595959752e-05  6.5957385817753692e-06  2.2281197084772461e-05  1.7341409413746305e-05  2.4631970573098879e-05  7.6766715209176320e-06  3.2034966408929829e-05  3.9007268953669555e-06  1.6335567343228233e-05  9.7550902951779227e-06  1.6612325391979162e-05  1.6188480262173933e-06  1.6094927294237428e-05  1.5068771965046036e-05  2.1581781360067371e-06  9.3818285698632234e-06  7.5004610577680870e-06  1.0713288337095450e-06  8.7305426713560422e-07  5.0185167237957935e-23  -1.2827620784642382e-20  3.6668793707652335e-04  6.1819147087875160e-04  6.8651604742465825e-04  6.5276526370331084e-04  9.6681392001728801e-04  1.2247852096271367e-04  4.7453452946427828e-04  9.8269651807650306e-04  1.5461215224668876e-03  1.7238905395434187e-03  7.4675436359074863e-04  5.5102261776301801e-04  5.6353408501433366e-04  3.8398587553704173e-04  1.7351868744367933e-03  2.0913854904443434e-0