<?xml version="1.0"?>
<VTKFile type="UnstructuredGrid"  version="0.1"  >
<UnstructuredGrid>
<Piece  NumberOfPoints="10201" NumberOfCells="20000">
<Points>
<DataArray  type="Float64"  NumberOfComponents="3"  format="ascii">0 0 0  0.01 0 0  0.02 0 0  0.03 0 0  0.04 0 0  0.05 0 0  0.06 0 0  0.07000000000000001 0 0  0.08 0 0  0.09 0 0  0.1 0 0  0.11 0 0  0.12 0 0  0.13 0 0  0.14 0 0  0.15 0 0  0.16 0 0  0.17 0 0  0.18 0 0  0.19 0 0  0.2 0 0  0.21 0 0  0.22 0 0  0.23 0 0  0.24 0 0  0.25 0 0  0.26 0 0  0.27 0 0  0.28 0 0  0.29 0 0  0.3 0 0  0.31 0 0  0.32 0 0  0.33 0 0  0.34 0 0  0.35 0 0  0.36 0 0  0.37 0 0  0.38 0 0  0.39 0 0  0.4 0 0  0.41 0 0  0.42 0 0  0.43 0 0  0.44 0 0  0.45 0 0  0.46 0 0  0.47 0 0  0.48 0 0  0.49 0 0  0.5 0 0  0.51 0 0  0.52 0 0  0.53 0 0  0.54 0 0  0.55 0 0  0.5600000000000001 0 0  0.57 0 0  0.58 0 0  0.59 0 0  0.6 0 0  0.61 0 0  0.62 0 0  0.63 0 0  0.64 0 0  0.65 0 0  0.66 0 0  0.67 0 0  0.68 0 0  0.6899999999999999 0 0  0.7 0 0  0.71 0 0  0.72 0 0  0.73 0 0  0.74 0 0  0.75 0 0  0.76 0 0  0.77 0 0  0.78 0 0  0.79 0 0  0.8 0 0  0.8100000000000001 0 0  0.82 0 0  0.83 0 0  0.84 0 0  0.85 0 0  0.86 0 0  0.87 0 0  0.88 0 0  0.89 0 0  0.9 0 0  0.91 0 0  0.92 0 0  0.93 0 0  0.9399999999999999 0 0  0.95 0 0  0.96 0 0  0.97 0 0  0.98 0 0  0.99 0 0  1 0 0  0 0.01 0  0.01 0.01 0  0.02 0.01 0  0.03 0.01 0  0.04 0.01 0  0.05 0.01 0  0.06 0.01 0  0.07000000000000001 0.01 0  0.08 0.01 0  0.09 0.01 0  0.1 0.01 0  0.11 0.01 0  0.12 0.01 0  0.13 0.01 0  0.14 0.01 0  0.15 0.01 0  0.16 0.01 0  0.17 0.01 0  0.18 0.01 0  0.19 0.01 0  0.2 0.01 0  0.21 0.01 0  0.22 0.01 0  0.23 0.01 0  0.24 0.01 0  0.25 0.01 0  0.26 0.01 0  0.27 0.01 0  0.28 0.01 0  0.29 0.01 0  0.3 0.01 0  0.31 0.01 0  0.32 0.01 0  0.33 0.01 0  0.34 0.01 0  0.35 0.01 0  0.36 0.01 0  0.37 0.01 0  0.38 0.01 0  0.39 0.01 0  0.4 0.01 0  0.41 0.01 0  0.42 0.01 0  0.43 0.01 0  0.44 0.01 0  0.45 0.01 0  0.46 0.01 0  0.47 0.01 0  0.48 0.01 0  0.49 0.01 0  0.5 0.01 0  0.51 0.01 0  0.52 0.01 0  0.53 0.01 0  0.54 0.01 0  0.55 0.01 0  0.5600000000000001 0.01 0  0.57 0.01 0  0.58 0.01 0  0.59 0.01 0  0.6 0.01 0  0.61 0.01 0  0.62 0.01 0  0.63 0.01 0  0.64 0.01 0  0.65 0.01 0  0.66 0.01 0  0.67 0.01 0  0.68 0.01 0  0.6899999999999999 0.01 0  0.7 0.01 0  0.71 0.01 0  0.72 0.01 0  0.73 0.01 0  0.74 0.01 0  0.75 0.01 0  0.76 0.01 0  0.77 0.01 0  0.78 0.01 0  0.79 0.01 0  0.8 0.01 0  0.8100000000000001 0.01 0  0.82 0.01 0  0.83 0.01 0  0.84 0.01 0  0.85 0.01 0  0.86 0.01 0  0.87 0.01 0  0.88 0.01 0  0.89 0.01 0  0.9 0.01 0  0.91 0.01 0  0.92 0.01 0  0.93 0.01 0  0.9399999999999999 0.01 0  0.95 0.01 0  0.96 0.01 0  0.97 0.01 0  0.98 0.01 0  0.99 0.01 0  1 0.01 0  0 0.02 0  0.01 0.02 0  0.02 0.02 0  0.03 0.02 0  0.04 0.02 0  0.05 0.02 0  0.06 0.02 0  0.07000000000000001 0.02 0  0.08 0.02 0  0.09 0.02 0  0.1 0.02 0  0.11 0.02 0  0.12 0.02 0  0.13 0.02 0  0.14 0.02 0  0.15 0.02 0  0.16 0.02 0  0.17 0.02 0  0.18 0.02 0  0.19 0.02 0  0.2 0.02 0  0.21 0.02 0  0.22 0.02 0  0.23 0.02 0  0.24 0.02 0  0.25 0.02 0  0.26 0.02 0  0.27 0.02 0  0.28 0.02 0  0.29 0.02 0  0.3 0.02 0  0.31 0.02 0  0.32 0.02 0  0.33 0.02 0  0.34 0.02 0  0.35 0.02 0  0.36 0.02 0  0.37 0.02 0  0.38 0.02 0  0.39 0.02 0  0.4 0.02 0  0.41 0.02 0  0.42 0.02 0  0.43 0.02 0  0.44 0.02 0  0.45 0.02 0  0.46 0.02 0  0.47 0.02 0  0.48 0.02 0  0.49 0.02 0  0.5 0.02 0  0.51 0.02 0  0.52 0.02 0  0.53 0.02 0  0.54 0.02 0  0.55 0.02 0  0.5600000000000001 0.02 0  0.57 0.02 0  0.58 0.02 0  0.59 0.02 0  0.6 0.02 0  0.61 0.02 0  0.62 0.02 0  0.63 0.02 0  0.64 0.02 0  0.65 0.02 0  0.66 0.02 0  0.67 0.02 0  0.68 0.02 0  0.6899999999999999 0.02 0  0.7 0.02 0  0.71 0.02 0  0.72 0.02 0  0.73 0.02 0  0.74 0.02 0  0.75 0.02 0  0.76 0.02 0  0.77 0.02 0  0.78 0.02 0  0.79 0.02 0  0.8 0.02 0  0.8100000000000001 0.02 0  0.82 0.02 0  0.83 0.02 0  0.84 0.02 0  0.85 0.02 0  0.86 0.02 0  0.87 0.02 0  0.88 0.02 0  0.89 0.02 0  0.9 0.02 0  0.91 0.02 0  0.92 0.02 0  0.93 0.02 0  0.9399999999999999 0.02 0  0.95 0.02 0  0.96 0.02 0  0.97 0.02 0  0.98 0.02 0  0.99 0.02 0  1 0.02 0  0 0.03 0  0.01 0.03 0  0.02 0.03 0  0.03 0.03 0  0.04 0.03 0  0.05 0.03 0  0.06 0.03 0  0.07000000000000001 0.03 0  0.08 0.03 0  0.09 0.03 0  0.1 0.03 0  0.11 0.03 0  0.12 0.03 0  0.13 0.03 0  0.14 0.03 0  0.15 0.03 0  0.16 0.03 0  0.17 0.03 0  0.18 0.03 0  0.19 0.03 0  0.2 0.03 0  0.21 0.03 0  0.22 0.03 0  0.23 0.03 0  0.24 0.03 0  0.25 0.03 0  0.26 0.03 0  0.27 0.03 0  0.28 0.03 0  0.29 0.03 0  0.3 0.03 0  0.31 0.03 0  0.32 0.03 0  0.33 0.03 0  0.34 0.03 0  0.35 0.03 0  0.36 0.03 0  0.37 0.03 0  0.38 0.03 0  0.39 0.03 0  0.4 0.03 0  0.41 0.03 0  0.42 0.03 0  0.43 0.03 0  0.44 0.03 0  0.45 0.03 0  0.46 0.03 0  0.47 0.03 0  0.48 0.03 0  0.49 0.03 0  0.5 0.03 0  0.51 0.03 0  0.52 0.03 0  0.53 0.03 0  0.54 0.03 0  0.55 0.03 0  0.5600000000000001 0.03 0  0.57 0.03 0  0.58 0.03 0  0.59 0.03 0  0.6 0.03 0  0.61 0.03 0  0.62 0.03 0  0.63 0.03 0  0.64 0.03 0  0.65 0.03 0  0.66 0.03 0  0.67 0.03 0  0.68 0.03 0  0.6899999999999999 0.03 0  0.7 0.03 0  0.71 0.03 0  0.72 0.03 0  0.73 0.03 0  0.74 0.03 0  0.75 0.03 0  0.76 0.03 0  0.77 0.03 0  0.78 0.03 0  0.79 0.03 0  0.8 0.03 0  0.8100000000000001 0.03 0  0.82 0.03 0  0.83 0.03 0  0.84 0.03 0  0.85 0.03 0  0.86 0.03 0  0.87 0.03 0  0.88 0.03 0  0.89 0.03 0  0.9 0.03 0  0.91 0.03 0  0.92 0.03 0  0.93 0.03 0  0.9399999999999999 0.03 0  0.95 0.03 0  0.96 0.03 0  0.97 0.03 0  0.98 0.03 0  0.99 0.03 0  1 0.03 0  0 0.04 0  0.01 0.04 0  0.02 0.04 0  0.03 0.04 0  0.04 0.04 0  0.05 0.04 0  0.06 0.04 0  0.07000000000000001 0.04 0  0.08 0.04 0  0.09 0.04 0  0.1 0.04 0  0.11 0.04 0  0.12 0.04 0  0.13 0.04 0  0.14 0.04 0  0.15 0.04 0  0.16 0.04 0  0.17 0.04 0  0.18 0.04 0  0.19 0.04 0  0.2 0.04 0  0.21 0.04 0  0.22 0.04 0  0.23 0.04 0  0.24 0.04 0  0.25 0.04 0  0.26 0.04 0  0.27 0.04 0  0.28 0.04 0  0.29 0.04 0  0.3 0.04 0  0.31 0.04 0  0.32 0.04 0  0.33 0.04 0  0.34 0.04 0  0.35 0.04 0  0.36 0.04 0  0.37 0.04 0  0.38 0.04 0  0.39 0.04 0  0.4 0.04 0  0.41 0.04 0  0.42 0.04 0  0.43 0.04 0  0.44 0.04 0  0.45 0.04 0  0.46 0.04 0  0.47 0.04 0  0.48 0.04 0  0.49 0.04 0  0.5 0.04 0  0.51 0.04 0  0.52 0.04 0  0.53 0.04 0  0.54 0.04 0  0.55 0.04 0  0.5600000000000001 0.04 0  0.57 0.04 0  0.58 0.04 0  0.59 0.04 0  0.6 0.04 0  0.61 0.04 0  0.62 0.04 0  0.63 0.04 0  0.64 0.04 0  0.65 0.04 0  0.66 0.04 0  0.67 0.04 0  0.68 0.04 0  0.6899999999999999 0.04 0  0.7 0.04 0  0.71 0.04 0  0.72 0.04 0  0.73 0.04 0  0.74 0.04 0  0.75 0.04 0  0.76 0.04 0  0.77 0.04 0  0.78 0.04 0  0.79 0.04 0  0.8 0.04 0  0.8100000000000001 0.04 0  0.82 0.04 0  0.83 0.04 0  0.84 0.04 0  0.85 0.04 0  0.86 0.04 0  0.87 0.04 0  0.88 0.04 0  0.89 0.04 0  0.9 0.04 0  0.91 0.04 0  0.92 0.04 0  0.93 0.04 0  0.9399999999999999 0.04 0  0.95 0.04 0  0.96 0.04 0  0.97 0.04 0  0.98 0.04 0  0.99 0.04 0  1 0.04 0  0 0.05 0  0.01 0.05 0  0.02 0.05 0  0.03 0.05 0  0.04 0.05 0  0.05 0.05 0  0.06 0.05 0  0.07000000000000001 0.05 0  0.08 0.05 0  0.09 0.05 0  0.1 0.05 0  0.11 0.05 0  0.12 0.05 0  0.13 0.05 0  0.14 0.05 0  0.15 0.05 0  0.16 0.05 0  0.17 0.05 0  0.18 0.05 0  0.19 0.05 0  0.2 0.05 0  0.21 0.05 0  0.22 0.05 0  0.23 0.05 0  0.24 0.05 0  0.25 0.05 0  0.26 0.05 0  0.27 0.05 0  0.28 0.05 0  0.29 0.05 0  0.3 0.05 0  0.31 0.05 0  0.32 0.05 0  0.33 0.05 0  0.34 0.05 0  0.35 0.05 0  0.36 0.05 0  0.37 0.05 0  0.38 0.05 0  0.39 0.05 0  0.4 0.05 0  0.41 0.05 0  0.42 0.05 0  0.43 0.05 0  0.44 0.05 0  0.45 0.05 0  0.46 0.05 0  0.47 0.05 0  0.48 0.05 0  0.49 0.05 0  0.5 0.05 0  0.51 0.05 0  0.52 0.05 0  0.53 0.05 0  0.54 0.05 0  0.55 0.05 0  0.5600000000000001 0.05 0  0.57 0.05 0  0.58 0.05 0  0.59 0.05 0  0.6 0.05 0  0.61 0.05 0  0.62 0.05 0  0.63 0.05 0  0.64 0.05 0  0.65 0.05 0  0.66 0.05 0  0.67 0.05 0  0.68 0.05 0  0.6899999999999999 0.05 0  0.7 0.05 0  0.71 0.05 0  0.72 0.05 0  0.73 0.05 0  0.74 0.05 0  0.75 0.05 0  0.76 0.05 0  0.77 0.05 0  0.78 0.05 0  0.79 0.05 0  0.8 0.05 0  0.8100000000000001 0.05 0  0.82 0.05 0  0.83 0.05 0  0.84 0.05 0  0.85 0.05 0  0.86 0.05 0  0.87 0.05 0  0.88 0.05 0  0.89 0.05 0  0.9 0.05 0  0.91 0.05 0  0.92 0.05 0  0.93 0.05 0  0.9399999999999999 0.05 0  0.95 0.05 0  0.96 0.05 0  0.97 0.05 0  0.98 0.05 0  0.99 0.05 0  1 0.05 0  0 0.06 0  0.01 0.06 0  0.02 0.06 0  0.03 0.06 0  0.04 0.06 0  0.05 0.06 0  0.06 0.06 0  0.07000000000000001 0.06 0  0.08 0.06 0  0.09 0.06 0  0.1 0.06 0  0.11 0.06 0  0.12 0.06 0  0.13 0.06 0  0.14 0.06 0  0.15 0.06 0  0.16 0.06 0  0.17 0.06 0  0.18 0.06 0  0.19 0.06 0  0.2 0.06 0  0.21 0.06 0  0.22 0.06 0  0.23 0.06 0  0.24 0.06 0  0.25 0.06 0  0.26 0.06 0  0.27 0.06 0  0.28 0.06 0  0.29 0.06 0  0.3 0.06 0  0.31 0.06 0  0.32 0.06 0  0.33 0.06 0  0.34 0.06 0  0.35 0.06 0  0.36 0.06 0  0.37 0.06 0  0.38 0.06 0  0.39 0.06 0  0.4 0.06 0  0.41 0.06 0  0.42 0.06 0  0.43 0.06 0  0.44 0.06 0  0.45 0.06 0  0.46 0.06 0  0.47 0.06 0  0.48 0.06 0  0.49 0.06 0  0.5 0.06 0  0.51 0.06 0  0.52 0.06 0  0.53 0.06 0  0.54 0.06 0  0.55 0.06 0  0.5600000000000001 0.06 0  0.57 0.06 0  0.58 0.06 0  0.59 0.06 0  0.6 0.06 0  0.61 0.06 0  0.62 0.06 0  0.63 0.06 0  0.64 0.06 0  0.65 0.06 0  0.66 0.06 0  0.67 0.06 0  0.68 0.06 0  0.6899999999999999 0.06 0  0.7 0.06 0  0.71 0.06 0  0.72 0.06 0  0.73 0.06 0  0.74 0.06 0  0.75 0.06 0  0.76 0.06 0  0.77 0.06 0  0.78 0.06 0  0.79 0.06 0  0.8 0.06 0  0.8100000000000001 0.06 0  0.82 0.06 0  0.83 0.06 0  0.84 0.06 0  0.85 0.06 0  0.86 0.06 0  0.87 0.06 0  0.88 0.06 0  0.89 0.06 0  0.9 0.06 0  0.91 0.06 0  0.92 0.06 0  0.93 0.06 0  0.9399999999999999 0.06 0  0.95 0.06 0  0.96 0.06 0  0.97 0.06 0  0.98 0.06 0  0.99 0.06 0  1 0.06 0  0 0.07000000000000001 0  0.01 0.07000000000000001 0  0.02 0.07000000000000001 0  0.03 0.07000000000000001 0  0.04 0.07000000000000001 0  0.05 0.07000000000000001 0  0.06 0.07000000000000001 0  0.07000000000000001 0.07000000000000001 0  0.08 0.07000000000000001 0  0.09 0.07000000000000001 0  0.1 0.07000000000000001 0  0.11 0.07000000000000001 0  0.12 0.07000000000000001 0  0.13 0.07000000000000001 0  0.14 0.07000000000000001 0  0.15 0.07000000000000001 0  0.16 0.07000000000000001 0  0.17 0.0700
[...]
<PointData  Scalars="Indicator Function"> 
<DataArray  type="Float64"  Name="Indicator Function"  format="ascii">-1.2037062152420224e-35  -5.2042701304798957e-20  -5.8236508125415189e-21  -2.7521383347460043e-20  3.1977815070769973e-19  -2.9925608140507654e-20  -2.4662740704043658e-20  6.6485562093841820e-19  8.1943799377050524e-19  -2.3725773658071585e-21  3.9807389659332068e-18  9.9560093871719441e-19  -2.9522409399959110e-20  -3.1947976992346687e-20  8.1124947654080432e-18  -8.1034914658713947e-21  2.5014519785498278e-34  1.9299024465656318e-18  -3.4217953000690348e-20  -3.0092655381050560e-36  6.9635472856733952e-18  0.0000000000000000e+00  -3.5501717641793587e-20  9.5983380957505707e-18  -4.1852646719562858e-20  -2.3349083414293725e-20  -1.7686570557676268e-20  -4.1522093594871807e-20  4.0791464423179151e-17  -1.6395980803529097e-20  -7.0300604023296145e-20  -2.5859530009411603e-20  -4.3502659188032639e-20  -2.8133290830132868e-20  1.4387950560934736e-18  -7.3702388588027559e-20  -1.0462457708862588e-19  -1.2213264775268490e-19  -1.2844239647877510e-19  -1.2613514415925139e-19  8.8331304339741397e-18  -6.1042193258066315e-20  -2.2927539456382417e-20  -2.9235464806412227e-20  -2.6134797956732831e-20  -2.0021242651792756e-20  1.7752000484067579e-17  -1.4951983307287938e-20  -1.0043842110731269e-20  -8.6574774788427056e-21  -1.4638313612707333e-20  -1.1341245031988918e-20  -7.9875258583801947e-21  -1.1506137113010948e-20  -7.8901892007858661e-21  -1.7910916220294877e-22  2.0823334083163679e-19  -1.8807909613156600e-37  -4.7019774032891500e-38  -8.2616434001568486e-23  -1.6585178257880591e-22  -1.6966891362082485e-22  -1.5730467874287198e-22  -9.8957942295955497e-23  -8.7346110596178702e-23  -1.7119356051622789e-22  -1.0618111344383938e-21  -4.6496566546471666e-22  -1.9856372584460244e-20  -4.1143206239813129e-22  -8.6620389083583499e-22  -5.3625656062548591e-22  -5.9036505891679899e-22  -1.0535245952111217e-22  -1.3726978612202684e-21  -8.9775538113902164e-22  -2.6734944570460328e-22  -4.6618651264342987e-23  -2.3309325632171470e-23  -2.5273787118589433e-22  -1.9517949891143753e-22  2.1406582186998103e-19  -6.3183062880443536e-22  -1.0125671544500091e-21  -8.4104976023354985e-22  -5.1751033826767096e-22  -1.0420253753244066e-22  2.3509887016445750e-38  -9.6693103750990780e-23  -1.8825434195684345e-22  -1.9003950617290883e-22  -1.0067172598285298e-22  -5.5570727853873919e-23  1.6663449784414799e-20  -1.1344327852380886e-23  -4.6113699186904577e-24  -2.8690142476689115e-24  -3.3340302685659093e-24  -7.6018425848257525e-24  -2.6447722149279689e-24  0.0000000000000000e+00  -2.6347128095843098e-20  4.2721763933459766e-04  2.1493236681670649e-04  1.2180778617249377e-04  3.2917777379849549e-04  2.3325066111740467e-04  4.2246650012300055e-04  2.3305118931716529e-04  6.4848524790354293e-04  8.8300501690401128e-05  3.1954264055324067e-06  4.0987382623136371e-04  6.6484808567328151e-04  1.9940440505429957e-04  4.7582138658474281e-04  1.6023931355954319e-04  6.5859867804621925e-05  6.9465175689660953e-04  1.4227842722109774e-04  6.1641584153316080e-04  1.0587887602331722e-04  3.1960050478381963e-04  1.3318508667505374e-04  5.7294954603285435e-04  2.5309228593167971e-04  8.4123938691244623e-04  6.3722586058410197e-04  7.7940520508529146e-04  3.5829293842338134e-04  5.9072746429717925e-04  6.6947067723610164e-04  9.3168775771489804e-04  5.8450932739037076e-04  4.9141957514021236e-04  2.6109452482705949e-04  5.7292984759143249e-04  1.0412392753297091e-03  1.3641291878956701e-03  1.5180815936872199e-03  1.5547717188379296e-03  1.4948628935167485e-03  1.1916604623290986e-03  5.0380816407907152e-04  4.1302583260914474e-04  3.2014639732807316e-04  7.2134128756889894e-04  6.1255145881071991e-04  5.3870197160921446e-04  3.6186754869805946e-04  1.6333244160513801e-04  1.5595924939073791e-04  4.0861141519986252e-04  9.5564608080147638e-06  1.3911224351364557e-04  1.3772001750169693e-04  7.3277003827319290e-05  5.4321498239539995e-05  2.5504057833723418e-05  8.8247259226299810e-06  1.9844256884407346e-06  1.4882853655365729e-06  2.2435774221142834e-06  1.9346947135792728e-06  1.8664018134904972e-06  8.4946690145241467e-07  2.2131627395734213e-06  4.7514706715267547e-06  1.6752153581814995e-05  1.7116570924248423e-06  1.1914760675488281e-06  1.2763706869395922e-05  1.9320678772863381e-05  2.1270142874802045e-05  1.5175485074791610e-06  1.9193625394295836e-05  1.5131513607987589e-05  8.6067663958764204e-06  6.3672283624028920e-06  8.3980696185044092e-07  9.1058414599616491e-06  3.3191895975713239e-06  1.5101659129094766e-05  7.2756771929362720e-06  7.7442101413115469e-06  1.4368683167218882e-05  7.9666639635419937e-06  5.3393054845596506e-06  5.1509726354619483e-06  7.4136494156608990e-07  1.7418681040890352e-06  2.5203546851063542e-06  2.1632700541907638e-06  1.4770415967621466e-06  9.7669809159455176e-07  6.0391032312452254e-07  3.4276263759385392e-07  2.1762210358430434e-07  1.2860363267837306e-07  1.2905838503686622e-07  9.5287961293035498e-08  -3.4412603359171020e-24  -1.5078001055957569e-20  4.7462766509888664e-04  1.3761399224859636e-04  9.0254793702324249e-05  4.5846670698910501e-05  4.1984599804239527e-04  4.8909489027263017e-04  5.8602364893502287e-04  7.0859480221863679e-04  5.0126792328444609e-05  3.9494075269436401e-04  3.8979588402024754e-04  4.5827207263263354e-04  9.7078427500588214e-04  6.5217110724675401e-04  4.7286372993350970e-04  1.1187630300830984e-03  8.3127543211442305e-05  5.4609229048430184e-04  7.7650766090695217e-04  3.7556887834629029e-04  1.4085317611750180e-03  9.2433863011239100e-04  1.5307662501470667e-03  8.3637831172035063e-04  1.0328791833536461e-03  8.1961913225797158e-05  3.9283532860702236e-04  1.5852240870317469e-03  1.0287206718218626e-03  2.2888336132009373e-04  1.5650532672049976e-03  1.9895088493871970e-04  1.1319583982178276e-03  4.9904542609012633e-04  3.7070916867801919e-04  1.3365217040336686e-03  1.7477763835131303e-03  2.0739820627892953e-03  2.2052507060131977e-03  2.1556740246022332e-03  1.9287286070882334e-03  1.3546021332057191e-03  3.0921340447263553e-04  9.8109775058160837e-04  8.4199942886348461e-04  6.8809886906106806e-04  1.0098514766718597e-03  7.8233054886490483e-04  1.2713428561939808e-04  3.8966238615594114e-04  4.4396110118460192e-04  4.1626802580730846e-04  3.6285084934486713e-04  1.8959326479668550e-04  1.1423150110003881e-04  6.2318282468095960e-05  6.4556252325155680e-05  2.5837110755795604e-05  1.0880297719300465e-05  2.8321862211968171e-06  4.0971080136722682e-07  7.9838295417185055e-07  8.0857054360838010e-07  8.6639667622396397e-07  2.4591342815678363e-07  2.5983429984690141e-06  1.5615884875702814e-05  1.8944171962655155e-05  9.1199838155040000e-06  2.7370615023267505e-06  3.6248074659403201e-05  3.3896975257836793e-06  5.1534124060206591e-05  2.2442017573909423e-05  2.4438289544033236e-05  2.0565545793467645e-05  6.6851923204745420e-07  4.6222975119108383e-07  1.8362811954195405e-06  1.2314879270528663e-05  2.5251920942149188e-06  1.9350174021040700e-05  2.5927406083496484e-05  9.8895874940205608e-06  1.9273734500706435e-05  7.2830925241361700e-06  2.0213226696984765e-06  4.0565705166092721e-06  1.1839276217424823e-06  2.7246004016132076e-06  3.6431207373752996e-06  2.3166915861385394e-06  1.7591422504234968e-06  9.3927978555871499e-07  5.7476465741151349e-07  2.7994526500680590e-07  1.3284051511712507e-07  7.1509743399672116e-08  9.6094163675427152e-08  -3.7398635111684854e-23  -1.9402642174441081e-20  2.7162111974841056e-04  4.3785701043654268e-04  1.2889789071470876e-05  4.4143576183284790e-04  6.1600837120636526e-04  5.2152421454691256e-04  7.5891240903789789e-04  1.5131205253159904e-04  1.3145606366370586e-03  4.8013488773987733e-04  9.4324389328294128e-06  1.0103912209092957e-03  1.0197360947238616e-03  4.5496635989262210e-05  1.0983864643931897e-03  3.4742324462767486e-04  4.6759009618975542e-04  1.2690177004712328e-03  7.3028423983088713e-04  1.6431286079092720e-03  5.7594197903749328e-04  1.1399032703272801e-03  4.6650893731800617e-04  1.6772111406817933e-03  1.4219050753792436e-03  2.2084250492161060e-03  1.8079300778992705e-03  1.6470260491071749e-03  8.3879708102035867e-04  1.9403425580212807e-03  1.5030370089368348e-03  1.9251684763327626e-03  1.8829946810434205e-03  9.6075410228999545e-04  1.7439490956445099e-04  1.4127021516110016e-03  1.8981015778774168e-03  2.2326662285734517e-03  2.4606089566341131e-03  2.5300439108899729e-03  2.4056457292191548e-03  1.8036296543191236e-03  6.4417566641831114e-04  1.0485694425479703e-03  5.9034229551309641e-04  2.0458284061629665e-03  1.4443064707503177e-03  9.9950944035678596e-04  7.5665141809081002e-04  6.1488078985657874e-04  5.9088171477407209e-04  1.0217323990989945e-03  1.6112416348369513e-04  4.2914407545585999e-04  1.5373474716174514e-04  1.6505718304958451e-05  6.7761672303527618e-05  5.3458292291912274e-05  2.1747557236988842e-05  8.8160915943460028e-06  1.9711380264994417e-06  1.7707020226540965e-07  2.3111665833888454e-07  6.5792512757917505e-07  1.8968803990957926e-06  7.7183006007672576e-08  3.3793354277422989e-06  2.7019987738834199e-05  2.5918207342432271e-06  6.3486294719246986e-06  1.8676354837927228e-05  4.8248219081800020e-05  3.1875345296637422e-05  3.6507511002354778e-05  3.6728656672749399e-05  3.4173017672512298e-05  6.3008399290193024e-06  4.3572281563345014e-06  5.8806231973237795e-06  1.4236408276102373e-05  4.1166622157111423e-06  1.9606477846465554e-05  3.6222483538362161e-06  3.4357213876285724e-05  9.3309754930017212e-06  1.6105931878834531e-05  7.1524503915504078e-06  2.6034558566349658e-07  1.8377133421719554e-06  1.1969335540128244e-06  2.9648783454487846e-06  2.4728816773171270e-06  1.8260681736320761e-06  9.7799282607142311e-07  5.7865922921301415e-07  2.2504841495775880e-07  7.6415467980277675e-08  2.1236024786902621e-08  7.0385049949293526e-09  -6.4652189295225813e-38  -1.9277205959132673e-20  3.4952692826726434e-04  4.7438833663902884e-04  8.1201901372320490e-05  1.4368267394322204e-04  5.0952113066824063e-04  7.6730234796773533e-04  1.0880987729796033e-03  9.5630096193817613e-04  5.7995762822459678e-04  1.0814107037191926e-04  3.6148323975716134e-04  2.4417196740967418e-04  7.6254327633257094e-04  1.5122781885555817e-03  2.7902618022634674e-04  5.6445894538999220e-04  1.5052143747862736e-03  4.5139459565325717e-04  1.2287694908575369e-03  4.0859994741571283e-04  2.1908332695139856e-04  1.7426924819843803e-03  1.3838179834096108e-03  2.0858450706789313e-03  9.7978168789621535e-04  9.6695187948503316e-04  6.7540120426779154e-04  1.4613333738320521e-03  2.9545146687707958e-03  1.5797860677510430e-03  9.4428377260215995e-04  2.8439859660288926e-03  5.0805389145123321e-04  2.4728703246912009e-03  5.8172790860165819e-04  6.7745369078663726e-04  2.1667222767998433e-03  2.3313506182300824e-03  2.6080707165240650e-03  2.7437066126247433e-03  2.6802951958955399e-03  2.4097921716543127e-03  1.5800808579117828e-03  7.4240958477618676e-04  1.6405240512834978e-03  1.3918003685418462e-03  1.6408464645930227e-03  2.3939966167324466e-03  1.8202867525518138e-03  7.2852670631855037e-04  2.6332097881011553e-04  4.7269909257891110e-04  8.2834730291315810e-04  7.3700286306374737e-04  3.0651093784672787e-04  5.2622419793656297e-05  1.9079505216821823e-05  7.2765474685880052e-05  3.5610300988791751e-05  1.6312183212466281e-05  5.9012339017591562e-06  1.1788168504206789e-06  5.0379542737454567e-07  5.0925311475650821e-07  5.4900988629008044e-07  1.7453106043183927e-06  1.2433118795410538e-06  1.6930795542447232e-05  2.3468573817792466e-05  1.2546325909916096e-05  2.0441183757823974e-06  3.8977502566166014e-05  2.4517280361979417e-05  5.5678902687761099e-05  6.0194034094726388e-06  3.5415446740121274e-05  3.0753506698203207e-05  1.2856089289383570e-05  4.8490889741667993e-06  3.4479978949547091e-06  1.7267571539272617e-05  7.4502989649217867e-06  2.4049946812797641e-05  2.6204125978693753e-05  3.2731709790093809e-05  2.4202636353167188e-07  1.2376000862908884e-05  7.1960748402640606e-06  6.1712743908215605e-07  4.3320801011406917e-07  1.4886002140949932e-06  2.4315867987171539e-06  1.4665905911974732e-06  1.0382975107121482e-06  4.4766996571328996e-07  1.7023260548571922e-07  1.5739860528029605e-08  7.7279707617131090e-08  6.7279377545600703e-08  -2.7566700476302816e-23  -1.5619642344453432e-20  3.4726727029717647e-04  5.4317812339132706e-04  8.0968690063202621e-04  1.5815553122584412e-04  4.9477753864706441e-04  5.0110815973155416e-04  4.5711025393817891e-04  1.1831681733936214e-03  3.5920195596365027e-04  1.6361235468750430e-03  9.3570642468427930e-04  2.1832923175685431e-04  1.2579486166571447e-03  1.0715666176312920e-03  2.5614639553253555e-04  1.2588799505770618e-03  9.6950151992312810e-04  1.1235955006525930e-03  1.1016295411341009e-03  7.4105308665775571e-04  2.0642689351611501e-03  1.1715045224717224e-03  1.9649041414254451e-03  1.2445313603090481e-03  2.6709570596254403e-03  2.3709047852732684e-03  3.1024564549592261e-03  2.3007853736785547e-03  1.6380653743651257e-03  1.7275185078379682e-03  3.1182760415038274e-03  1.7594386612589390e-03  3.1663957918163406e-03  2.4978295395266916e-03  1.7383031351136840e-03  5.0933650383472869e-05  1.9086611781825660e-03  2.5851475741550602e-03  2.7070531360745085e-03  2.9018961528705311e-03  2.9765281041547026e-03  2.8187202016996976e-03  2.0859408372403340e-03  6.6900062020394679e-04  1.7176705294005856e-03  1.0406731299469334e-03  3.1515795439134120e-03  1.5024403725779846e-03  4.7606291346504695e-04  3.7521259820316283e-04  5.9322283682684916e-04  9.2914099816383030e-04  1.4136598977378240e-03  7.3863854707194066e-05  7.9149108489754837e-04  1.7188604982034536e-04  7.1093844104440783e-05  2.3754358972281869e-05  6.3676732809895073e-05  2.4313599763137598e-05  1.0561356847072881e-05  2.6109291286181626e-06  1.4678494312768932e-07  1.7252865739383967e-09  8.5261460024246871e-07  2.3912474472423814e-06  1.7781996639693994e-08  4.4985177388048947e-06  3.0589568360651567e-05  6.5340022243008852e-07  3.8234686466272761e-06  1.7650729705046721e-05  4.0057419682618342e-05  1.3136029986688794e-05  3.5436388811953917e-05  1.0117267349163969e-05  4.0700134147971607e-05  4.0863626153466423e-06  2.5769572054384101e-05  4.2714677513860023e-06  2.2348571560482201e-05  1.0843869564610711e-05  1.6869332924281277e-05  2.6078153684266392e-06  4.0838303062966796e-05  2.8655315365167492e-05  8.4996609806411578e-06  5.9604929233505113e-06  7.1024665579996402e-06  1.6652934413548439e-06  1.4106765896095588e-06  2.6727296793177195e-06  1.6774678465196918e-06  1.4783849187208365e-06  5.6547140292577149e-07  3.2617295552253265e-07  6.0875669801456472e-08  1.5021182982659675e-08  5.4424831649210965e-08  2.3509887016445750e-38  -6.9464044139211219e-21  2.8137846176856364e-04  5.5080727212033207e-04  4.4478778672126938e-04  5.8596051996837853e-04  1.8958372464527334e-04  5.8759384174191193e-04  1.0505343422966505e-03  1.3734399232674217e-03  1.2279605132963620e-03  5.0290948672987185e-04  4.9397603496886399e-04  4.7532287473270664e-05  2.2013664572896740e-04  1.2236446808869244e-03  1.7608545016546506e-03  1.2494597994044559e-05  3.0687316366432031e-04  1.1777973599919776e-03  2.0629260648756347e-04  1.5733352832327577e-03  1.2871190096230794e-05  3.1195650899789982e-04  1.3523428590575418e-03  1.1206409015379123e-03  1.8964927787913925e-03  4.7812018592216114e-04  3.7209015544099249e-04  1.4777999991801155e-03  2.3158563619702691e-03  3.8506252739745183e-03  1.5844693563268719e-03  1.9796490747617077e-03  3.7845187587093572e-03  1.1187208904001756e-03  3.6111625431221183e-03  8.7025050359434042e-04  9.3113353117541551e-04  2.8786084283433980e-03  2.9297556402922919e-03  3.0590304356781272e-03  3.1809004938659342e-03  3.1219924240720267e-03  2.8113505739169624e-03  1.7151648858397344e-03  1.0134729584232597e-03  2.3698599409098524e-03  1.6135928369989947e-03  2.6810758080633686e-03  3.1842813956145183e-03  2.1680017783549635e-03  1.0346599375499275e-03  2.7449063075505469e-05  2.2274387028751866e-04  1.2608212900014082e-03  9.0288877964602170e-04  5.4003062306944125e-04  1.0613486283227615e-05  1.1185231372776051e-04  6.7262977186679875e-05  4.8774923011624093e-05  1.9713436613973616e-05  6.9467609997368693e-06  1.0379790069272266e-06  6.1727214132614109e-07  7.2514151516697972e-07  6.1964287613810858e-07  1.9847253599507602e-06  1.2743108745582943e-06  1.8500333764172725e-05  2.1765481934885380e-05  5.1127009020856658e-06  7.8720761872677985e-07  3.0711878904650439e-05  1.6464091649867580e-05  2.8747679456623991e-05  5.4313215886189159e-06  2.3396060939841465e-05  3.6397031385422551e-05  1.9900645825497064e-05  3.3492480406575324e-05  1.0205792023420208e-05  2.8944907830660211e-05  1.6239967361787606e-05  1.2912974931820166e-05  1.8488376050504033e-05  4.8894458780325365e-05  2.0594416454445219e-05  1.1709521101240269e-05  8.7453421355327458e-07  5.3233437466650077e-06  1.4855741514006510e-06  2.4559113026122420e-06  2.1723456759615041e-06  1.6619882065712618e-06  8.8492727756523381e-07  5.4065751753732087e-07  1.9189177717854935e-07  1.1586817782817892e-07  7.3735112864299739e-09  -4.0931210012641896e-25  -1.9347810999967975e-20  1.2513529732039973e-04  4.1392699545839378e-04  7.0498158653335577e-04  7.2640470690984484e-04  9.1530705324866600e-05  6.1751503955983480e-04  2.6729498331338173e-04  1.5439604658163612e-04  1.5620400837530327e-03  5.8801449850211349e-04  1.5542642076063636e-03  8.9874952286818507e-04  1.7401860141414921e-04  1.2343529216073306e-03  1.3485981577253255e-03  5.9457338864448274e-04  9.7348233051857878e-04  9.8509143452319824e-04  1.3222844518992792e-03  9.5034828609788632e-04  3.0195316018845266e-04  1.7947751462915596e-03  9.4086655472375809e-04  2.1066256931008376e-03  1.3761869969494695e-03  2.9482161514126103e-03  2.4488872512801701e-03  3.1437434432292351e-03  2.0805919214949456e-03  1.2057692006163612e-03  2.6383762507716196e-03  3.7257012529671894e-03  1.5886675386612616e-03  4.4100153202785725e-03  2.6927387862509321e-03  2.8434793168517851e-03  1.1200629033290152e-05  2.2806493534475677e-03  3.4175694844429936e-03  3.2960692011772316e-03  3.3871065150286920e-03  3.4569127270563638e-03  3.2700887968444450e-03  2.3964153402841488e-03  6.4641860622511379e-04  2.2916502331778127e-03  1.5237002106170525e-03  3.8633984149509483e-03  1.1445559106884641e-03  3.0077444261037556e-04  2.5070092050950903e-04  1.2616863599158718e-04  7.9270490337736443e-04  1.4521206266448841e-03  1.9168510489659478e-04  1.0914404196955409e-03  2.6676103383960952e-04  1.4434515933090162e-04  5.5722168385273457e-05  7.2945235974625176e-05  3.4271020279243783e-05  1.5301423964703532e-05  5.2391954070796852e-06  7.6089685348904285e-07  2.2097447329106257e-07  1.4392974173328788e-06  3.0132110176545687e-06  9.4330987688929442e-09  5.1990968548243593e-06  2.9620779091030663e-05  1.0580505508731138e-06  7.0977040656597799e-06  1.7254803409680246e-05  2.5974733292931716e-05  1.2855074444157825e-05  9.3743678648136097e-06  6.4860791174193931e-06  4.1305889344571895e-05  1.4749275922590483e-05  3.0917633944069571e-05  3.2944134459690095e-05  2.5130549620103388e-05  2.6269061396975542e-05  2.4661638475262860e-05  5.4301180162716062e-06  3.1808569257589490e-05  4.7929350060842985e-05  1.5378879451343968e-05  1.2997309877031796e-05  1.9423675369661501e-06  1.2877763306784087e-06  1.8257982483692568e-06  3.0841644386314241e-06  1.4815680017300649e-06  1.3367209502751655e-06  5.7830292201293096e-07  3.5561665851207679e-07  1.7210172106181324e-07  4.3061660129326350e-08  6.4052183095189837e-24  -5.6848182833000895e-21  3.4853917763956308e-04  5.2524502304990295e-04  6.0312437658960826e-04  5.1078530723139932e-04  8.4255039738220935e-04  6.7985180499423195e-05  4.8994894559783553e-04  9.2639768200522749e-04  1.3431849697382620e-03  1.5660755661642341e-03  6.5760845659828344e-04  5.3247397210234957e-04  3.5470857560395802e-04  3.5662751506513322e-04  1.4381133746202432e-03  1.880520496636077