<?xml version="1.0"?>
<VTKFile type="UnstructuredGrid"  version="0.1"  >
<UnstructuredGrid>
<Piece  NumberOfPoints="10201" NumberOfCells="20000">
<Points>
<DataArray  type="Float64"  NumberOfComponents="3"  format="ascii">0 0 0  0.01 0 0  0.02 0 0  0.03 0 0  0.04 0 0  0.05 0 0  0.06 0 0  0.07000000000000001 0 0  0.08 0 0  0.09 0 0  0.1 0 0  0.11 0 0  0.12 0 0  0.13 0 0  0.14 0 0  0.15 0 0  0.16 0 0  0.17 0 0  0.18 0 0  0.19 0 0  0.2 0 0  0.21 0 0  0.22 0 0  0.23 0 0  0.24 0 0  0.25 0 0  0.26 0 0  0.27 0 0  0.28 0 0  0.29 0 0  0.3 0 0  0.31 0 0  0.32 0 0  0.33 0 0  0.34 0 0  0.35 0 0  0.36 0 0  0.37 0 0  0.38 0 0  0.39 0 0  0.4 0 0  0.41 0 0  0.42 0 0  0.43 0 0  0.44 0 0  0.45 0 0  0.46 0 0  0.47 0 0  0.48 0 0  0.49 0 0  0.5 0 0  0.51 0 0  0.52 0 0  0.53 0 0  0.54 0 0  0.55 0 0  0.5600000000000001 0 0  0.57 0 0  0.58 0 0  0.59 0 0  0.6 0 0  0.61 0 0  0.62 0 0  0.63 0 0  0.64 0 0  0.65 0 0  0.66 0 0  0.67 0 0  0.68 0 0  0.6899999999999999 0 0  0.7 0 0  0.71 0 0  0.72 0 0  0.73 0 0  0.74 0 0  0.75 0 0  0.76 0 0  0.77 0 0  0.78 0 0  0.79 0 0  0.8 0 0  0.8100000000000001 0 0  0.82 0 0  0.83 0 0  0.84 0 0  0.85 0 0  0.86 0 0  0.87 0 0  0.88 0 0  0.89 0 0  0.9 0 0  0.91 0 0  0.92 0 0  0.93 0 0  0.9399999999999999 0 0  0.95 0 0  0.96 0 0  0.97 0 0  0.98 0 0  0.99 0 0  1 0 0  0 0.01 0  0.01 0.01 0  0.02 0.01 0  0.03 0.01 0  0.04 0.01 0  0.05 0.01 0  0.06 0.01 0  0.07000000000000001 0.01 0  0.08 0.01 0  0.09 0.01 0  0.1 0.01 0  0.11 0.01 0  0.12 0.01 0  0.13 0.01 0  0.14 0.01 0  0.15 0.01 0  0.16 0.01 0  0.17 0.01 0  0.18 0.01 0  0.19 0.01 0  0.2 0.01 0  0.21 0.01 0  0.22 0.01 0  0.23 0.01 0  0.24 0.01 0  0.25 0.01 0  0.26 0.01 0  0.27 0.01 0  0.28 0.01 0  0.29 0.01 0  0.3 0.01 0  0.31 0.01 0  0.32 0.01 0  0.33 0.01 0  0.34 0.01 0  0.35 0.01 0  0.36 0.01 0  0.37 0.01 0  0.38 0.01 0  0.39 0.01 0  0.4 0.01 0  0.41 0.01 0  0.42 0.01 0  0.43 0.01 0  0.44 0.01 0  0.45 0.01 0  0.46 0.01 0  0.47 0.01 0  0.48 0.01 0  0.49 0.01 0  0.5 0.01 0  0.51 0.01 0  0.52 0.01 0  0.53 0.01 0  0.54 0.01 0  0.55 0.01 0  0.5600000000000001 0.01 0  0.57 0.01 0  0.58 0.01 0  0.59 0.01 0  0.6 0.01 0  0.61 0.01 0  0.62 0.01 0  0.63 0.01 0  0.64 0.01 0  0.65 0.01 0  0.66 0.01 0  0.67 0.01 0  0.68 0.01 0  0.6899999999999999 0.01 0  0.7 0.01 0  0.71 0.01 0  0.72 0.01 0  0.73 0.01 0  0.74 0.01 0  0.75 0.01 0  0.76 0.01 0  0.77 0.01 0  0.78 0.01 0  0.79 0.01 0  0.8 0.01 0  0.8100000000000001 0.01 0  0.82 0.01 0  0.83 0.01 0  0.84 0.01 0  0.85 0.01 0  0.86 0.01 0  0.87 0.01 0  0.88 0.01 0  0.89 0.01 0  0.9 0.01 0  0.91 0.01 0  0.92 0.01 0  0.93 0.01 0  0.9399999999999999 0.01 0  0.95 0.01 0  0.96 0.01 0  0.97 0.01 0  0.98 0.01 0  0.99 0.01 0  1 0.01 0  0 0.02 0  0.01 0.02 0  0.02 0.02 0  0.03 0.02 0  0.04 0.02 0  0.05 0.02 0  0.06 0.02 0  0.07000000000000001 0.02 0  0.08 0.02 0  0.09 0.02 0  0.1 0.02 0  0.11 0.02 0  0.12 0.02 0  0.13 0.02 0  0.14 0.02 0  0.15 0.02 0  0.16 0.02 0  0.17 0.02 0  0.18 0.02 0  0.19 0.02 0  0.2 0.02 0  0.21 0.02 0  0.22 0.02 0  0.23 0.02 0  0.24 0.02 0  0.25 0.02 0  0.26 0.02 0  0.27 0.02 0  0.28 0.02 0  0.29 0.02 0  0.3 0.02 0  0.31 0.02 0  0.32 0.02 0  0.33 0.02 0  0.34 0.02 0  0.35 0.02 0  0.36 0.02 0  0.37 0.02 0  0.38 0.02 0  0.39 0.02 0  0.4 0.02 0  0.41 0.02 0  0.42 0.02 0  0.43 0.02 0  0.44 0.02 0  0.45 0.02 0  0.46 0.02 0  0.47 0.02 0  0.48 0.02 0  0.49 0.02 0  0.5 0.02 0  0.51 0.02 0  0.52 0.02 0  0.53 0.02 0  0.54 0.02 0  0.55 0.02 0  0.5600000000000001 0.02 0  0.57 0.02 0  0.58 0.02 0  0.59 0.02 0  0.6 0.02 0  0.61 0.02 0  0.62 0.02 0  0.63 0.02 0  0.64 0.02 0  0.65 0.02 0  0.66 0.02 0  0.67 0.02 0  0.68 0.02 0  0.6899999999999999 0.02 0  0.7 0.02 0  0.71 0.02 0  0.72 0.02 0  0.73 0.02 0  0.74 0.02 0  0.75 0.02 0  0.76 0.02 0  0.77 0.02 0  0.78 0.02 0  0.79 0.02 0  0.8 0.02 0  0.8100000000000001 0.02 0  0.82 0.02 0  0.83 0.02 0  0.84 0.02 0  0.85 0.02 0  0.86 0.02 0  0.87 0.02 0  0.88 0.02 0  0.89 0.02 0  0.9 0.02 0  0.91 0.02 0  0.92 0.02 0  0.93 0.02 0  0.9399999999999999 0.02 0  0.95 0.02 0  0.96 0.02 0  0.97 0.02 0  0.98 0.02 0  0.99 0.02 0  1 0.02 0  0 0.03 0  0.01 0.03 0  0.02 0.03 0  0.03 0.03 0  0.04 0.03 0  0.05 0.03 0  0.06 0.03 0  0.07000000000000001 0.03 0  0.08 0.03 0  0.09 0.03 0  0.1 0.03 0  0.11 0.03 0  0.12 0.03 0  0.13 0.03 0  0.14 0.03 0  0.15 0.03 0  0.16 0.03 0  0.17 0.03 0  0.18 0.03 0  0.19 0.03 0  0.2 0.03 0  0.21 0.03 0  0.22 0.03 0  0.23 0.03 0  0.24 0.03 0  0.25 0.03 0  0.26 0.03 0  0.27 0.03 0  0.28 0.03 0  0.29 0.03 0  0.3 0.03 0  0.31 0.03 0  0.32 0.03 0  0.33 0.03 0  0.34 0.03 0  0.35 0.03 0  0.36 0.03 0  0.37 0.03 0  0.38 0.03 0  0.39 0.03 0  0.4 0.03 0  0.41 0.03 0  0.42 0.03 0  0.43 0.03 0  0.44 0.03 0  0.45 0.03 0  0.46 0.03 0  0.47 0.03 0  0.48 0.03 0  0.49 0.03 0  0.5 0.03 0  0.51 0.03 0  0.52 0.03 0  0.53 0.03 0  0.54 0.03 0  0.55 0.03 0  0.5600000000000001 0.03 0  0.57 0.03 0  0.58 0.03 0  0.59 0.03 0  0.6 0.03 0  0.61 0.03 0  0.62 0.03 0  0.63 0.03 0  0.64 0.03 0  0.65 0.03 0  0.66 0.03 0  0.67 0.03 0  0.68 0.03 0  0.6899999999999999 0.03 0  0.7 0.03 0  0.71 0.03 0  0.72 0.03 0  0.73 0.03 0  0.74 0.03 0  0.75 0.03 0  0.76 0.03 0  0.77 0.03 0  0.78 0.03 0  0.79 0.03 0  0.8 0.03 0  0.8100000000000001 0.03 0  0.82 0.03 0  0.83 0.03 0  0.84 0.03 0  0.85 0.03 0  0.86 0.03 0  0.87 0.03 0  0.88 0.03 0  0.89 0.03 0  0.9 0.03 0  0.91 0.03 0  0.92 0.03 0  0.93 0.03 0  0.9399999999999999 0.03 0  0.95 0.03 0  0.96 0.03 0  0.97 0.03 0  0.98 0.03 0  0.99 0.03 0  1 0.03 0  0 0.04 0  0.01 0.04 0  0.02 0.04 0  0.03 0.04 0  0.04 0.04 0  0.05 0.04 0  0.06 0.04 0  0.07000000000000001 0.04 0  0.08 0.04 0  0.09 0.04 0  0.1 0.04 0  0.11 0.04 0  0.12 0.04 0  0.13 0.04 0  0.14 0.04 0  0.15 0.04 0  0.16 0.04 0  0.17 0.04 0  0.18 0.04 0  0.19 0.04 0  0.2 0.04 0  0.21 0.04 0  0.22 0.04 0  0.23 0.04 0  0.24 0.04 0  0.25 0.04 0  0.26 0.04 0  0.27 0.04 0  0.28 0.04 0  0.29 0.04 0  0.3 0.04 0  0.31 0.04 0  0.32 0.04 0  0.33 0.04 0  0.34 0.04 0  0.35 0.04 0  0.36 0.04 0  0.37 0.04 0  0.38 0.04 0  0.39 0.04 0  0.4 0.04 0  0.41 0.04 0  0.42 0.04 0  0.43 0.04 0  0.44 0.04 0  0.45 0.04 0  0.46 0.04 0  0.47 0.04 0  0.48 0.04 0  0.49 0.04 0  0.5 0.04 0  0.51 0.04 0  0.52 0.04 0  0.53 0.04 0  0.54 0.04 0  0.55 0.04 0  0.5600000000000001 0.04 0  0.57 0.04 0  0.58 0.04 0  0.59 0.04 0  0.6 0.04 0  0.61 0.04 0  0.62 0.04 0  0.63 0.04 0  0.64 0.04 0  0.65 0.04 0  0.66 0.04 0  0.67 0.04 0  0.68 0.04 0  0.6899999999999999 0.04 0  0.7 0.04 0  0.71 0.04 0  0.72 0.04 0  0.73 0.04 0  0.74 0.04 0  0.75 0.04 0  0.76 0.04 0  0.77 0.04 0  0.78 0.04 0  0.79 0.04 0  0.8 0.04 0  0.8100000000000001 0.04 0  0.82 0.04 0  0.83 0.04 0  0.84 0.04 0  0.85 0.04 0  0.86 0.04 0  0.87 0.04 0  0.88 0.04 0  0.89 0.04 0  0.9 0.04 0  0.91 0.04 0  0.92 0.04 0  0.93 0.04 0  0.9399999999999999 0.04 0  0.95 0.04 0  0.96 0.04 0  0.97 0.04 0  0.98 0.04 0  0.99 0.04 0  1 0.04 0  0 0.05 0  0.01 0.05 0  0.02 0.05 0  0.03 0.05 0  0.04 0.05 0  0.05 0.05 0  0.06 0.05 0  0.07000000000000001 0.05 0  0.08 0.05 0  0.09 0.05 0  0.1 0.05 0  0.11 0.05 0  0.12 0.05 0  0.13 0.05 0  0.14 0.05 0  0.15 0.05 0  0.16 0.05 0  0.17 0.05 0  0.18 0.05 0  0.19 0.05 0  0.2 0.05 0  0.21 0.05 0  0.22 0.05 0  0.23 0.05 0  0.24 0.05 0  0.25 0.05 0  0.26 0.05 0  0.27 0.05 0  0.28 0.05 0  0.29 0.05 0  0.3 0.05 0  0.31 0.05 0  0.32 0.05 0  0.33 0.05 0  0.34 0.05 0  0.35 0.05 0  0.36 0.05 0  0.37 0.05 0  0.38 0.05 0  0.39 0.05 0  0.4 0.05 0  0.41 0.05 0  0.42 0.05 0  0.43 0.05 0  0.44 0.05 0  0.45 0.05 0  0.46 0.05 0  0.47 0.05 0  0.48 0.05 0  0.49 0.05 0  0.5 0.05 0  0.51 0.05 0  0.52 0.05 0  0.53 0.05 0  0.54 0.05 0  0.55 0.05 0  0.5600000000000001 0.05 0  0.57 0.05 0  0.58 0.05 0  0.59 0.05 0  0.6 0.05 0  0.61 0.05 0  0.62 0.05 0  0.63 0.05 0  0.64 0.05 0  0.65 0.05 0  0.66 0.05 0  0.67 0.05 0  0.68 0.05 0  0.6899999999999999 0.05 0  0.7 0.05 0  0.71 0.05 0  0.72 0.05 0  0.73 0.05 0  0.74 0.05 0  0.75 0.05 0  0.76 0.05 0  0.77 0.05 0  0.78 0.05 0  0.79 0.05 0  0.8 0.05 0  0.8100000000000001 0.05 0  0.82 0.05 0  0.83 0.05 0  0.84 0.05 0  0.85 0.05 0  0.86 0.05 0  0.87 0.05 0  0.88 0.05 0  0.89 0.05 0  0.9 0.05 0  0.91 0.05 0  0.92 0.05 0  0.93 0.05 0  0.9399999999999999 0.05 0  0.95 0.05 0  0.96 0.05 0  0.97 0.05 0  0.98 0.05 0  0.99 0.05 0  1 0.05 0  0 0.06 0  0.01 0.06 0  0.02 0.06 0  0.03 0.06 0  0.04 0.06 0  0.05 0.06 0  0.06 0.06 0  0.07000000000000001 0.06 0  0.08 0.06 0  0.09 0.06 0  0.1 0.06 0  0.11 0.06 0  0.12 0.06 0  0.13 0.06 0  0.14 0.06 0  0.15 0.06 0  0.16 0.06 0  0.17 0.06 0  0.18 0.06 0  0.19 0.06 0  0.2 0.06 0  0.21 0.06 0  0.22 0.06 0  0.23 0.06 0  0.24 0.06 0  0.25 0.06 0  0.26 0.06 0  0.27 0.06 0  0.28 0.06 0  0.29 0.06 0  0.3 0.06 0  0.31 0.06 0  0.32 0.06 0  0.33 0.06 0  0.34 0.06 0  0.35 0.06 0  0.36 0.06 0  0.37 0.06 0  0.38 0.06 0  0.39 0.06 0  0.4 0.06 0  0.41 0.06 0  0.42 0.06 0  0.43 0.06 0  0.44 0.06 0  0.45 0.06 0  0.46 0.06 0  0.47 0.06 0  0.48 0.06 0  0.49 0.06 0  0.5 0.06 0  0.51 0.06 0  0.52 0.06 0  0.53 0.06 0  0.54 0.06 0  0.55 0.06 0  0.5600000000000001 0.06 0  0.57 0.06 0  0.58 0.06 0  0.59 0.06 0  0.6 0.06 0  0.61 0.06 0  0.62 0.06 0  0.63 0.06 0  0.64 0.06 0  0.65 0.06 0  0.66 0.06 0  0.67 0.06 0  0.68 0.06 0  0.6899999999999999 0.06 0  0.7 0.06 0  0.71 0.06 0  0.72 0.06 0  0.73 0.06 0  0.74 0.06 0  0.75 0.06 0  0.76 0.06 0  0.77 0.06 0  0.78 0.06 0  0.79 0.06 0  0.8 0.06 0  0.8100000000000001 0.06 0  0.82 0.06 0  0.83 0.06 0  0.84 0.06 0  0.85 0.06 0  0.86 0.06 0  0.87 0.06 0  0.88 0.06 0  0.89 0.06 0  0.9 0.06 0  0.91 0.06 0  0.92 0.06 0  0.93 0.06 0  0.9399999999999999 0.06 0  0.95 0.06 0  0.96 0.06 0  0.97 0.06 0  0.98 0.06 0  0.99 0.06 0  1 0.06 0  0 0.07000000000000001 0  0.01 0.07000000000000001 0  0.02 0.07000000000000001 0  0.03 0.07000000000000001 0  0.04 0.07000000000000001 0  0.05 0.07000000000000001 0  0.06 0.07000000000000001 0  0.07000000000000001 0.07000000000000001 0  0.08 0.07000000000000001 0  0.09 0.07000000000000001 0  0.1 0.07000000000000001 0  0.11 0.07000000000000001 0  0.12 0.07000000000000001 0  0.13 0.07000000000000001 0  0.14 0.07000000000000001 0  0.15 0.07000000000000001 0  0.16 0.07000000000000001 0  0.17 0.0700
[...]
<PointData  Scalars="Indicator Function"> 
<DataArray  type="Float64"  Name="Indicator Function"  format="ascii">-1.2037062152420224e-35  -4.8775833658766191e-20  -2.9689136675151496e-20  -2.4792225962302719e-20  3.1364685685804619e-19  -2.8867811468530038e-20  -2.3340074192265339e-20  6.6546472989486132e-19  8.0185247057058754e-19  -2.4763069161018388e-21  3.8377957892366132e-18  6.4456570758143841e-19  -2.7402883392323288e-20  -3.1260660187394873e-20  8.0939399985834480e-18  -7.4718870702300257e-21  2.4262203400972014e-34  1.8873469263464386e-18  -3.3902241788797866e-20  9.0277966143151681e-36  7.2871591139287133e-18  0.0000000000000000e+00  -3.4768673500282717e-20  9.0730365731133583e-18  -3.9181975418182460e-20  -2.2807472196609486e-20  -1.7369913529552946e-20  -4.0767904795788031e-20  4.0526814852699574e-17  -1.6235076396531169e-20  -6.8084546864911143e-20  -2.5214350153051015e-20  -4.2806355575425259e-20  -2.9600864528308773e-20  1.6130435158700188e-18  -7.0527439370331894e-20  -1.0111059237579428e-19  -1.1858372367915571e-19  -1.2507038721275538e-19  -1.2288967286710882e-19  8.5253407553053640e-18  -5.7193760890293375e-20  -2.2521955195150054e-20  -2.8923291984253420e-20  -2.6838495769235843e-20  -1.9599955112590619e-20  1.5508543657996054e-17  -1.4937730690153403e-20  -1.0144365520179534e-20  -9.3049608112533836e-21  -1.2745772931994303e-20  -1.1145524871863621e-20  -8.3184327315810935e-21  -1.1882486150213463e-20  -7.7650212814517389e-21  -1.0344350287236130e-35  3.8518598887744717e-33  9.4039548065783001e-38  0.0000000000000000e+00  2.3509887016445750e-38  -5.5500491017086002e-23  -1.1964415267661213e-22  -1.1374610204018391e-22  -9.2156364466705075e-23  -2.7409896093071354e-23  -1.1691303313984449e-24  -5.8774717541114375e-38  1.3283086164291849e-36  6.0079529220971438e-20  -5.5391701444156011e-22  -3.6913675523008899e-22  -1.6501089184201229e-21  -1.1505843874207295e-21  -6.0957252872123960e-22  -1.6216098769071104e-21  -1.6728449376927477e-21  -4.8462729096411840e-22  0.0000000000000000e+00  1.8807909613156600e-37  2.3509887016445750e-38  -1.9028490407280486e-23  3.0804041155161866e-19  -3.7427233916853675e-22  -1.5638072183698538e-21  -5.1636747590493230e-22  -5.3774870554925550e-22  -3.8857214645172915e-22  -5.1890445642259866e-23  -7.6190866224359557e-23  -6.8500815900178124e-23  -4.7332590448285424e-23  -1.9972462712691618e-23  -5.1364381170327280e-24  1.4359894056118455e-21  -6.2433686551675379e-26  -3.9847370429758552e-25  -5.4284418227807004e-25  -3.6551599038019437e-25  -9.2954057248299487e-26  -1.4854716387515464e-26  -4.0178029569121155e-41  -2.4158235603245137e-20  4.0031323477644450e-04  2.1480792371098541e-04  1.1505064930457746e-04  3.2286625546784463e-04  2.2263495384539753e-04  4.0871878296799553e-04  2.1609800625634664e-04  6.3518869437181782e-04  8.9218359236889366e-05  7.9542717174704303e-06  4.0821585715361032e-04  6.4747521190433295e-04  1.6990885578601055e-04  4.7818756239222137e-04  1.3879102499084943e-04  6.5206038805544700e-05  6.7883760214652834e-04  1.4671797342864152e-04  6.1072849394821799e-04  8.4946236606855822e-05  3.2153111431047608e-04  1.1134567982854766e-04  5.7066390016588954e-04  2.5993889865469843e-04  8.2172578628730711e-04  6.2581708879321874e-04  7.5529060285532690e-04  3.5676398196028073e-04  5.8493027207799381e-04  6.3611891186530665e-04  9.0844270362935799e-04  5.7078964330990712e-04  4.8573592641934309e-04  2.9037380662846971e-04  5.3375880830908672e-04  1.0036299945159442e-03  1.3196315073293766e-03  1.4763987014299173e-03  1.5148684462708362e-03  1.4563493165925549e-03  1.1635313402883422e-03  4.4854553078959864e-04  4.0571947609813110e-04  3.1817596996138126e-04  7.0616280433236556e-04  6.1109241868880328e-04  5.3818846695948528e-04  3.6548928621272511e-04  1.8945811006863868e-04  1.6762327216903120e-04  3.9910308305248366e-04  1.2283851128524207e-06  1.4985156220102057e-04  1.3913005969283537e-04  7.0317157952262365e-05  5.6944472367639608e-05  2.7916202549046381e-05  1.2084910410021535e-05  5.1779316651881252e-06  2.5375476295468726e-06  2.4266406689093762e-06  1.9574009166755579e-06  1.5514534997163452e-06  9.0330086385082390e-07  4.2122359398668991e-08  9.9701495154443325e-07  2.3557411175432282e-06  1.6421228607251223e-08  1.4661378502681288e-06  1.3299553226423857e-05  4.0094255124202921e-06  2.7721006884260243e-05  6.8665822316551097e-06  7.5477913369895063e-06  2.5438430881021956e-05  1.7416079911655737e-05  2.2229192170434026e-08  1.2162306050649823e-05  4.2826508331445389e-06  6.8557361846117435e-07  2.3041175162960212e-06  1.3484582137716053e-05  1.9133894894290976e-05  1.8604098976573573e-05  5.7032724584848213e-06  9.6872194797223728e-06  7.2222398024753966e-06  9.3477516663428225e-07  9.0514504363110270e-07  7.8142847403491692e-07  4.6195390980405505e-07  2.2151680594861715e-07  8.9099456063077983e-08  2.0728559365622207e-08  1.1247053099579618e-09  6.6159114497872849e-09  6.4710557032174382e-09  3.3490228606881096e-09  1.9131069164324599e-09  2.7550648847397363e-39  -1.5581753136839564e-20  4.3519608344281358e-04  1.3826287974965192e-04  8.6569999032955243e-05  5.6138275315273709e-05  4.3675484999290893e-04  4.8464175112726500e-04  5.7149978395244956e-04  6.9047199332227210e-04  6.9838827958918078e-05  4.2664601387203382e-04  3.6774264570606664e-04  4.2581855198003607e-04  9.6769252950879416e-04  5.9289093155946249e-04  4.5099770120871513e-04  1.0937164787353988e-03  1.0499268725306557e-04  5.4996346796162018e-04  7.3784148842966481e-04  3.6189496470582784e-04  1.3679999165869729e-03  9.0324265879513168e-04  1.4888659176569550e-03  8.0648548964405915e-04  9.8814562180297972e-04  9.8485025516283778e-05  4.1080493801707923e-04  1.5618694555894785e-03  9.9017879299203248e-04  2.6929498188408559e-04  1.5443148116758073e-03  2.0401553925798602e-04  1.1209679426219415e-03  4.6500740281627700e-04  2.3941757762743101e-04  1.3107950446930134e-03  1.6889453234503282e-03  2.0103486698886037e-03  2.1477542735834545e-03  2.1030880801855768e-03  1.8687684416587292e-03  1.2781364921200980e-03  2.9783117106165879e-04  9.6800164159560728e-04  8.1812005302819520e-04  6.5679305353235490e-04  9.6096581896207929e-04  7.1862728398908995e-04  7.5908570966141546e-05  3.6827487094083191e-04  4.1041328327699788e-04  4.2676031889534577e-04  3.6089728574039440e-04  2.0461847526239587e-04  1.0314799354463198e-04  6.2009456187555825e-05  6.5663323115764069e-05  2.6302220402543262e-05  1.1698994929233412e-05  4.6593423583264449e-06  2.6698829183733384e-06  2.0240828207751971e-06  1.4000036493379593e-06  1.1448716074313046e-06  6.7034490793350444e-07  5.6206710276633207e-07  2.3067058116886910e-06  2.3545148040008724e-06  2.2789793547295499e-06  9.4839825204950699e-06  1.2831520969710861e-05  3.3671464817242723e-05  3.7692210963718667e-05  6.1252076311016275e-06  3.0406968603387523e-05  4.1253244191994404e-05  3.8651173911399346e-06  4.2423688303164575e-06  1.7105254115998016e-05  1.1109264583270537e-05  2.2744854025513716e-06  4.7262432461383596e-06  4.9780616310484834e-06  5.1969137367987384e-05  1.3223176214258041e-05  7.4131958225324855e-06  1.2054703775543680e-05  4.3822214069363162e-06  1.5735228404153696e-06  1.0766859622957091e-06  7.4482271580404504e-07  3.1918589863923383e-07  1.3604108555626232e-07  2.0224166441767519e-08  7.6855675042927080e-09  1.4776128274059693e-08  1.1185536284161595e-08  5.4447470655683842e-09  3.3438040527668776e-10  8.3528285607372140e-26  -1.7903913516545392e-20  2.8069591048339936e-04  4.3007882433423924e-04  1.2290567152075067e-05  4.2860174175255372e-04  5.8908672562522468e-04  4.8497990015215292e-04  7.3652258442528961e-04  1.3301747820915674e-04  1.3016200951711323e-03  4.8328879659946040e-04  1.6175488729306435e-05  1.0012434221888398e-03  9.6963274198292140e-04  1.0471528208541265e-05  1.1108053160633555e-03  3.8145094792302629e-04  4.7581444568172798e-04  1.2288804655439828e-03  7.1920707915127606e-04  1.6224374098128414e-03  6.0325310556369851e-04  1.1432877359170918e-03  4.9778645696594626e-04  1.6703245410186001e-03  1.4168556796180347e-03  2.1564920447450643e-03  1.7590805563060012e-03  1.5830619586767712e-03  8.4256391985982400e-04  1.9053264079960971e-03  1.4121404529369626e-03  1.9034968207074672e-03  1.8308147029215958e-03  9.6020369167043552e-04  2.1086065635612949e-04  1.3046760113336353e-03  1.8627438987321853e-03  2.1561629488226195e-03  2.3856186196867047e-03  2.4592167045403889e-03  2.3410242138800358e-03  1.7601066403163744e-03  5.2159680970197814e-04  9.8341288318035559e-04  5.8426591627671731e-04  1.9953787209737129e-03  1.4482659096676899e-03  1.0241599183033472e-03  7.9248566905671541e-04  6.7849875888186363e-04  6.1240040453282209e-04  9.9136818847277651e-04  1.2571124260266799e-04  4.5092814146769164e-04  1.6045568111773748e-04  2.3763367316507932e-06  7.4666468314222898e-05  5.5642447605106422e-05  2.3011148852789663e-05  1.0514566764147508e-05  4.5299648499821598e-06  2.7208381524022942e-06  1.7885906756707324e-06  1.3370581093738029e-06  7.0951183063996005e-07  8.1151651001409679e-07  2.6748825246850427e-06  4.9437612447635583e-06  5.0065239067780774e-07  3.7589452673251099e-07  2.0441031147474170e-05  6.3687884334896373e-06  5.2602333572305603e-05  2.0567618102389456e-05  1.5526304503049908e-05  5.0075112395178618e-05  3.6078077365181802e-05  1.5410012897054633e-05  1.0155995013978773e-06  1.6009161112530965e-05  1.4535496557327151e-05  3.7386661807526053e-06  1.7281393153687458e-05  2.8960970070274475e-05  5.3893462048697589e-05  2.5086321260537428e-06  1.0162675005679876e-06  6.5354439723899130e-06  3.4013673268330273e-07  1.5466239696940871e-06  1.0719507422269499e-06  4.8576259776005974e-07  1.9886984574789010e-07  4.9271502851644465e-08  1.2507146121507457e-09  9.4983341453277347e-09  3.7195577719152748e-09  9.0403448867541829e-10  2.3875381836422210e-09  3.5127077280431638e-39  -1.9286187408265949e-20  3.2252823296635014e-04  4.3723349792369265e-04  9.3213160615672079e-05  1.4218117439511742e-04  5.1146630446902044e-04  7.7951627946393524e-04  1.0774375209502136e-03  9.3014948064299417e-04  5.5453333425990530e-04  9.0552406089090248e-05  4.1256352475817567e-04  2.0037765477718829e-04  7.2563008585208933e-04  1.5071788443990488e-03  1.8051837208750359e-04  4.9297815616493464e-04  1.4509504496799368e-03  4.6933475603120749e-04  1.2346656548579164e-03  3.5883697749836498e-04  1.8741501794997868e-04  1.6719728593563852e-03  1.3324633130045969e-03  2.0080777296159163e-03  9.2294814712100834e-04  9.0025764692920835e-04  6.9593181798343869e-04  1.4662494029604671e-03  2.9032385222549709e-03  1.5115282386296534e-03  9.9614359802128994e-04  2.7847967596145522e-03  5.2180638331811714e-04  2.4354640922773542e-03  5.4188645874806015e-04  4.8253293550496194e-04  2.1441560723495334e-03  2.2708714620600580e-03  2.5204069751188179e-03  2.6634375113552106e-03  2.6058365846759607e-03  2.3254386354068296e-03  1.4906923576913714e-03  7.3188215857877923e-04  1.5866487134171550e-03  1.3518209755439684e-03  1.5770646513369464e-03  2.3152524562542174e-03  1.7211921104799677e-03  6.5245375419320875e-04  2.3210546424473353e-04  4.1848223736599944e-04  8.3369104072924963e-04  7.1651218826535512e-04  3.3669703165955107e-04  3.8484390240822153e-05  2.1609042272682600e-05  8.0516015628437563e-05  3.7036954521569413e-05  1.7477128917919389e-05  8.0383769587354987e-06  4.6787163805129050e-06  3.5027017884386894e-06  2.0666570512128117e-06  7.5623648833011645e-07  2.9544945772288058e-07  1.7554157628867234e-06  4.0895779120733549e-06  3.6935718124022372e-06  4.3188984356664334e-06  1.2051007235431664e-05  1.8160056220836599e-05  3.9395739245081021e-05  4.4792791523706449e-05  7.0055205074946673e-06  3.6180667993393932e-05  5.9179188467026379e-05  1.5915612224561089e-05  1.9375307034208184e-05  4.1865481945503645e-06  1.6268084933013565e-05  7.4084369562067886e-06  9.5784717314064961e-06  5.3046489705171504e-06  5.4915825239720741e-05  3.6192998100307253e-05  5.8049505447479704e-06  1.8365890689371165e-06  5.8440848106377155e-07  1.7994472851751827e-06  1.8269823171535691e-06  1.0407072183738494e-06  4.2543545175161341e-07  1.8034355112414102e-07  5.2856854291590590e-08  2.4209209451057289e-08  1.5163949967654105e-08  1.3669896416436158e-08  1.0450718094176509e-08  -7.2575002198307755e-25  -1.4217665394550545e-20  3.4742906570105599e-04  5.3388636851208838e-04  7.6433522509148082e-04  1.7946892989774649e-04  4.9377832254010557e-04  4.5787464633294912e-04  3.9974207242008081e-04  1.1639824841845902e-03  3.4186939849811180e-04  1.6160658509806133e-03  9.4189567735546295e-04  2.5773695629322245e-04  1.2246490937473282e-03  9.9614074998541011e-04  2.4209061847553262e-04  1.2447411361107181e-03  9.7625401425959900e-04  1.1264445429911779e-03  1.0383453710011638e-03  7.0698294587176165e-04  2.0187707708075675e-03  1.1804532351580123e-03  1.9506586393449208e-03  1.2596417994906468e-03  2.6438468707336085e-03  2.3405637130055582e-03  3.0127259706199923e-03  2.2158304236818941e-03  1.5469261270898741e-03  1.7321517611972005e-03  3.0399013535025690e-03  1.6244831177735443e-03  3.1341228078960847e-03  2.4153342003347292e-03  1.7284305103044506e-03  8.0282811690045053e-05  1.7123727426842496e-03  2.5770771691078901e-03  2.6191442710150558e-03  2.8048924264202132e-03  2.8865694933807137e-03  2.7391182185785845e-03  2.0257695936345748e-03  5.0255614041266677e-04  1.6008048435290109e-03  1.0143697117600721e-03  3.0707801411459915e-03  1.5185830577292760e-03  5.3441463195517741e-04  4.5618388900344170e-04  6.8737084352336474e-04  9.4808971019141126e-04  1.3615846842228131e-03  2.7378046281729996e-05  8.0936972222480611e-04  1.8745443644133146e-04  9.3048948081100790e-05  3.3298649666838513e-05  6.8157414378692836e-05  2.4842401229947718e-05  1.1383935917944044e-05  4.8574312065622005e-06  3.4866909812467617e-06  1.9537834444080546e-06  4.8629511268818109e-07  8.3798538256100689e-08  9.8238644961723903e-07  2.6849511784382454e-06  5.2698619781878957e-06  1.5947616438216116e-06  7.4958744459730844e-07  2.4044619058985544e-05  9.1640665595598917e-06  5.4590089123856689e-05  1.5461898926012640e-05  1.5049104699303129e-05  5.4180384580557348e-05  5.0113161115715847e-05  2.0391510859011387e-06  1.5965584918840790e-05  4.8964154296693392e-06  1.3881094589406006e-05  4.7709217241180831e-06  2.2053506816264589e-05  2.8758214918582562e-05  4.7788059803800940e-05  2.3381627710899256e-05  1.1337177824727089e-05  9.3566948549516016e-07  3.5375654299673329e-06  2.3966505852388739e-06  1.8098714416127293e-06  8.4231031233103911e-07  4.0798645508165630e-07  1.5020744500174112e-07  7.8005398273372489e-08  4.3242235658831818e-08  3.4051517145913715e-08  2.0548624451776077e-08  0.0000000000000000e+00  -5.9657487380820121e-21  2.5612269029190487e-04  5.2375394252052491e-04  4.2342842339428437e-04  5.7324664591369722e-04  1.6723588869088321e-04  5.8184536587384402e-04  1.0435550958374795e-03  1.3365163861629636e-03  1.1906921628250964e-03  4.7756242911541525e-04  4.8329402902694648e-04  7.7091410306988670e-07  1.8962234721886406e-04  1.1865514165083260e-03  1.7310559618254088e-03  8.8084149349442880e-05  2.0687981350561249e-04  1.1117186918359792e-03  2.0862939510378630e-04  1.5575248909126011e-03  5.2856706304439269e-05  3.4299000241659361e-04  1.2745016997138868e-03  1.0532517689136199e-03  1.8033203406555036e-03  4.0991922916109469e-04  3.0328172270850846e-04  1.4825367370273248e-03  2.2937287762960505e-03  3.7584691103436495e-03  1.4958484456701481e-03  2.0141496375340761e-03  3.6703065678856603e-03  1.1491347194755308e-03  3.5372456004568202e-03  8.2991052897935652e-04  7.1731510103805428e-04  2.8071287980766346e-03  2.8789829292930505e-03  2.9503005141187401e-03  3.0765010131829210e-03  3.0246367836010346e-03  2.7100935816623604e-03  1.6197048690605594e-03  1.0301610354275777e-03  2.2495489061340390e-03  1.5586777640358800e-03  2.5811657041222048e-03  3.0970790621499072e-03  2.0803037272388619e-03  9.6762481906361917e-04  6.9582256703276527e-05  1.5962333187831925e-04  1.2529471899105423e-03  8.6702474121965020e-04  5.7588107332261240e-04  1.8068339353795290e-06  1.2351258171961385e-04  7.9254435826834769e-05  5.0814274196652727e-05  2.0049266944972672e-05  8.2231686084671988e-06  3.2626312049283418e-06  1.6521716399688024e-06  5.3866737568183129e-07  5.3499469341303696e-07  9.8946629697672549e-07  1.7052239885018721e-06  4.0461890469224449e-06  3.0515446605036980e-06  7.6378670394071286e-06  1.3456120395420981e-05  1.7974053986362917e-05  4.2457232826310840e-05  3.5967914158648170e-05  1.3530504670648446e-06  3.5185209791734904e-05  5.9505068650536685e-05  2.5849118428213914e-05  6.9356167774750266e-06  1.7177777525867968e-05  3.2452240330763783e-06  4.6009328853313237e-06  1.9436279965724653e-05  3.3320280843885978e-06  4.5603801327466700e-05  3.0380277906496600e-05  2.2040496290088313e-05  7.8984246522486454e-06  4.3457878917190329e-06  3.8905077908206936e-06  2.5458106899216362e-06  1.4026816358548633e-06  6.7432856051039727e-07  2.9481923566706859e-07  1.3560379513471244e-07  7.5762947521613604e-08  5.2386928329894056e-08  3.0215010378609076e-08  -1.7632415262334313e-38  -1.9276461529509489e-20  1.0746937517524860e-04  3.8740631316063357e-04  6.7208674415100396e-04  6.7813638059793465e-04  9.5708269952253232e-05  6.2068671316520610e-04  2.3178177922510580e-04  9.8944829033379699e-05  1.5345978213383877e-03  5.6380264151047958e-04  1.5206630947272727e-03  8.9757727192031774e-04  2.3074523790069304e-04  1.1751348801595240e-03  1.2715231834081304e-03  5.8709138732975408e-04  9.2361325330196132e-04  9.4248667637476856e-04  1.3014779727963512e-03  8.9310100527022879e-04  2.6049682010781584e-04  1.7353294562890388e-03  9.3747825698944193e-04  2.0696058144910349e-03  1.3676036588060375e-03  2.8997570655517227e-03  2.3931141872346388e-03  3.0270006835159224e-03  1.9778899944648213e-03  1.1085910213052238e-03  2.6286418445589286e-03  3.6107032001659227e-03  1.4285793362307753e-03  4.3333386314668510e-03  2.5769682025441241e-03  2.8045381337358732e-03  5.2509761626644641e-05  2.0225034962727136e-03  3.4109169496931041e-03  3.2007411943049341e-03  3.2630842101122061e-03  3.3422446648932931e-03  3.1684928971271197e-03  2.3124788522728493e-03  4.6245707348444921e-04  2.1644171783099723e-03  1.4445861268882233e-03  3.7516167755640680e-03  1.1769657683048211e-03  2.3350397613461376e-04  1.5378495144531039e-04  2.3941456722136693e-04  8.1063926892540846e-04  1.3863978137398066e-03  2.3537990607568423e-04  1.0926784865147906e-03  2.9340317257963588e-04  1.6644804331198595e-04  5.1176351125746960e-05  8.2029047576129610e-05  3.4271867674854754e-05  1.5541439109450829e-05  5.6069381940974968e-06  1.6695508696824844e-06  4.6684800203331776e-07  8.6414112971114538e-07  1.5930566783319459e-06  1.9095566333651026e-06  3.1783296423804650e-06  6.3780006389529592e-06  3.9524268717552741e-06  1.5982117117092529e-06  2.7120130257669073e-05  1.3646619821993733e-05  5.1046240955351617e-05  3.7299949267991539e-06  1.3163428853652689e-05  5.0720455209066834e-05  4.7290091685821021e-05  7.2657011220768778e-06  1.0902633207357353e-05  1.1798310697263188e-05  4.7492450068087329e-06  6.0969434418061496e-06  2.5320958420147223e-05  2.9836842224317913e-05  3.5615842691646298e-05  2.4461584224514308e-05  1.8660033725331688e-05  7.4098330983727449e-07  5.0550809909530518e-06  3.6952494166810517e-06  2.2324551036011174e-06  1.0391454595956179e-06  5.2714320162244027e-07  2.0859270769882239e-07  1.1693274670950664e-07  6.6846063867247645e-08  4.1026063023558418e-08  6.5374369794218571e-25  -3.7461102947597944e-21  3.4725385984528325e-04  5.0884346801315561e-04  5.7706073023669154e-04  4.7838547777589280e-04  7.9142606799797142e-04  4.6183347206214729e-05  4.9924936062126950e-04  9.0217597514650344e-04  1.2819639487318280e-03  1.5256997087893295e-03  6.3417329603828506e-04  5.2204406093380622e-04  3.1457784674960437e-04  3.5554034394145773e-04  1.3699407164638323e-03  1.8227758817903419e-03  1.2