<?xml version="1.0"?>
<VTKFile type="UnstructuredGrid"  version="0.1"  >
<UnstructuredGrid>
<Piece  NumberOfPoints="10201" NumberOfCells="20000">
<Points>
<DataArray  type="Float64"  NumberOfComponents="3"  format="ascii">0 0 0  0.01 0 0  0.02 0 0  0.03 0 0  0.04 0 0  0.05 0 0  0.06 0 0  0.07000000000000001 0 0  0.08 0 0  0.09 0 0  0.1 0 0  0.11 0 0  0.12 0 0  0.13 0 0  0.14 0 0  0.15 0 0  0.16 0 0  0.17 0 0  0.18 0 0  0.19 0 0  0.2 0 0  0.21 0 0  0.22 0 0  0.23 0 0  0.24 0 0  0.25 0 0  0.26 0 0  0.27 0 0  0.28 0 0  0.29 0 0  0.3 0 0  0.31 0 0  0.32 0 0  0.33 0 0  0.34 0 0  0.35 0 0  0.36 0 0  0.37 0 0  0.38 0 0  0.39 0 0  0.4 0 0  0.41 0 0  0.42 0 0  0.43 0 0  0.44 0 0  0.45 0 0  0.46 0 0  0.47 0 0  0.48 0 0  0.49 0 0  0.5 0 0  0.51 0 0  0.52 0 0  0.53 0 0  0.54 0 0  0.55 0 0  0.5600000000000001 0 0  0.57 0 0  0.58 0 0  0.59 0 0  0.6 0 0  0.61 0 0  0.62 0 0  0.63 0 0  0.64 0 0  0.65 0 0  0.66 0 0  0.67 0 0  0.68 0 0  0.6899999999999999 0 0  0.7 0 0  0.71 0 0  0.72 0 0  0.73 0 0  0.74 0 0  0.75 0 0  0.76 0 0  0.77 0 0  0.78 0 0  0.79 0 0  0.8 0 0  0.8100000000000001 0 0  0.82 0 0  0.83 0 0  0.84 0 0  0.85 0 0  0.86 0 0  0.87 0 0  0.88 0 0  0.89 0 0  0.9 0 0  0.91 0 0  0.92 0 0  0.93 0 0  0.9399999999999999 0 0  0.95 0 0  0.96 0 0  0.97 0 0  0.98 0 0  0.99 0 0  1 0 0  0 0.01 0  0.01 0.01 0  0.02 0.01 0  0.03 0.01 0  0.04 0.01 0  0.05 0.01 0  0.06 0.01 0  0.07000000000000001 0.01 0  0.08 0.01 0  0.09 0.01 0  0.1 0.01 0  0.11 0.01 0  0.12 0.01 0  0.13 0.01 0  0.14 0.01 0  0.15 0.01 0  0.16 0.01 0  0.17 0.01 0  0.18 0.01 0  0.19 0.01 0  0.2 0.01 0  0.21 0.01 0  0.22 0.01 0  0.23 0.01 0  0.24 0.01 0  0.25 0.01 0  0.26 0.01 0  0.27 0.01 0  0.28 0.01 0  0.29 0.01 0  0.3 0.01 0  0.31 0.01 0  0.32 0.01 0  0.33 0.01 0  0.34 0.01 0  0.35 0.01 0  0.36 0.01 0  0.37 0.01 0  0.38 0.01 0  0.39 0.01 0  0.4 0.01 0  0.41 0.01 0  0.42 0.01 0  0.43 0.01 0  0.44 0.01 0  0.45 0.01 0  0.46 0.01 0  0.47 0.01 0  0.48 0.01 0  0.49 0.01 0  0.5 0.01 0  0.51 0.01 0  0.52 0.01 0  0.53 0.01 0  0.54 0.01 0  0.55 0.01 0  0.5600000000000001 0.01 0  0.57 0.01 0  0.58 0.01 0  0.59 0.01 0  0.6 0.01 0  0.61 0.01 0  0.62 0.01 0  0.63 0.01 0  0.64 0.01 0  0.65 0.01 0  0.66 0.01 0  0.67 0.01 0  0.68 0.01 0  0.6899999999999999 0.01 0  0.7 0.01 0  0.71 0.01 0  0.72 0.01 0  0.73 0.01 0  0.74 0.01 0  0.75 0.01 0  0.76 0.01 0  0.77 0.01 0  0.78 0.01 0  0.79 0.01 0  0.8 0.01 0  0.8100000000000001 0.01 0  0.82 0.01 0  0.83 0.01 0  0.84 0.01 0  0.85 0.01 0  0.86 0.01 0  0.87 0.01 0  0.88 0.01 0  0.89 0.01 0  0.9 0.01 0  0.91 0.01 0  0.92 0.01 0  0.93 0.01 0  0.9399999999999999 0.01 0  0.95 0.01 0  0.96 0.01 0  0.97 0.01 0  0.98 0.01 0  0.99 0.01 0  1 0.01 0  0 0.02 0  0.01 0.02 0  0.02 0.02 0  0.03 0.02 0  0.04 0.02 0  0.05 0.02 0  0.06 0.02 0  0.07000000000000001 0.02 0  0.08 0.02 0  0.09 0.02 0  0.1 0.02 0  0.11 0.02 0  0.12 0.02 0  0.13 0.02 0  0.14 0.02 0  0.15 0.02 0  0.16 0.02 0  0.17 0.02 0  0.18 0.02 0  0.19 0.02 0  0.2 0.02 0  0.21 0.02 0  0.22 0.02 0  0.23 0.02 0  0.24 0.02 0  0.25 0.02 0  0.26 0.02 0  0.27 0.02 0  0.28 0.02 0  0.29 0.02 0  0.3 0.02 0  0.31 0.02 0  0.32 0.02 0  0.33 0.02 0  0.34 0.02 0  0.35 0.02 0  0.36 0.02 0  0.37 0.02 0  0.38 0.02 0  0.39 0.02 0  0.4 0.02 0  0.41 0.02 0  0.42 0.02 0  0.43 0.02 0  0.44 0.02 0  0.45 0.02 0  0.46 0.02 0  0.47 0.02 0  0.48 0.02 0  0.49 0.02 0  0.5 0.02 0  0.51 0.02 0  0.52 0.02 0  0.53 0.02 0  0.54 0.02 0  0.55 0.02 0  0.5600000000000001 0.02 0  0.57 0.02 0  0.58 0.02 0  0.59 0.02 0  0.6 0.02 0  0.61 0.02 0  0.62 0.02 0  0.63 0.02 0  0.64 0.02 0  0.65 0.02 0  0.66 0.02 0  0.67 0.02 0  0.68 0.02 0  0.6899999999999999 0.02 0  0.7 0.02 0  0.71 0.02 0  0.72 0.02 0  0.73 0.02 0  0.74 0.02 0  0.75 0.02 0  0.76 0.02 0  0.77 0.02 0  0.78 0.02 0  0.79 0.02 0  0.8 0.02 0  0.8100000000000001 0.02 0  0.82 0.02 0  0.83 0.02 0  0.84 0.02 0  0.85 0.02 0  0.86 0.02 0  0.87 0.02 0  0.88 0.02 0  0.89 0.02 0  0.9 0.02 0  0.91 0.02 0  0.92 0.02 0  0.93 0.02 0  0.9399999999999999 0.02 0  0.95 0.02 0  0.96 0.02 0  0.97 0.02 0  0.98 0.02 0  0.99 0.02 0  1 0.02 0  0 0.03 0  0.01 0.03 0  0.02 0.03 0  0.03 0.03 0  0.04 0.03 0  0.05 0.03 0  0.06 0.03 0  0.07000000000000001 0.03 0  0.08 0.03 0  0.09 0.03 0  0.1 0.03 0  0.11 0.03 0  0.12 0.03 0  0.13 0.03 0  0.14 0.03 0  0.15 0.03 0  0.16 0.03 0  0.17 0.03 0  0.18 0.03 0  0.19 0.03 0  0.2 0.03 0  0.21 0.03 0  0.22 0.03 0  0.23 0.03 0  0.24 0.03 0  0.25 0.03 0  0.26 0.03 0  0.27 0.03 0  0.28 0.03 0  0.29 0.03 0  0.3 0.03 0  0.31 0.03 0  0.32 0.03 0  0.33 0.03 0  0.34 0.03 0  0.35 0.03 0  0.36 0.03 0  0.37 0.03 0  0.38 0.03 0  0.39 0.03 0  0.4 0.03 0  0.41 0.03 0  0.42 0.03 0  0.43 0.03 0  0.44 0.03 0  0.45 0.03 0  0.46 0.03 0  0.47 0.03 0  0.48 0.03 0  0.49 0.03 0  0.5 0.03 0  0.51 0.03 0  0.52 0.03 0  0.53 0.03 0  0.54 0.03 0  0.55 0.03 0  0.5600000000000001 0.03 0  0.57 0.03 0  0.58 0.03 0  0.59 0.03 0  0.6 0.03 0  0.61 0.03 0  0.62 0.03 0  0.63 0.03 0  0.64 0.03 0  0.65 0.03 0  0.66 0.03 0  0.67 0.03 0  0.68 0.03 0  0.6899999999999999 0.03 0  0.7 0.03 0  0.71 0.03 0  0.72 0.03 0  0.73 0.03 0  0.74 0.03 0  0.75 0.03 0  0.76 0.03 0  0.77 0.03 0  0.78 0.03 0  0.79 0.03 0  0.8 0.03 0  0.8100000000000001 0.03 0  0.82 0.03 0  0.83 0.03 0  0.84 0.03 0  0.85 0.03 0  0.86 0.03 0  0.87 0.03 0  0.88 0.03 0  0.89 0.03 0  0.9 0.03 0  0.91 0.03 0  0.92 0.03 0  0.93 0.03 0  0.9399999999999999 0.03 0  0.95 0.03 0  0.96 0.03 0  0.97 0.03 0  0.98 0.03 0  0.99 0.03 0  1 0.03 0  0 0.04 0  0.01 0.04 0  0.02 0.04 0  0.03 0.04 0  0.04 0.04 0  0.05 0.04 0  0.06 0.04 0  0.07000000000000001 0.04 0  0.08 0.04 0  0.09 0.04 0  0.1 0.04 0  0.11 0.04 0  0.12 0.04 0  0.13 0.04 0  0.14 0.04 0  0.15 0.04 0  0.16 0.04 0  0.17 0.04 0  0.18 0.04 0  0.19 0.04 0  0.2 0.04 0  0.21 0.04 0  0.22 0.04 0  0.23 0.04 0  0.24 0.04 0  0.25 0.04 0  0.26 0.04 0  0.27 0.04 0  0.28 0.04 0  0.29 0.04 0  0.3 0.04 0  0.31 0.04 0  0.32 0.04 0  0.33 0.04 0  0.34 0.04 0  0.35 0.04 0  0.36 0.04 0  0.37 0.04 0  0.38 0.04 0  0.39 0.04 0  0.4 0.04 0  0.41 0.04 0  0.42 0.04 0  0.43 0.04 0  0.44 0.04 0  0.45 0.04 0  0.46 0.04 0  0.47 0.04 0  0.48 0.04 0  0.49 0.04 0  0.5 0.04 0  0.51 0.04 0  0.52 0.04 0  0.53 0.04 0  0.54 0.04 0  0.55 0.04 0  0.5600000000000001 0.04 0  0.57 0.04 0  0.58 0.04 0  0.59 0.04 0  0.6 0.04 0  0.61 0.04 0  0.62 0.04 0  0.63 0.04 0  0.64 0.04 0  0.65 0.04 0  0.66 0.04 0  0.67 0.04 0  0.68 0.04 0  0.6899999999999999 0.04 0  0.7 0.04 0  0.71 0.04 0  0.72 0.04 0  0.73 0.04 0  0.74 0.04 0  0.75 0.04 0  0.76 0.04 0  0.77 0.04 0  0.78 0.04 0  0.79 0.04 0  0.8 0.04 0  0.8100000000000001 0.04 0  0.82 0.04 0  0.83 0.04 0  0.84 0.04 0  0.85 0.04 0  0.86 0.04 0  0.87 0.04 0  0.88 0.04 0  0.89 0.04 0  0.9 0.04 0  0.91 0.04 0  0.92 0.04 0  0.93 0.04 0  0.9399999999999999 0.04 0  0.95 0.04 0  0.96 0.04 0  0.97 0.04 0  0.98 0.04 0  0.99 0.04 0  1 0.04 0  0 0.05 0  0.01 0.05 0  0.02 0.05 0  0.03 0.05 0  0.04 0.05 0  0.05 0.05 0  0.06 0.05 0  0.07000000000000001 0.05 0  0.08 0.05 0  0.09 0.05 0  0.1 0.05 0  0.11 0.05 0  0.12 0.05 0  0.13 0.05 0  0.14 0.05 0  0.15 0.05 0  0.16 0.05 0  0.17 0.05 0  0.18 0.05 0  0.19 0.05 0  0.2 0.05 0  0.21 0.05 0  0.22 0.05 0  0.23 0.05 0  0.24 0.05 0  0.25 0.05 0  0.26 0.05 0  0.27 0.05 0  0.28 0.05 0  0.29 0.05 0  0.3 0.05 0  0.31 0.05 0  0.32 0.05 0  0.33 0.05 0  0.34 0.05 0  0.35 0.05 0  0.36 0.05 0  0.37 0.05 0  0.38 0.05 0  0.39 0.05 0  0.4 0.05 0  0.41 0.05 0  0.42 0.05 0  0.43 0.05 0  0.44 0.05 0  0.45 0.05 0  0.46 0.05 0  0.47 0.05 0  0.48 0.05 0  0.49 0.05 0  0.5 0.05 0  0.51 0.05 0  0.52 0.05 0  0.53 0.05 0  0.54 0.05 0  0.55 0.05 0  0.5600000000000001 0.05 0  0.57 0.05 0  0.58 0.05 0  0.59 0.05 0  0.6 0.05 0  0.61 0.05 0  0.62 0.05 0  0.63 0.05 0  0.64 0.05 0  0.65 0.05 0  0.66 0.05 0  0.67 0.05 0  0.68 0.05 0  0.6899999999999999 0.05 0  0.7 0.05 0  0.71 0.05 0  0.72 0.05 0  0.73 0.05 0  0.74 0.05 0  0.75 0.05 0  0.76 0.05 0  0.77 0.05 0  0.78 0.05 0  0.79 0.05 0  0.8 0.05 0  0.8100000000000001 0.05 0  0.82 0.05 0  0.83 0.05 0  0.84 0.05 0  0.85 0.05 0  0.86 0.05 0  0.87 0.05 0  0.88 0.05 0  0.89 0.05 0  0.9 0.05 0  0.91 0.05 0  0.92 0.05 0  0.93 0.05 0  0.9399999999999999 0.05 0  0.95 0.05 0  0.96 0.05 0  0.97 0.05 0  0.98 0.05 0  0.99 0.05 0  1 0.05 0  0 0.06 0  0.01 0.06 0  0.02 0.06 0  0.03 0.06 0  0.04 0.06 0  0.05 0.06 0  0.06 0.06 0  0.07000000000000001 0.06 0  0.08 0.06 0  0.09 0.06 0  0.1 0.06 0  0.11 0.06 0  0.12 0.06 0  0.13 0.06 0  0.14 0.06 0  0.15 0.06 0  0.16 0.06 0  0.17 0.06 0  0.18 0.06 0  0.19 0.06 0  0.2 0.06 0  0.21 0.06 0  0.22 0.06 0  0.23 0.06 0  0.24 0.06 0  0.25 0.06 0  0.26 0.06 0  0.27 0.06 0  0.28 0.06 0  0.29 0.06 0  0.3 0.06 0  0.31 0.06 0  0.32 0.06 0  0.33 0.06 0  0.34 0.06 0  0.35 0.06 0  0.36 0.06 0  0.37 0.06 0  0.38 0.06 0  0.39 0.06 0  0.4 0.06 0  0.41 0.06 0  0.42 0.06 0  0.43 0.06 0  0.44 0.06 0  0.45 0.06 0  0.46 0.06 0  0.47 0.06 0  0.48 0.06 0  0.49 0.06 0  0.5 0.06 0  0.51 0.06 0  0.52 0.06 0  0.53 0.06 0  0.54 0.06 0  0.55 0.06 0  0.5600000000000001 0.06 0  0.57 0.06 0  0.58 0.06 0  0.59 0.06 0  0.6 0.06 0  0.61 0.06 0  0.62 0.06 0  0.63 0.06 0  0.64 0.06 0  0.65 0.06 0  0.66 0.06 0  0.67 0.06 0  0.68 0.06 0  0.6899999999999999 0.06 0  0.7 0.06 0  0.71 0.06 0  0.72 0.06 0  0.73 0.06 0  0.74 0.06 0  0.75 0.06 0  0.76 0.06 0  0.77 0.06 0  0.78 0.06 0  0.79 0.06 0  0.8 0.06 0  0.8100000000000001 0.06 0  0.82 0.06 0  0.83 0.06 0  0.84 0.06 0  0.85 0.06 0  0.86 0.06 0  0.87 0.06 0  0.88 0.06 0  0.89 0.06 0  0.9 0.06 0  0.91 0.06 0  0.92 0.06 0  0.93 0.06 0  0.9399999999999999 0.06 0  0.95 0.06 0  0.96 0.06 0  0.97 0.06 0  0.98 0.06 0  0.99 0.06 0  1 0.06 0  0 0.07000000000000001 0  0.01 0.07000000000000001 0  0.02 0.07000000000000001 0  0.03 0.07000000000000001 0  0.04 0.07000000000000001 0  0.05 0.07000000000000001 0  0.06 0.07000000000000001 0  0.07000000000000001 0.07000000000000001 0  0.08 0.07000000000000001 0  0.09 0.07000000000000001 0  0.1 0.07000000000000001 0  0.11 0.07000000000000001 0  0.12 0.07000000000000001 0  0.13 0.07000000000000001 0  0.14 0.07000000000000001 0  0.15 0.07000000000000001 0  0.16 0.07000000000000001 0  0.17 0.0700
[...]
<PointData  Scalars="Indicator Function"> 
<DataArray  type="Float64"  Name="Indicator Function"  format="ascii">-1.2037062152420224e-35  -6.6297126233272844e-20  2.2059177225280773e-20  3.2277305043622798e-19  3.4358996909137289e-19  -3.5370328356724792e-20  -3.0959727336666528e-20  6.5224939507997811e-19  9.2539223928257660e-19  -7.5231638452626401e-36  4.9535577229455513e-18  2.8192986927659784e-18  -4.1428336344796115e-20  -3.6222600651010599e-20  7.7397977090567217e-18  -9.0549399358923507e-21  -5.7088715184044300e-21  2.1587208719174308e-18  -3.5668678054332174e-20  -4.2129717533470784e-35  5.6536488198350758e-18  6.0185310762101120e-36  -3.8659838829742281e-20  1.2996973803122429e-17  -5.2440658320504180e-20  -2.6220329160252099e-20  -1.9700541464808674e-20  -4.5895559572317090e-20  4.1406123104118506e-17  -1.7550872066759456e-20  -8.3877939532120403e-20  -3.0046136219166506e-20  -4.9354289553227048e-20  -1.5282374602020155e-20  2.3089239874299810e-17  -9.6593722642356311e-20  -1.2880204307636990e-19  -1.4623108781043925e-19  -1.5139865049043625e-19  -1.4738088467433792e-19  8.8341465259538576e-18  -8.6048212898873903e-20  -2.5532789302478990e-20  -3.4017646070276955e-20  -2.0061639416981263e-20  -2.2678331676063643e-20  2.9379441600609523e-17  -1.4704003632234563e-20  -8.1457523195985334e-21  -1.4231298245157219e-21  -2.2807174627896710e-20  -1.1403587313948355e-20  -8.3198552458347626e-21  -9.5237693166788774e-21  -8.7543165658861721e-21  -5.0115032053919438e-21  2.6003503219800132e-19  -8.4511891548843921e-22  -3.0392495125892961e-22  -5.8815553156916396e-22  -2.7543775461185068e-22  -6.9954161300297823e-22  -9.6547825021599195e-22  -1.6316377237980031e-21  -1.8738999135824315e-21  -6.4987969381696797e-22  -2.7077575412898027e-21  -2.2641258331350854e-21  1.9431189369251561e-18  0.0000000000000000e+00  -2.2346151692057149e-22  -4.3252876287454823e-22  -4.9147370376023367e-22  -5.8326592594263828e-22  -6.4933983784151894e-22  -5.6010741895394950e-22  -6.5043559644062400e-22  -5.5336972997726855e-22  -5.7193660203740264e-22  -7.0051510725418023e-22  -6.3171451383726029e-22  1.4882799736165772e-20  -3.8661216386247735e-22  0.0000000000000000e+00  0.0000000000000000e+00  -1.8289598365606577e-22  -2.1237621063348512e-22  -1.3777286764216058e-22  -3.1587864268202891e-22  -1.1181932476326570e-22  -1.7108969544024075e-22  -1.1736321117802862e-23  -3.7050105337872555e-22  4.5818580212968306e-19  -2.4509529890005204e-22  -1.4631659656844143e-22  -7.3963645995775795e-23  -5.9395577833659155e-23  -3.0557925396648568e-23  -2.3524773979326577e-23  0.0000000000000000e+00  -3.5748003770944141e-20  5.6422445994225366e-04  2.3434435898771685e-04  1.5613142021650479e-04  3.5368952154700407e-04  2.8212811822085019e-04  4.9611113131884624e-04  3.0966530032819177e-04  7.0258297366219090e-04  5.7400622371180843e-05  2.8565838138334264e-05  4.3840070733677024e-04  7.5455375869275981e-04  3.6902968115363360e-04  4.6801352260030795e-04  2.7238954629150335e-04  2.6924523338836275e-05  7.8175678144339815e-04  1.3401214592582758e-04  6.4254978077715416e-04  2.1089796552513709e-04  3.1848555239478386e-04  2.4642313767222254e-04  5.7322217415521626e-04  2.1526053666001880e-04  9.4468691708514451e-04  7.0978680959927468e-04  9.3590426595805754e-04  3.5882876697235965e-04  6.3233680719908042e-04  8.5696897168271633e-04  1.0825261430444915e-03  6.7836603312584833e-04  5.4990482360127121e-04  3.5037445133469600e-07  8.5245579163751358e-04  1.3138499173750231e-03  1.6633663741256804e-03  1.8025819032294655e-03  1.8260646721177656e-03  1.7419456531446460e-03  1.3917098937892831e-03  8.5425185129442069e-04  4.5995784155349495e-04  3.8282851188773547e-04  8.1707300868567412e-04  6.0374265794406077e-04  5.2976756223188789e-04  2.9348165688957036e-04  2.5976319905804710e-06  2.5636827789555374e-05  4.1085753262227781e-04  1.0696542863321260e-04  9.6394473623065326e-05  1.2336773897149751e-04  9.6019877810284466e-05  7.0331249178393984e-05  4.5186510825265812e-05  2.5259288935713171e-05  1.4656015532978388e-05  9.5372133505042509e-06  9.8169023040376903e-06  7.6933702385826313e-06  1.7414759419683374e-05  2.0685592469759633e-05  2.3414383575277965e-05  2.8265681162444461e-05  3.4645782834627395e-05  2.3463973616395207e-05  1.2316107482257429e-05  2.2959706452923965e-06  4.0255248173405246e-06  5.7789830925650846e-06  5.9641116101854034e-06  9.0985020573419128e-06  7.1482155782885739e-06  8.7225587658978790e-06  7.4465571578944824e-06  6.6496438671653838e-06  8.9143660646034918e-06  8.1621752716875690e-06  9.8424601026349449e-06  8.2829036084272098e-06  2.8231337842182087e-06  1.9618008482012695e-06  2.4997350063649659e-06  2.0448936321815902e-06  4.9637906829999890e-06  3.3232959904300582e-06  4.0287157546933052e-06  6.1641559090527975e-06  4.2284553130270183e-07  7.9243762899420094e-07  6.2781348092499624e-06  1.0754970291807456e-06  3.8774958725957665e-06  6.9705754283712425e-07  1.3324105941821562e-06  4.0377031170541241e-07  8.4756930661816145e-07  2.3524773979326648e-23  -1.2888719448002917e-20  6.4397878584825227e-04  1.6480933363463020e-04  9.5717702051763273e-05  1.0216819455012717e-05  3.4017020649178368e-04  5.4075653571740434e-04  6.5684061092994835e-04  7.7975647634770254e-04  6.5720980210105318e-05  1.9239467206369316e-04  4.8502816105844211e-04  6.6284157918419199e-04  1.0005526650841375e-03  9.4245538767010080e-04  6.3089414273957234e-04  1.2436911555775755e-03  7.0693816813298675e-05  4.9738554615666789e-04  9.9316885304404990e-04  4.7525468352333899e-04  1.6344692850159810e-03  1.0651192151899574e-03  1.7652992272409265e-03  1.0148331265087279e-03  1.2836136704858976e-03  3.3646937727590317e-05  3.2945399183155179e-04  1.7499757673465326e-03  1.2678493152455865e-03  4.6796519248533009e-05  1.7486984852303565e-03  1.2231630673513932e-04  1.1859224205881197e-03  6.7334551647769384e-04  1.1486719047424259e-03  1.6262554817625464e-03  2.1664039512283208e-03  2.4992805268474996e-03  2.5955727686973345e-03  2.5248176270179041e-03  2.3205073286392567e-03  1.7452893715214743e-03  2.4996162072779039e-04  1.0918489435545263e-03  9.4396943051121957e-04  9.0026597689822792e-04  1.2820529954773363e-03  1.0884726498413509e-03  3.7121458038750848e-04  3.7333431550121235e-04  6.6141384658663339e-04  2.1943667397674699e-04  2.9697659199569027e-04  1.2467796553162816e-04  1.3324015987864455e-04  9.6170875620320374e-05  8.2479933573924107e-05  4.7238079609653631e-05  2.8241528415301301e-05  2.0249903189312727e-05  1.1066767367808433e-05  1.4485867330151607e-05  1.8349876142269276e-05  2.3632889716173305e-05  3.9987430314411337e-05  1.1290011421716265e-05  6.0393019203685133e-05  3.0910503592221438e-05  2.0093616444350510e-05  7.7413966410436731e-06  1.1895620034641517e-07  5.5235043858221715e-06  1.2595051475217306e-05  9.0550680511734530e-06  1.3670358526438912e-05  9.8483323754511666e-06  1.1704716397454011e-05  1.0762129179699796e-05  1.2862647139437183e-05  1.3304500805551615e-05  1.0603133488162903e-05  1.2949658205060397e-05  1.1549147539690232e-05  9.9587854159818001e-07  3.7684697829347626e-06  7.0564475067258717e-06  2.4645299432903559e-06  3.5332297052849558e-06  8.2171219543559828e-06  5.8253119461418914e-06  3.8303088999728036e-06  2.3330745316261769e-06  8.4179808418400661e-06  3.5382693327081208e-07  5.7590316682505951e-06  2.5765507884216804e-07  1.8463601289949338e-06  2.7606052531076390e-06  1.7688800978279118e-07  -4.6829096032298177e-22  -2.4084582823383307e-20  2.3218252841323604e-04  4.5463470890280488e-04  7.6141324557298044e-05  5.3046673788162315e-04  7.4277191002230191e-04  6.5978572073985568e-04  8.7180110891424683e-04  2.2394652172773693e-04  1.3423114970726650e-03  5.0723548935255834e-04  4.6480635235390360e-06  1.0619181180181265e-03  1.2598573599756689e-03  2.6332801623287530e-04  1.0338006501468360e-03  2.0079592161514420e-04  3.3949789550852727e-04  1.5536677716824810e-03  8.3385714020182099e-04  1.7714936471044716e-03  4.4417883498802424e-04  1.1465930300551396e-03  3.2257758761307858e-04  1.6884909212816776e-03  1.4523616973908639e-03  2.4937956243431419e-03  2.1103945517955513e-03  2.0226184201137570e-03  7.8891507749653692e-04  2.1695979125943630e-03  1.9764733342168168e-03  2.1415639910205325e-03  2.2485464931033153e-03  1.0122599523698110e-03  2.4484574248696828e-04  1.9947947214183485e-03  2.2462125561768147e-03  2.7474967256695035e-03  2.9649965970378273e-03  3.0037570677647488e-03  2.8231658788106647e-03  2.1468972361218413e-03  1.3622368694600495e-03  1.3897246136158642e-03  7.5212962219415691e-04  2.3735364676828389e-03  1.3860803720064294e-03  8.1995846595105842e-04  4.7002242539171155e-04  1.4912235867680219e-04  1.9326843851001657e-04  1.0417610247233239e-03  4.5993839873616313e-04  2.3249681430306221e-04  1.1646006301782087e-04  8.4169986320031955e-05  8.2771287684794550e-05  7.0587971013937544e-05  4.0342552717504152e-05  2.5645516454928424e-05  1.9489679463437282e-05  1.7430744974090552e-05  1.2257421792805964e-05  3.2423491504640933e-05  2.7439756267014984e-05  3.9416941458614772e-05  7.0953985191503840e-05  5.3409185469258512e-05  1.6476534819754045e-05  1.1428644071435208e-05  8.0321557307585439e-07  4.7690257589983622e-06  6.4438538437223885e-06  1.2272491492833952e-05  1.4315975520185938e-05  1.2959635921847957e-05  1.4903668845387137e-05  1.1907483630880011e-05  1.1052099680449930e-05  1.7262891111394081e-05  1.4330128024648373e-05  1.5810327708605250e-05  1.2647826548187622e-05  5.2902529998947813e-06  4.2878571064539810e-06  8.2989681176669918e-06  7.0580107193297326e-06  8.7491629562377222e-06  5.8455680092292629e-06  6.6807773116386552e-06  1.8999245569539562e-05  3.4908625353371314e-06  1.8559867526225137e-08  1.5003452099564015e-05  4.3652392583040197e-06  6.6959571070554428e-06  2.9392700598295251e-06  5.0072430764873405e-06  2.4609690751357302e-06  -3.4152806626326943e-22  -1.8787534673712593e-20  4.3386927291505235e-04  6.0887148783870854e-04  2.9628043552396511e-06  1.5426346780389000e-04  4.8731146577905008e-04  6.9658129793786529e-04  1.1669995640070715e-03  1.0593367214791981e-03  6.7738300546235479e-04  2.0727405523210225e-04  7.9996753989347023e-06  4.6441092937106156e-04  1.0096670329090482e-03  1.5131429700134733e-03  7.5151351938946534e-04  9.6361238354438915e-04  1.7928883515480193e-03  3.6428686706248975e-04  1.1974017852952187e-03  6.7898509645963564e-04  4.1425947056268430e-04  2.1456496105881134e-03  1.6909501257917072e-03  2.5257145051418729e-03  1.3268069186213422e-03  1.3524190478279821e-03  5.3302374215327176e-04  1.4945465481058760e-03  3.3237041670803901e-03  2.0077811198551164e-03  7.2603393741438901e-04  3.2413705029113418e-03  3.9813106939437791e-04  2.6823017498743742e-03  8.4856230866460123e-04  1.9657579440777793e-03  2.4324989009868194e-03  2.8071959279398263e-03  3.1892178114837685e-03  3.2890885553364057e-03  3.2042200978209794e-03  2.9438956342845877e-03  2.0413415665189575e-03  5.8487551116149887e-04  2.0016184522203646e-03  1.5263768420144366e-03  2.0688570926602440e-03  2.8551837129211811e-03  2.2647786530198824e-03  1.0185807279773896e-03  3.8469701738708670e-04  9.6693463811852625e-04  4.8720576086569829e-04  7.3953901435936807e-04  1.4524218532159438e-04  8.9481573928332057e-05  5.1273303068948140e-05  7.7502089242660195e-05  4.9773364831096017e-05  3.1741668768382225e-05  2.4637805153971339e-05  1.3310588031606255e-05  2.0539274372260627e-05  1.9245883984371318e-05  3.1277149474923621e-05  4.7782834469886980e-05  1.5909348125696137e-05  1.0002065461846101e-04  2.6024905176458243e-05  9.6816167672524329e-06  5.0848824315520577e-06  1.3323211194143365e-06  6.6078320797717822e-06  1.1073522489744279e-05  1.0047720225486122e-05  1.7469763981055137e-05  9.9490201894783113e-06  1.6970139568264909e-05  1.1835721986237372e-05  1.5147772787400648e-05  1.8007147683375700e-05  1.2349060650912710e-05  1.7829035470250955e-05  1.4096478436491441e-05  1.5114242746541254e-06  6.5064435961736361e-06  1.3843946268350679e-05  5.9795929592214380e-06  8.0981824155934076e-06  1.0490013269567995e-05  8.7042738510353932e-06  1.4508809265938596e-05  5.3639609916391265e-06  1.2144902021165968e-05  5.6655250464799261e-06  5.1322467810118770e-06  7.1857330567691224e-07  3.2248648092498319e-06  4.4797728785324245e-06  1.1190480738385505e-21  -2.2957632119278588e-20  3.3844613662296880e-04  5.8832952067891281e-04  9.5471105136321090e-04  1.2951020147987664e-04  5.5406124886496196e-04  7.1395013724439898e-04  6.8001430640159783e-04  1.3187666822696465e-03  4.0975995381372743e-04  1.6827268393643235e-03  9.1604289302810822e-04  2.9139433271036216e-05  1.4049584301841173e-03  1.4600570152173164e-03  3.7823261581782213e-04  1.2772594196349574e-03  9.7266510857222396e-04  1.0529924228748970e-03  1.5130879231001666e-03  9.6842185865706615e-04  2.3248642045821696e-03  1.1322181150603269e-03  2.0750850895702860e-03  1.1958028260977455e-03  2.8037905502617537e-03  2.5360769383581941e-03  3.6123006732852875e-03  2.8012791996738172e-03  2.1468442916017759e-03  1.7089250907150859e-03  3.5941832481381076e-03  2.4696571569009225e-03  3.5111011778420982e-03  3.0923554979142226e-03  1.8432117494351183e-03  3.3913470181710529e-04  3.0329066146568659e-03  2.8871580076127511e-03  3.3327156010510600e-03  3.5585225565269111e-03  3.5848317374779040e-03  3.3558424812425844e-03  2.5584636652782743e-03  1.5896547075546124e-03  2.2521324780185397e-03  1.3641098382057416e-03  3.6755104924703135e-03  1.3524068046250823e-03  7.5032008509463841e-05  1.4188811732316478e-04  1.0524739689735000e-04  4.3181564895469440e-04  1.5797396886668630e-03  5.5928039982896800e-04  5.1528054315530384e-04  9.4427051805383221e-05  4.2075608742689252e-05  5.3133866274738697e-05  7.1059272139645900e-05  3.8011591512994353e-05  2.4944343953294659e-05  2.1022842109095251e-05  1.5400487588579719e-05  1.3309250315835092e-05  3.5784752027212762e-05  2.8637071032450755e-05  5.2107701890936500e-05  9.5232362381891719e-05  7.5279077675725358e-05  3.4014772648137573e-06  5.9201298180056936e-06  7.9023397969297183e-07  2.4398567038324482e-06  7.1048710390791256e-06  1.1391915864723360e-05  1.1173478397525893e-05  1.6099158248113160e-05  1.2014905675604969e-05  1.5193716981831002e-05  9.6812571281251774e-06  1.9145799589424166e-05  1.6848553785605686e-05  1.5164269377068202e-05  1.4726200867561827e-05  6.7799085486546279e-06  1.7188594162870700e-06  1.0992615353737906e-05  1.1837430093517801e-05  1.1409362094168329e-05  4.7606868562317293e-06  6.3524003897099042e-06  2.7574499757692282e-05  1.4008699875867203e-06  1.3662223395861881e-07  2.2792235842528894e-05  2.9094669174525147e-06  1.1763993885627873e-05  1.2199342361722531e-06  2.8870648603973794e-06  -1.6026429407996896e-22  -1.2461021763396732e-20  4.1356793383076808e-04  6.4966311250281704e-04  5.5654693286820032e-04  6.0749530760689601e-04  2.4752020619275958e-04  5.9582950221622800e-04  1.0700452098074389e-03  1.5256969206653515e-03  1.3746903644993814e-03  6.0252991867512434e-04  5.3550643024970093e-04  3.9007376957812936e-04  4.3127811017388694e-04  1.4859472944302198e-03  1.8654961150835799e-03  5.2084145414427999e-04  8.5005609902612570e-04  1.4940290648572353e-03  1.8695447475184748e-04  1.6688082803239799e-03  1.8706062644262031e-04  1.2208887843139689e-04  1.8104453589512259e-03  1.5011510841601388e-03  2.4259793743620561e-03  8.9740016958178321e-04  7.8193581617576466e-04  1.4263934397096085e-03  2.4909805606544710e-03  4.4616935358959319e-03  2.1333909951253322e-03  1.8498623090939940e-03  4.4696306389294801e-03  9.8342679853918131e-04  4.0753960379450822e-03  1.1861075106747710e-03  2.4395053946870645e-03  3.4101878827629373e-03  3.4386474072149449e-03  3.8076094841598593e-03  3.9014242411870813e-03  3.8041007476646428e-03  3.4630197999920933e-03  2.2582651928507200e-03  7.4124587105329066e-04  3.0691746926389432e-03  1.7731769780876354e-03  3.3583079343627604e-03  3.6762184906698474e-03  2.5343427977534425e-03  1.1736262615633900e-03  3.5419452236939644e-04  9.4163743445065974e-04  8.9280532010328664e-04  1.0575826398785168e-03  2.4383026199292212e-04  3.6490740340692246e-05  4.9450179373648741e-06  6.4775525426660923e-05  5.5527720873846055e-05  3.3725118254231128e-05  2.5609759837057668e-05  1.4079160261402548e-05  1.9631162729555727e-05  1.6305318219448768e-05  3.7593248249729703e-05  4.8640723769850437e-05  1.0180651717412009e-05  1.3351987493427569e-04  2.8170894689318362e-05  3.3267560341040555e-06  1.5371191386278456e-06  9.0281205503828299e-07  1.9746239027055312e-06  9.2450239390191244e-06  1.1105959787586452e-05  1.2499336364831972e-05  1.0918331439457712e-05  1.4767477803098669e-05  1.3104291336412812e-05  1.2752143627238259e-05  1.9047581793834604e-05  1.4077672496606897e-05  1.8248547676717470e-05  1.3400522005354061e-05  2.3058224787646590e-06  5.5441398445225508e-06  1.8137257849879600e-05  9.1148290450040266e-06  9.0707013827368606e-06  1.2224017691311403e-05  9.3941869947077738e-06  2.5493501779748518e-05  5.4110070402817406e-06  1.6085163507280875e-05  1.5286408458421758e-05  6.0452884951038029e-06  7.5171040768936413e-06  2.4240134311199190e-10  7.5231638452626401e-37  -2.0760571926674031e-20  2.2447781188115673e-04  5.2655211124411083e-04  8.6689773414876212e-04  9.0372657656710069e-04  6.0961601140475405e-05  6.9775048948284067e-04  4.6716527874748458e-04  3.9377257693943305e-04  1.7482846420433743e-03  6.4845156446669797e-04  1.6614447907362280e-03  9.1077136934782359e-04  1.5580255022701233e-04  1.5101344040295795e-03  1.8010776815274789e-03  6.7131305611464168e-04  1.1172496808323266e-03  1.1911567461787770e-03  1.3475579009863388e-03  1.3302028119537817e-03  5.3412844204319060e-04  2.1103440960722679e-03  9.4996852282228236e-04  2.3209180695468383e-03  1.4264370874896850e-03  3.1967363403187657e-03  2.7476250892942713e-03  3.7985316520813602e-03  2.6815222111217954e-03  1.7411434889286616e-03  2.7194840618278765e-03  4.4143330184263797e-03  2.4677599303063796e-03  5.0100563201231551e-03  3.4708559148418764e-03  3.1259290349234773e-03  4.1101572493259690e-04  3.8784512613366253e-03  3.7639612728659804e-03  4.0332961486192996e-03  4.2467473872917338e-03  4.2547757232822159e-03  3.9822935533155770e-03  3.0226423434906889e-03  1.6814827141600852e-03  2.8447108343125217e-03  2.1652643729453886e-03  4.5308645498428378e-03  9.1474495387616403e-04  7.7883200497043099e-04  8.1653982098645300e-04  5.6148805369254137e-04  3.8700420484045686e-04  1.8454532704101903e-03  4.0446266105637605e-04  8.9215301891096960e-04  9.7257170576673955e-05  1.5745920836672155e-05  5.8019364708904068e-06  6.4903919515697510e-05  4.0728242861713881e-05  2.8453235458895223e-05  2.4575562226700130e-05  1.5589757058701955e-05  1.5053865253410375e-05  3.3470708542338201e-05  3.4325667944878174e-05  5.6996997562439609e-05  1.0506277398550624e-04  1.0369863498146621e-04  5.5139108581875501e-06  2.0956533771684489e-06  1.8882656444724488e-06  2.2163565430371526e-06  3.6230172744188621e-06  6.7833334140192719e-06  1.2014005400169348e-05  1.3038737997834791e-05  8.6454100190437089e-06  1.4627197595355516e-05  8.5065148637800259e-06  1.6347465223794270e-05  1.6700140768950623e-05  1.4361183387378002e-05  1.6460843647266641e-05  4.5402395645876834e-06  1.6659442490742398e-06  1.1383329851886237e-05  1.6805164031316141e-05  1.4003884940363223e-05  6.2967293167745831e-06  7.1500502680790298e-06  2.7651240511426320e-05  9.7254623139861974e-06  2.9943872272979134e-06  2.6921649193816135e-05  5.0334277461702829e-06  1.4073622606159410e-05  4.5671586094707523e-06  8.6185929020029322e-23  -1.4412026907338842e-20  3.7398921597187154e-04  6.3995421544575442e-04  7.0520035152467093e-04  6.8605158101744956e-04  9.8080572412064578e-04  1.2802510012729915e-04  4.9918608871137471e-04  9.9678475024386737e-04  1.5839690651622085e-03  1.7575587926849088e-03  7.5916449533354306e-04  5.6144341072107804e-04  6.3117457909305928e-04  4.1374324790880427e-04  1.8081679555360438e-03  2.1300249647924446e-03 