<?xml version="1.0"?>
<VTKFile type="UnstructuredGrid"  version="0.1"  >
<UnstructuredGrid>
<Piece  NumberOfPoints="10201" NumberOfCells="20000">
<Points>
<DataArray  type="Float64"  NumberOfComponents="3"  format="ascii">0 0 0  0.01 0 0  0.02 0 0  0.03 0 0  0.04 0 0  0.05 0 0  0.06 0 0  0.07000000000000001 0 0  0.08 0 0  0.09 0 0  0.1 0 0  0.11 0 0  0.12 0 0  0.13 0 0  0.14 0 0  0.15 0 0  0.16 0 0  0.17 0 0  0.18 0 0  0.19 0 0  0.2 0 0  0.21 0 0  0.22 0 0  0.23 0 0  0.24 0 0  0.25 0 0  0.26 0 0  0.27 0 0  0.28 0 0  0.29 0 0  0.3 0 0  0.31 0 0  0.32 0 0  0.33 0 0  0.34 0 0  0.35 0 0  0.36 0 0  0.37 0 0  0.38 0 0  0.39 0 0  0.4 0 0  0.41 0 0  0.42 0 0  0.43 0 0  0.44 0 0  0.45 0 0  0.46 0 0  0.47 0 0  0.48 0 0  0.49 0 0  0.5 0 0  0.51 0 0  0.52 0 0  0.53 0 0  0.54 0 0  0.55 0 0  0.5600000000000001 0 0  0.57 0 0  0.58 0 0  0.59 0 0  0.6 0 0  0.61 0 0  0.62 0 0  0.63 0 0  0.64 0 0  0.65 0 0  0.66 0 0  0.67 0 0  0.68 0 0  0.6899999999999999 0 0  0.7 0 0  0.71 0 0  0.72 0 0  0.73 0 0  0.74 0 0  0.75 0 0  0.76 0 0  0.77 0 0  0.78 0 0  0.79 0 0  0.8 0 0  0.8100000000000001 0 0  0.82 0 0  0.83 0 0  0.84 0 0  0.85 0 0  0.86 0 0  0.87 0 0  0.88 0 0  0.89 0 0  0.9 0 0  0.91 0 0  0.92 0 0  0.93 0 0  0.9399999999999999 0 0  0.95 0 0  0.96 0 0  0.97 0 0  0.98 0 0  0.99 0 0  1 0 0  0 0.01 0  0.01 0.01 0  0.02 0.01 0  0.03 0.01 0  0.04 0.01 0  0.05 0.01 0  0.06 0.01 0  0.07000000000000001 0.01 0  0.08 0.01 0  0.09 0.01 0  0.1 0.01 0  0.11 0.01 0  0.12 0.01 0  0.13 0.01 0  0.14 0.01 0  0.15 0.01 0  0.16 0.01 0  0.17 0.01 0  0.18 0.01 0  0.19 0.01 0  0.2 0.01 0  0.21 0.01 0  0.22 0.01 0  0.23 0.01 0  0.24 0.01 0  0.25 0.01 0  0.26 0.01 0  0.27 0.01 0  0.28 0.01 0  0.29 0.01 0  0.3 0.01 0  0.31 0.01 0  0.32 0.01 0  0.33 0.01 0  0.34 0.01 0  0.35 0.01 0  0.36 0.01 0  0.37 0.01 0  0.38 0.01 0  0.39 0.01 0  0.4 0.01 0  0.41 0.01 0  0.42 0.01 0  0.43 0.01 0  0.44 0.01 0  0.45 0.01 0  0.46 0.01 0  0.47 0.01 0  0.48 0.01 0  0.49 0.01 0  0.5 0.01 0  0.51 0.01 0  0.52 0.01 0  0.53 0.01 0  0.54 0.01 0  0.55 0.01 0  0.5600000000000001 0.01 0  0.57 0.01 0  0.58 0.01 0  0.59 0.01 0  0.6 0.01 0  0.61 0.01 0  0.62 0.01 0  0.63 0.01 0  0.64 0.01 0  0.65 0.01 0  0.66 0.01 0  0.67 0.01 0  0.68 0.01 0  0.6899999999999999 0.01 0  0.7 0.01 0  0.71 0.01 0  0.72 0.01 0  0.73 0.01 0  0.74 0.01 0  0.75 0.01 0  0.76 0.01 0  0.77 0.01 0  0.78 0.01 0  0.79 0.01 0  0.8 0.01 0  0.8100000000000001 0.01 0  0.82 0.01 0  0.83 0.01 0  0.84 0.01 0  0.85 0.01 0  0.86 0.01 0  0.87 0.01 0  0.88 0.01 0  0.89 0.01 0  0.9 0.01 0  0.91 0.01 0  0.92 0.01 0  0.93 0.01 0  0.9399999999999999 0.01 0  0.95 0.01 0  0.96 0.01 0  0.97 0.01 0  0.98 0.01 0  0.99 0.01 0  1 0.01 0  0 0.02 0  0.01 0.02 0  0.02 0.02 0  0.03 0.02 0  0.04 0.02 0  0.05 0.02 0  0.06 0.02 0  0.07000000000000001 0.02 0  0.08 0.02 0  0.09 0.02 0  0.1 0.02 0  0.11 0.02 0  0.12 0.02 0  0.13 0.02 0  0.14 0.02 0  0.15 0.02 0  0.16 0.02 0  0.17 0.02 0  0.18 0.02 0  0.19 0.02 0  0.2 0.02 0  0.21 0.02 0  0.22 0.02 0  0.23 0.02 0  0.24 0.02 0  0.25 0.02 0  0.26 0.02 0  0.27 0.02 0  0.28 0.02 0  0.29 0.02 0  0.3 0.02 0  0.31 0.02 0  0.32 0.02 0  0.33 0.02 0  0.34 0.02 0  0.35 0.02 0  0.36 0.02 0  0.37 0.02 0  0.38 0.02 0  0.39 0.02 0  0.4 0.02 0  0.41 0.02 0  0.42 0.02 0  0.43 0.02 0  0.44 0.02 0  0.45 0.02 0  0.46 0.02 0  0.47 0.02 0  0.48 0.02 0  0.49 0.02 0  0.5 0.02 0  0.51 0.02 0  0.52 0.02 0  0.53 0.02 0  0.54 0.02 0  0.55 0.02 0  0.5600000000000001 0.02 0  0.57 0.02 0  0.58 0.02 0  0.59 0.02 0  0.6 0.02 0  0.61 0.02 0  0.62 0.02 0  0.63 0.02 0  0.64 0.02 0  0.65 0.02 0  0.66 0.02 0  0.67 0.02 0  0.68 0.02 0  0.6899999999999999 0.02 0  0.7 0.02 0  0.71 0.02 0  0.72 0.02 0  0.73 0.02 0  0.74 0.02 0  0.75 0.02 0  0.76 0.02 0  0.77 0.02 0  0.78 0.02 0  0.79 0.02 0  0.8 0.02 0  0.8100000000000001 0.02 0  0.82 0.02 0  0.83 0.02 0  0.84 0.02 0  0.85 0.02 0  0.86 0.02 0  0.87 0.02 0  0.88 0.02 0  0.89 0.02 0  0.9 0.02 0  0.91 0.02 0  0.92 0.02 0  0.93 0.02 0  0.9399999999999999 0.02 0  0.95 0.02 0  0.96 0.02 0  0.97 0.02 0  0.98 0.02 0  0.99 0.02 0  1 0.02 0  0 0.03 0  0.01 0.03 0  0.02 0.03 0  0.03 0.03 0  0.04 0.03 0  0.05 0.03 0  0.06 0.03 0  0.07000000000000001 0.03 0  0.08 0.03 0  0.09 0.03 0  0.1 0.03 0  0.11 0.03 0  0.12 0.03 0  0.13 0.03 0  0.14 0.03 0  0.15 0.03 0  0.16 0.03 0  0.17 0.03 0  0.18 0.03 0  0.19 0.03 0  0.2 0.03 0  0.21 0.03 0  0.22 0.03 0  0.23 0.03 0  0.24 0.03 0  0.25 0.03 0  0.26 0.03 0  0.27 0.03 0  0.28 0.03 0  0.29 0.03 0  0.3 0.03 0  0.31 0.03 0  0.32 0.03 0  0.33 0.03 0  0.34 0.03 0  0.35 0.03 0  0.36 0.03 0  0.37 0.03 0  0.38 0.03 0  0.39 0.03 0  0.4 0.03 0  0.41 0.03 0  0.42 0.03 0  0.43 0.03 0  0.44 0.03 0  0.45 0.03 0  0.46 0.03 0  0.47 0.03 0  0.48 0.03 0  0.49 0.03 0  0.5 0.03 0  0.51 0.03 0  0.52 0.03 0  0.53 0.03 0  0.54 0.03 0  0.55 0.03 0  0.5600000000000001 0.03 0  0.57 0.03 0  0.58 0.03 0  0.59 0.03 0  0.6 0.03 0  0.61 0.03 0  0.62 0.03 0  0.63 0.03 0  0.64 0.03 0  0.65 0.03 0  0.66 0.03 0  0.67 0.03 0  0.68 0.03 0  0.6899999999999999 0.03 0  0.7 0.03 0  0.71 0.03 0  0.72 0.03 0  0.73 0.03 0  0.74 0.03 0  0.75 0.03 0  0.76 0.03 0  0.77 0.03 0  0.78 0.03 0  0.79 0.03 0  0.8 0.03 0  0.8100000000000001 0.03 0  0.82 0.03 0  0.83 0.03 0  0.84 0.03 0  0.85 0.03 0  0.86 0.03 0  0.87 0.03 0  0.88 0.03 0  0.89 0.03 0  0.9 0.03 0  0.91 0.03 0  0.92 0.03 0  0.93 0.03 0  0.9399999999999999 0.03 0  0.95 0.03 0  0.96 0.03 0  0.97 0.03 0  0.98 0.03 0  0.99 0.03 0  1 0.03 0  0 0.04 0  0.01 0.04 0  0.02 0.04 0  0.03 0.04 0  0.04 0.04 0  0.05 0.04 0  0.06 0.04 0  0.07000000000000001 0.04 0  0.08 0.04 0  0.09 0.04 0  0.1 0.04 0  0.11 0.04 0  0.12 0.04 0  0.13 0.04 0  0.14 0.04 0  0.15 0.04 0  0.16 0.04 0  0.17 0.04 0  0.18 0.04 0  0.19 0.04 0  0.2 0.04 0  0.21 0.04 0  0.22 0.04 0  0.23 0.04 0  0.24 0.04 0  0.25 0.04 0  0.26 0.04 0  0.27 0.04 0  0.28 0.04 0  0.29 0.04 0  0.3 0.04 0  0.31 0.04 0  0.32 0.04 0  0.33 0.04 0  0.34 0.04 0  0.35 0.04 0  0.36 0.04 0  0.37 0.04 0  0.38 0.04 0  0.39 0.04 0  0.4 0.04 0  0.41 0.04 0  0.42 0.04 0  0.43 0.04 0  0.44 0.04 0  0.45 0.04 0  0.46 0.04 0  0.47 0.04 0  0.48 0.04 0  0.49 0.04 0  0.5 0.04 0  0.51 0.04 0  0.52 0.04 0  0.53 0.04 0  0.54 0.04 0  0.55 0.04 0  0.5600000000000001 0.04 0  0.57 0.04 0  0.58 0.04 0  0.59 0.04 0  0.6 0.04 0  0.61 0.04 0  0.62 0.04 0  0.63 0.04 0  0.64 0.04 0  0.65 0.04 0  0.66 0.04 0  0.67 0.04 0  0.68 0.04 0  0.6899999999999999 0.04 0  0.7 0.04 0  0.71 0.04 0  0.72 0.04 0  0.73 0.04 0  0.74 0.04 0  0.75 0.04 0  0.76 0.04 0  0.77 0.04 0  0.78 0.04 0  0.79 0.04 0  0.8 0.04 0  0.8100000000000001 0.04 0  0.82 0.04 0  0.83 0.04 0  0.84 0.04 0  0.85 0.04 0  0.86 0.04 0  0.87 0.04 0  0.88 0.04 0  0.89 0.04 0  0.9 0.04 0  0.91 0.04 0  0.92 0.04 0  0.93 0.04 0  0.9399999999999999 0.04 0  0.95 0.04 0  0.96 0.04 0  0.97 0.04 0  0.98 0.04 0  0.99 0.04 0  1 0.04 0  0 0.05 0  0.01 0.05 0  0.02 0.05 0  0.03 0.05 0  0.04 0.05 0  0.05 0.05 0  0.06 0.05 0  0.07000000000000001 0.05 0  0.08 0.05 0  0.09 0.05 0  0.1 0.05 0  0.11 0.05 0  0.12 0.05 0  0.13 0.05 0  0.14 0.05 0  0.15 0.05 0  0.16 0.05 0  0.17 0.05 0  0.18 0.05 0  0.19 0.05 0  0.2 0.05 0  0.21 0.05 0  0.22 0.05 0  0.23 0.05 0  0.24 0.05 0  0.25 0.05 0  0.26 0.05 0  0.27 0.05 0  0.28 0.05 0  0.29 0.05 0  0.3 0.05 0  0.31 0.05 0  0.32 0.05 0  0.33 0.05 0  0.34 0.05 0  0.35 0.05 0  0.36 0.05 0  0.37 0.05 0  0.38 0.05 0  0.39 0.05 0  0.4 0.05 0  0.41 0.05 0  0.42 0.05 0  0.43 0.05 0  0.44 0.05 0  0.45 0.05 0  0.46 0.05 0  0.47 0.05 0  0.48 0.05 0  0.49 0.05 0  0.5 0.05 0  0.51 0.05 0  0.52 0.05 0  0.53 0.05 0  0.54 0.05 0  0.55 0.05 0  0.5600000000000001 0.05 0  0.57 0.05 0  0.58 0.05 0  0.59 0.05 0  0.6 0.05 0  0.61 0.05 0  0.62 0.05 0  0.63 0.05 0  0.64 0.05 0  0.65 0.05 0  0.66 0.05 0  0.67 0.05 0  0.68 0.05 0  0.6899999999999999 0.05 0  0.7 0.05 0  0.71 0.05 0  0.72 0.05 0  0.73 0.05 0  0.74 0.05 0  0.75 0.05 0  0.76 0.05 0  0.77 0.05 0  0.78 0.05 0  0.79 0.05 0  0.8 0.05 0  0.8100000000000001 0.05 0  0.82 0.05 0  0.83 0.05 0  0.84 0.05 0  0.85 0.05 0  0.86 0.05 0  0.87 0.05 0  0.88 0.05 0  0.89 0.05 0  0.9 0.05 0  0.91 0.05 0  0.92 0.05 0  0.93 0.05 0  0.9399999999999999 0.05 0  0.95 0.05 0  0.96 0.05 0  0.97 0.05 0  0.98 0.05 0  0.99 0.05 0  1 0.05 0  0 0.06 0  0.01 0.06 0  0.02 0.06 0  0.03 0.06 0  0.04 0.06 0  0.05 0.06 0  0.06 0.06 0  0.07000000000000001 0.06 0  0.08 0.06 0  0.09 0.06 0  0.1 0.06 0  0.11 0.06 0  0.12 0.06 0  0.13 0.06 0  0.14 0.06 0  0.15 0.06 0  0.16 0.06 0  0.17 0.06 0  0.18 0.06 0  0.19 0.06 0  0.2 0.06 0  0.21 0.06 0  0.22 0.06 0  0.23 0.06 0  0.24 0.06 0  0.25 0.06 0  0.26 0.06 0  0.27 0.06 0  0.28 0.06 0  0.29 0.06 0  0.3 0.06 0  0.31 0.06 0  0.32 0.06 0  0.33 0.06 0  0.34 0.06 0  0.35 0.06 0  0.36 0.06 0  0.37 0.06 0  0.38 0.06 0  0.39 0.06 0  0.4 0.06 0  0.41 0.06 0  0.42 0.06 0  0.43 0.06 0  0.44 0.06 0  0.45 0.06 0  0.46 0.06 0  0.47 0.06 0  0.48 0.06 0  0.49 0.06 0  0.5 0.06 0  0.51 0.06 0  0.52 0.06 0  0.53 0.06 0  0.54 0.06 0  0.55 0.06 0  0.5600000000000001 0.06 0  0.57 0.06 0  0.58 0.06 0  0.59 0.06 0  0.6 0.06 0  0.61 0.06 0  0.62 0.06 0  0.63 0.06 0  0.64 0.06 0  0.65 0.06 0  0.66 0.06 0  0.67 0.06 0  0.68 0.06 0  0.6899999999999999 0.06 0  0.7 0.06 0  0.71 0.06 0  0.72 0.06 0  0.73 0.06 0  0.74 0.06 0  0.75 0.06 0  0.76 0.06 0  0.77 0.06 0  0.78 0.06 0  0.79 0.06 0  0.8 0.06 0  0.8100000000000001 0.06 0  0.82 0.06 0  0.83 0.06 0  0.84 0.06 0  0.85 0.06 0  0.86 0.06 0  0.87 0.06 0  0.88 0.06 0  0.89 0.06 0  0.9 0.06 0  0.91 0.06 0  0.92 0.06 0  0.93 0.06 0  0.9399999999999999 0.06 0  0.95 0.06 0  0.96 0.06 0  0.97 0.06 0  0.98 0.06 0  0.99 0.06 0  1 0.06 0  0 0.07000000000000001 0  0.01 0.07000000000000001 0  0.02 0.07000000000000001 0  0.03 0.07000000000000001 0  0.04 0.07000000000000001 0  0.05 0.07000000000000001 0  0.06 0.07000000000000001 0  0.07000000000000001 0.07000000000000001 0  0.08 0.07000000000000001 0  0.09 0.07000000000000001 0  0.1 0.07000000000000001 0  0.11 0.07000000000000001 0  0.12 0.07000000000000001 0  0.13 0.07000000000000001 0  0.14 0.07000000000000001 0  0.15 0.07000000000000001 0  0.16 0.07000000000000001 0  0.17 0.0700
[...]
<PointData  Scalars="Indicator Function"> 
<DataArray  type="Float64"  Name="Indicator Function"  format="ascii">-1.2037062152420224e-35  -3.5990635129638800e-20  8.3410648853132812e-21  -6.2384829881216485e-21  2.7707412071434959e-19  -2.1686401605904648e-20  -1.6519616032513431e-20  6.7618969170278064e-19  7.9219218427880375e-19  -1.2581035398240951e-21  3.1705327077070830e-18  -1.7457475748017210e-19  -1.7964393240014009e-20  -2.8681917391754196e-20  7.6232461785666488e-18  -4.3406612189765610e-21  2.3773197751029943e-34  1.7365492205696251e-18  -3.3197559876056342e-20  -3.4886736138573313e-22  8.5713910573342629e-18  6.0185310762101120e-36  -3.1228290199941156e-20  7.0974555472997998e-18  -2.8156465654806302e-20  -2.0928498495216560e-20  -1.6507415189200438e-20  -3.7085569305298783e-20  3.9012850560537303e-17  -1.5739450792444822e-20  -5.9340877441700974e-20  -2.3177856267463970e-20  -4.1859998065102773e-20  -3.4679137901209709e-20  2.1698508264212870e-18  -5.6810653226007363e-20  -8.7781074531805883e-20  -1.0571502709694335e-19  -1.1275662031316956e-19  -1.0964820838124884e-19  5.3478084416128929e-18  -4.0345512518881144e-20  -2.2684733080239142e-20  -2.9399057443120509e-20  -3.2176687830508661e-20  -1.8094363893777864e-20  8.7054448676054784e-18  -1.4428300783986330e-20  -1.0253049840541595e-20  -9.6170734703438189e-21  -8.1546318901553168e-21  -1.2339075249069923e-20  -8.5075740135362046e-21  -1.1710157895529294e-20  -5.7930827592506697e-21  9.4039548065783001e-36  2.6963019221421302e-33  0.0000000000000000e+00  0.0000000000000000e+00  -2.3509887016445750e-38  -8.0600362354619569e-23  -1.8340053386414877e-22  -1.5496819223035942e-22  -1.2450556287965979e-22  -8.1542703475383605e-23  -3.9042301345885908e-23  -9.2316208020781639e-24  8.6398834785438132e-37  6.1357522068444599e-21  -1.7615777355622128e-23  -2.9254803566584094e-23  -2.5357979906981924e-23  -1.9731092921586638e-23  -1.3767736255857111e-23  -8.4203502752096021e-24  -4.2192815126393719e-24  -1.2866709826579427e-24  -1.4693679385278594e-39  1.0285575569695016e-38  -1.9101783200862172e-38  -1.9101783200862172e-38  2.8624033661774323e-22  -7.3468396926392969e-40  -1.8367099231598242e-38  -7.3468396926392969e-40  1.1020259538958945e-38  5.1427877848475078e-39  5.5101297694794727e-39  -9.1835496157991212e-39  5.5101297694794727e-39  -3.6734198463196485e-40  -3.3060778616876836e-39  -1.6530389308438418e-39  8.0162024707893644e-23  2.7550648847397363e-39  1.3775324423698682e-39  -1.5612034346858506e-39  -9.1835496157991212e-41  6.8876622118493409e-40  -2.1523944412029190e-41  -1.1135053909156434e-39  -1.4212371128570048e-20  3.0928345053111669e-04  2.4868277565146674e-04  7.2359143090704219e-05  2.9814511384978137e-04  1.4027359108394172e-04  3.2053068522346550e-04  1.3732560382159281e-04  5.7992281292125795e-04  4.5327957065161878e-05  5.3392085241823406e-05  4.1382805906692391e-04  5.5327062968240585e-04  4.6982423965453475e-05  4.9410120975992844e-04  2.6959574143252872e-05  6.4714613921671127e-05  6.2305484756274270e-04  1.8698407575627946e-04  5.9803407314966829e-04  6.2846356749525482e-06  3.3272686881103634e-04  5.1597137830369701e-06  5.5997900753997705e-04  3.0108197098625578e-04  7.5402862419584997e-04  5.9474231115946526e-04  6.5970094906797313e-04  3.3822374988267496e-04  5.6707347779096605e-04  4.6783987068389971e-04  8.3507027879518110e-04  5.3693845039649911e-04  4.8561346155265647e-04  3.8191707934134172e-04  3.4226348290246849e-04  8.5227800534605068e-04  1.1551842555334656e-03  1.3268004987982908e-03  1.3678424435046421e-03  1.2913252998782182e-03  1.0290942928895981e-03  2.1225299413961984e-04  4.0865182178865660e-04  3.2528042568919700e-04  6.5191816391622448e-04  6.0445809247406290e-04  5.1983432027480206e-04  3.6940505153019385e-04  2.0311044894481646e-04  1.7324579398974037e-04  3.5528422034153119e-04  4.4638908604465655e-05  1.5325882862875429e-04  1.3432203662464446e-04  3.7197883111228781e-05  4.3195258158666308e-05  1.8715038082759903e-05  1.3546488643892446e-06  1.1826273374731681e-06  7.0132990349090209e-07  1.4519670474647660e-06  2.5778667801481377e-06  2.4337793682268308e-06  2.1754943438294753e-06  1.9444550531480958e-06  1.4820696441586941e-06  8.6920488465445186e-07  3.4933682992880743e-07  2.9183224755456585e-08  3.0274602096075739e-07  4.7415354300233202e-07  5.4803812219893796e-07  5.4923359920486517e-07  5.0564034013659548e-07  4.3987426976330280e-07  3.6907308259779596e-07  3.0295761138277834e-07  2.4223070773776616e-07  1.8613459517532947e-07  1.4294684872894641e-07  1.2066277249809277e-07  1.1227876607734851e-07  1.0487681255648644e-07  9.4655579900709867e-08  8.3770733884409084e-08  7.0728969727428458e-08  5.6174796964914979e-08  4.6111781797364129e-08  4.1064017462461068e-08  3.6898792999886473e-08  3.2360815260058112e-08  2.8038660246083014e-08  2.4441920748741834e-08  2.1564440652596321e-08  1.7181537053957652e-08  1.4311017857861372e-08  1.1498057094084299e-08  8.6654251870994236e-09  5.1291753926836450e-09  -9.1835496157991212e-41  -1.7335945529473078e-20  2.5602731727471690e-04  1.3487168317270347e-04  9.3057111852625578e-05  1.6741785045374879e-05  5.4798812993155533e-04  4.5255102434997059e-04  4.6226412878823804e-04  5.5088669353734235e-04  1.6169153912696065e-04  5.6800471238407913e-04  2.3606223568598745e-04  3.4004482419275301e-04  9.8066825167164519e-04  3.1526927184905278e-04  3.4016767358982866e-04  9.9567954011233113e-04  2.4872047752259061e-04  6.0083096643950243e-04  5.6092954650745935e-04  2.9981509496671954e-04  1.2035736889455572e-03  8.2193609177309845e-04  1.3356135509739327e-03  7.0325356914278253e-04  7.9977990941551699e-04  1.9393021752195261e-04  5.3603347337688088e-04  1.5014656977904550e-03  8.5682348216252577e-04  4.5057558324701740e-04  1.4624060773823378e-03  2.1462694015502045e-04  1.0801855377118637e-03  4.1155709098730932e-04  2.5852923096445765e-04  1.2111355340939265e-03  1.4781857174692092e-03  1.7707139195435862e-03  1.9175620348074551e-03  1.9071548675748662e-03  1.6627172441732122e-03  8.5880145655771228e-04  2.0194730936199347e-04  9.4172617527296730e-04  7.3002326219298217e-04  5.5744795061610458e-04  7.8858245490721608e-04  5.1283479087281211e-04  4.9375709360413458e-06  3.1993632111381034e-04  3.2632782798157648e-04  4.2704708116550173e-04  3.0440364986573362e-04  2.3017294216081801e-04  6.7672738825619105e-05  3.2932107149392917e-05  5.1845611514058170e-05  1.1248102172245592e-05  3.8704356710894549e-06  2.1198993080290361e-07  3.1101760889493202e-06  4.4108326765056877e-06  4.5490509047891738e-06  4.4346486664992150e-06  3.8215673435371254e-06  2.7858965228721358e-06  1.7288986493474486e-06  8.5409687516074610e-07  1.4350435629915984e-07  3.8969351373553321e-07  7.2128197242873199e-07  8.7747544508352437e-07  9.0492274804390537e-07  8.4646044219412263e-07  7.4051019429645239e-07  6.1957323308367633e-07  5.0544196536514641e-07  4.0479269686262222e-07  3.1340503857060973e-07  2.3482080040534158e-07  1.8407398136934551e-07  1.6244583086748447e-07  1.5187092890525858e-07  1.3874059618325336e-07  1.2363289164320541e-07  1.0699850175972116e-07  8.6196031434648399e-08  6.7966149531874790e-08  5.8635780054244770e-08  5.3403506629110423e-08  4.7497986662092265e-08  4.1208175535224264e-08  3.5508448286514744e-08  3.1286124389042523e-08  2.6980625765218493e-08  2.1378198751920486e-08  1.7534647210692608e-08  1.3496437662340377e-08  8.8607638999765311e-09  -6.0611427464274200e-39  -1.1987361797009565e-20  3.1229663130660123e-04  3.2495453232746240e-04  1.5072092671487955e-04  3.8071049588929271e-04  4.6384107750774495e-04  2.5864868276440100e-04  6.3856165559064780e-04  6.7224320329234863e-05  1.2232768854680055e-03  5.8283797884340488e-04  5.3426320670310258e-05  9.9861382838306893e-04  7.5742785844991930e-04  8.5585638417077085e-05  1.1558835925422829e-03  5.7198234253250893e-04  5.6254391864904029e-04  1.0377467768972490e-03  6.8665285222253337e-04  1.5709261897095300e-03  7.2213630124360175e-04  1.1997358340801953e-03  6.5393120869812840e-04  1.6727870857176923e-03  1.3950007186778921e-03  1.9771241738477702e-03  1.5692343409930119e-03  1.2917247038097919e-03  8.6710143709245642e-04  1.7577290605096632e-03  9.8962941250978621e-04  1.8848041570719409e-03  1.6680115976513751e-03  9.8376325430120414e-04  3.1439534918952558e-04  7.9327297480819698e-04  1.7579550570580025e-03  1.8978108534189466e-03  2.1213704679621140e-03  2.1880117738622001e-03  2.0469498965516955e-03  1.5820474427359460e-03  1.2002204776915433e-06  7.3911104850723185e-04  5.8740494557484068e-04  1.7957440233002770e-03  1.4442456594309428e-03  1.0836043958976427e-03  8.6377906165936681e-04  7.2866534003418319e-04  6.1783621582145714e-04  8.6199627071037650e-04  2.5009865788776647e-06  4.6191135253519951e-04  1.7931055362872952e-04  5.1367342714722952e-05  5.7076105874154306e-05  4.3279896988793826e-05  1.0497786685978943e-05  1.6652579690709653e-06  1.6970807262830536e-06  3.6175765089713691e-06  5.1488877901495969e-06  5.3629493357809727e-06  4.4687672316275791e-06  3.3207332526016777e-06  2.2952295411066935e-06  1.2787374656934551e-06  3.3388648651318565e-07  3.7179189889178463e-07  8.1993192475555556e-07  1.0643766359933742e-06  1.1448541711530329e-06  1.1010926914298082e-06  9.8124741495300955e-07  8.2976771092713426e-07  6.7929601919944954e-07  5.4558412819474159e-07  4.2586845786297644e-07  3.1676545535344798e-07  2.3502226563833867e-07  1.9523825051333825e-07  1.8169653495979145e-07  1.6932748534517170e-07  1.5188768492015387e-07  1.3314253641326372e-07  1.0953022035332655e-07  8.3887709281665063e-08  6.8151414504919482e-08  6.1578133515474331e-08  5.5888343207633951e-08  4.9204662736846303e-08  4.2780644912288845e-08  3.7401063044593309e-08  3.2984199498572169e-08  2.7014432323275797e-08  2.1396731108926336e-08  1.7024112073365666e-08  1.0766600870899989e-08  -8.8162076311671563e-39  -1.8536153372748884e-20  2.1594511248867085e-04  2.9931516585371865e-04  1.2863824587801308e-04  7.8835879194043049e-05  4.5877302575922618e-04  8.5320343742433858e-04  9.8286431650742158e-04  7.7715133851793202e-04  3.9641110715276263e-04  7.0917882310380883e-05  5.3341433596525059e-04  3.9680935370206270e-05  7.4353264203171510e-04  1.4772529473608461e-03  2.3951947504195184e-04  1.5603332035490710e-04  1.1847708124642683e-03  5.6238773465080690e-04  1.3053859792768118e-03  1.2229977248349755e-04  9.6218950112028067e-06  1.3506673238998588e-03  1.0932888697215296e-03  1.6719925419154023e-03  7.0898664653666534e-04  6.1238818556669380e-04  8.5062706276455133e-04  1.5674967218752172e-03  2.7486862471755823e-03  1.2583180088092938e-03  1.2186355350867974e-03  2.5346474864241051e-03  6.0799667689206852e-04  2.3000786600642833e-03  5.1108821581614646e-04  2.0910024968309344e-04  1.9959651411672399e-03  2.0764631347459164e-03  2.2109087758661041e-03  2.3634473654567489e-03  2.3471569981683292e-03  2.0181513047508423e-03  9.5689994014525580e-04  6.1308003360013884e-04  1.4208287669480078e-03  1.1987227584886210e-03  1.3463901581737103e-03  2.0280604678158710e-03  1.4012300542876263e-03  4.7370331789917797e-04  1.5392953369853637e-04  2.7771490053182265e-04  7.9186445184061590e-04  5.5641786409096666e-04  3.9470858511724650e-04  1.5329238973214710e-05  5.6507448675790978e-05  6.7153892684378497e-05  2.0653028806103021e-05  5.5368834541926837e-06  8.2516594689534758e-07  2.7862611822599488e-06  4.9105736383411276e-06  4.8891253920344151e-06  4.2990142424943094e-06  3.7240285820444391e-06  2.8896677190725369e-06  1.7498321263565259e-06  7.0816780899717405e-07  7.7785954377642808e-08  6.6184017605759412e-07  1.0488880126564304e-06  1.2322620172993343e-06  1.2498942889556064e-06  1.1584793830058031e-06  1.0094558821028940e-06  8.4416931246956612e-07  6.8937440424494025e-07  5.4956882214364607e-07  4.1599962505302647e-07  3.0022785015747181e-07  2.3171148800122055e-07  2.0890922991079856e-07  1.9863604278442212e-07  1.8111933393309442e-07  1.6023853323123455e-07  1.3538913051827293e-07  1.0317243027758991e-07  7.8042142313617023e-08  6.8159743678488429e-08  6.3084013895224667e-08  5.6355326244362165e-08  4.9197675162678726e-08  4.2837796796626993e-08  3.8147358411327827e-08  3.2930292354459054e-08  2.6776567679325840e-08  1.9978641667635963e-08  1.2987676287451746e-08  3.5005968686121086e-25  -9.4407186611859661e-21  3.3391765368957679e-04  5.1131113965777978e-04  4.5921638640175784e-04  2.0795912873979516e-04  5.0730666185211045e-04  2.7044205928497122e-04  1.0447987028974435e-04  1.0743442670520810e-03  2.8682360338889583e-04  1.4840816060631508e-03  9.9912160931139729e-04  4.5607378053692549e-04  9.7187696593200776e-04  7.8674129849084997e-04  2.6272562370772544e-04  1.0574018902814659e-03  1.0337823435322456e-03  1.1446011625046890e-03  7.3257854366973370e-04  5.7068973384195919e-04  1.8568560017035861e-03  1.1784658550811427e-03  1.9377630710615901e-03  1.3306463252278574e-03  2.5624714962210727e-03  2.2082575215668972e-03  2.6484260273572633e-03  1.8392352198168102e-03  1.0850800197107142e-03  1.8009409883160651e-03  2.7141075443889019e-03  9.9822919541457558e-04  3.0715050144886173e-03  2.1243351426178318e-03  1.7124526120895786e-03  2.0816934250148482e-04  8.7249570857216214e-04  2.5782146858511022e-03  2.3479069723895637e-03  2.4671060887623193e-03  2.5366795183223378e-03  2.3975899609800571e-03  1.8281454204603124e-03  2.2557704694059101e-04  1.1112684567623360e-03  9.6640121127135672e-04  2.7435269179059726e-03  1.5522961548958198e-03  7.3355751266999264e-04  6.8609798722234141e-04  8.0318876156636903e-04  8.9239202569188893e-04  1.1571662679318133e-03  1.3166137211790437e-04  7.5564665733192599e-04  2.3951971001053872e-04  1.4349100466656600e-04  1.8159415700148393e-05  5.0537647671349644e-05  9.1500320921522766e-06  3.6552797888764097e-07  4.1050644681975460e-06  5.0005731644064315e-06  4.8985034465563471e-06  5.0259211544691282e-06  4.6685894943107153e-06  3.5768614220761475e-06  2.3882316561124740e-06  1.4331959173823890e-06  5.4766654011956286e-07  2.5071455748685941e-07  8.2225673248149906e-07  1.1462959761636035e-06  1.2747628327460180e-06  1.2593176502626802e-06  1.1488408380923493e-06  9.9163243890636411e-07  8.2758274623465704e-07  6.7514534603108480e-07  5.2615485526514785e-07  3.8004536613651597e-07  2.7430729605881226e-07  2.3320680415952027e-07  2.2566233671398350e-07  2.1284845851724755e-07  1.9093552921416015e-07  1.6595122182764832e-07  1.2983005587834549e-07  9.2363954638726844e-08  7.4495323886801938e-08  6.9849792974682434e-08  6.4246600258779363e-08  5.6656568605904568e-08  4.9480554123586006e-08  4.3754980169713279e-08  3.8663773470236189e-08  3.2326493301121010e-08  2.5718682755810491e-08  1.6157506410027748e-08  3.1224068693717012e-39  -1.1603013719089395e-21  1.7006886817850717e-04  3.7364902902614980e-04  3.8692484627621802e-04  3.7198093868804331e-04  4.8946275356374633e-05  5.5559056971011568e-04  9.8167908009264351e-04  1.1280075558810243e-03  1.1145002071535589e-03  2.8353248333378301e-04  4.6850183420645187e-04  7.6649640097023621e-05  6.4370722828172217e-05  1.0761746037205929e-03  1.5672926679170956e-03  3.8535836901702720e-04  1.6133677130301832e-04  7.2595106577839051e-04  2.0356096268646175e-04  1.4649267805476515e-03  2.2180588328409378e-04  4.9977546948970291e-04  9.1781916482580085e-04  7.2712485266918038e-04  1.4027839368847147e-03  1.3847445036647014e-04  4.3144084549685835e-05  1.5639699906290765e-03  2.2660729713911928e-03  3.3557905091077481e-03  1.1372211465277328e-03  2.1423604382023462e-03  3.1649399987228196e-03  1.3180122642674937e-03  3.2526706821267423e-03  7.9660641981044937e-04  8.4490961586986759e-06  2.3482170901732765e-03  2.7939649507648747e-03  2.6045674442011220e-03  2.7103656268313730e-03  2.6910083786140780e-03  2.3182047244716887e-03  1.0601926502385435e-03  1.0426657454436323e-03  1.8232825413432370e-03  1.3464123169171383e-03  2.1839657863934321e-03  2.7601155650830737e-03  1.8041041101270266e-03  8.2515336893230248e-04  1.4313593254890338e-04  4.3933869779463955e-05  1.1423723777771622e-03  6.2332019845446772e-04  6.3776148731443515e-04  1.6132667247945567e-05  1.6769471020316236e-04  6.9165366596694657e-05  3.3587193758941870e-05  4.3493795205925593e-06  1.3839333995845357e-06  3.8611125925054230e-06  5.6554516626623134e-06  6.1629683917449319e-06  5.2605548590397834e-06  4.0511158700591443e-06  3.2556232852715057e-06  2.3913955149210371e-06  1.2933218558167337e-06  3.1295383150245580e-07  4.0001638960958884e-07  8.8955779604465180e-07  1.1802917816625541e-06  1.2868284656560568e-06  1.2508869492839186e-06  1.1279648496882411e-06  9.7083726486371818e-07  8.1450781561010467e-07  6.5890752526296618e-07  4.8986304756535072e-07  3.3954746107580939e-07  2.6377335531437869e-07  2.5238880948163884e-07  2.4772884662748874e-07  2.2554527036109848e-07  1.9781267674008640e-07  1.6062101955256521e-07  1.1169327938617078e-07  8.0222857025055963e-08  7.3741124219170104e-08  7.0953155307833194e-08  6.3825773171131601e-08  5.5907100657331115e-08  4.9256416047465154e-08  4.4140036807493967e-08  3.7547755157358569e-08  3.0181615081402670e-08  1.9832065928614035e-08  -1.2856969462118770e-39  -1.9330023196957029e-20  2.0902131304666295e-05  3.3921157168976071e-04  5.2805519114978278e-04  4.3285636234295861e-04  1.1541146424792685e-04  5.0689030617077045e-04  1.5447260639522766e-04  7.2301285917272223e-05  1.2585104869271566e-03  5.0331112193154992e-04  1.4253675570784167e-03  9.2398934964336283e-04  3.3802022378882495e-04  9.4314580652467739e-04  1.0706355153210533e-03  5.2430593291395624e-04  6.8690988906286281e-04  7.9196816384380288e-04  1.0819979925410918e-03  6.5017048175073473e-04  1.0576522957783935e-04  1.4520583874270043e-03  8.0718940963091506e-04  1.8437996574762589e-03  1.3191570815923354e-03  2.6419779874516007e-03  2.1445169550747003e-03  2.5471616823916996e-03  1.4928283322152491e-03  6.4374789328511565e-04  2.6186695361528445e-03  3.1301505181292456e-03  7.2464807478431485e-04  4.0899241943800320e-03  2.1351412075541632e-03  2.7016934492612452e-03  2.5826805189105756e-04  1.0541690917450094e-03  3.2630681896884924e-03  2.9664611643335486e-03  2.8504624329376061e-03  2.9105671247654443e-03  2.7682055754789333e-03  2.0356510122071579e-03  3.2649771439279246e-04  1.6218647586434605e-03  1.2349493687778862e-03  3.3055387582124418e-03  1.2877747856685489e-03  3.8844848105288698e-05  1.6863661761048039e-04  4.2573410542916202e-04  7.3317181173280903e-04  1.1382726728131852e-03  3.4828942071072824e-04  9.2405202156997191e-04  3.8118342465964133e-04  1.8200868624430224e-04  7.8375843382676665e-05  6.1492295286973421e-05  1.5881968285689668e-05  3.7608218968917562e-06  2.1187938170595797e-06  5.5606008442594511e-06  5.7028966866610729e-06  4.9586937121652143e-06  4.6240485217208761e-06  4.2151730276578663e-06  3.1231314238820141e-06  1.9379993931314275e-06  1.0049298700172611e-06  1.9262070687468686e-07  5.0212864736101643e-07  9.8190028999781430e-07  1.2305779126499113e-06  1.2948503796678647e-06  1.2341157718511937e-06  1.1062039928062479e-06  9.5769651513817576e-07  8.0338703605059041e-07  6.2335641088441653e-07  4.2969125520028558e-07  3.0129322987951140e-07  2.7302390860342165e-07  2.8242892227793912e-07  2.7045869324298254e-07  2.4142716928551581e-07  2.0456839356751684e-07  1.4643998711297330e-07  9.3183593946849310e-08  7.6559617563408801e-08  7.6591959905610754e-08  7.1784243306883952e-08  6.3745203017716198e-08  5.6065641005982126e-08  4.9925140045981889e-08  4.3411319037167756e-08  3.4855701771211639e-08  2.2981121374176008e-08  9.1835496157991212e-39  -3.0092655381050560e-35  3.4821874106751537e-04  4.1180103479555717e-04  4.2343332465498396e-04  3.4543196311170242e-04  4.8807077699113106e-04  1.2319122970339111e-04  4.0375846793108054e-04  7.5178467720668810e-04  9.6541594377756756e-04  1.2377563888868422e-03  5.2849691935819064e-04  4.7854178361351210e-04  1.2038866846908131e-05  1.2917048853248192e-04  1.0879517459243776e-03  1.7584331365862241e-03  2.128