<?xml version="1.0"?>
<VTKFile type="UnstructuredGrid"  version="0.1"  >
<UnstructuredGrid>
<Piece  NumberOfPoints="10201" NumberOfCells="20000">
<Points>
<DataArray  type="Float64"  NumberOfComponents="3"  format="ascii">0 0 0  0.01 0 0  0.02 0 0  0.03 0 0  0.04 0 0  0.05 0 0  0.06 0 0  0.07000000000000001 0 0  0.08 0 0  0.09 0 0  0.1 0 0  0.11 0 0  0.12 0 0  0.13 0 0  0.14 0 0  0.15 0 0  0.16 0 0  0.17 0 0  0.18 0 0  0.19 0 0  0.2 0 0  0.21 0 0  0.22 0 0  0.23 0 0  0.24 0 0  0.25 0 0  0.26 0 0  0.27 0 0  0.28 0 0  0.29 0 0  0.3 0 0  0.31 0 0  0.32 0 0  0.33 0 0  0.34 0 0  0.35 0 0  0.36 0 0  0.37 0 0  0.38 0 0  0.39 0 0  0.4 0 0  0.41 0 0  0.42 0 0  0.43 0 0  0.44 0 0  0.45 0 0  0.46 0 0  0.47 0 0  0.48 0 0  0.49 0 0  0.5 0 0  0.51 0 0  0.52 0 0  0.53 0 0  0.54 0 0  0.55 0 0  0.5600000000000001 0 0  0.57 0 0  0.58 0 0  0.59 0 0  0.6 0 0  0.61 0 0  0.62 0 0  0.63 0 0  0.64 0 0  0.65 0 0  0.66 0 0  0.67 0 0  0.68 0 0  0.6899999999999999 0 0  0.7 0 0  0.71 0 0  0.72 0 0  0.73 0 0  0.74 0 0  0.75 0 0  0.76 0 0  0.77 0 0  0.78 0 0  0.79 0 0  0.8 0 0  0.8100000000000001 0 0  0.82 0 0  0.83 0 0  0.84 0 0  0.85 0 0  0.86 0 0  0.87 0 0  0.88 0 0  0.89 0 0  0.9 0 0  0.91 0 0  0.92 0 0  0.93 0 0  0.9399999999999999 0 0  0.95 0 0  0.96 0 0  0.97 0 0  0.98 0 0  0.99 0 0  1 0 0  0 0.01 0  0.01 0.01 0  0.02 0.01 0  0.03 0.01 0  0.04 0.01 0  0.05 0.01 0  0.06 0.01 0  0.07000000000000001 0.01 0  0.08 0.01 0  0.09 0.01 0  0.1 0.01 0  0.11 0.01 0  0.12 0.01 0  0.13 0.01 0  0.14 0.01 0  0.15 0.01 0  0.16 0.01 0  0.17 0.01 0  0.18 0.01 0  0.19 0.01 0  0.2 0.01 0  0.21 0.01 0  0.22 0.01 0  0.23 0.01 0  0.24 0.01 0  0.25 0.01 0  0.26 0.01 0  0.27 0.01 0  0.28 0.01 0  0.29 0.01 0  0.3 0.01 0  0.31 0.01 0  0.32 0.01 0  0.33 0.01 0  0.34 0.01 0  0.35 0.01 0  0.36 0.01 0  0.37 0.01 0  0.38 0.01 0  0.39 0.01 0  0.4 0.01 0  0.41 0.01 0  0.42 0.01 0  0.43 0.01 0  0.44 0.01 0  0.45 0.01 0  0.46 0.01 0  0.47 0.01 0  0.48 0.01 0  0.49 0.01 0  0.5 0.01 0  0.51 0.01 0  0.52 0.01 0  0.53 0.01 0  0.54 0.01 0  0.55 0.01 0  0.5600000000000001 0.01 0  0.57 0.01 0  0.58 0.01 0  0.59 0.01 0  0.6 0.01 0  0.61 0.01 0  0.62 0.01 0  0.63 0.01 0  0.64 0.01 0  0.65 0.01 0  0.66 0.01 0  0.67 0.01 0  0.68 0.01 0  0.6899999999999999 0.01 0  0.7 0.01 0  0.71 0.01 0  0.72 0.01 0  0.73 0.01 0  0.74 0.01 0  0.75 0.01 0  0.76 0.01 0  0.77 0.01 0  0.78 0.01 0  0.79 0.01 0  0.8 0.01 0  0.8100000000000001 0.01 0  0.82 0.01 0  0.83 0.01 0  0.84 0.01 0  0.85 0.01 0  0.86 0.01 0  0.87 0.01 0  0.88 0.01 0  0.89 0.01 0  0.9 0.01 0  0.91 0.01 0  0.92 0.01 0  0.93 0.01 0  0.9399999999999999 0.01 0  0.95 0.01 0  0.96 0.01 0  0.97 0.01 0  0.98 0.01 0  0.99 0.01 0  1 0.01 0  0 0.02 0  0.01 0.02 0  0.02 0.02 0  0.03 0.02 0  0.04 0.02 0  0.05 0.02 0  0.06 0.02 0  0.07000000000000001 0.02 0  0.08 0.02 0  0.09 0.02 0  0.1 0.02 0  0.11 0.02 0  0.12 0.02 0  0.13 0.02 0  0.14 0.02 0  0.15 0.02 0  0.16 0.02 0  0.17 0.02 0  0.18 0.02 0  0.19 0.02 0  0.2 0.02 0  0.21 0.02 0  0.22 0.02 0  0.23 0.02 0  0.24 0.02 0  0.25 0.02 0  0.26 0.02 0  0.27 0.02 0  0.28 0.02 0  0.29 0.02 0  0.3 0.02 0  0.31 0.02 0  0.32 0.02 0  0.33 0.02 0  0.34 0.02 0  0.35 0.02 0  0.36 0.02 0  0.37 0.02 0  0.38 0.02 0  0.39 0.02 0  0.4 0.02 0  0.41 0.02 0  0.42 0.02 0  0.43 0.02 0  0.44 0.02 0  0.45 0.02 0  0.46 0.02 0  0.47 0.02 0  0.48 0.02 0  0.49 0.02 0  0.5 0.02 0  0.51 0.02 0  0.52 0.02 0  0.53 0.02 0  0.54 0.02 0  0.55 0.02 0  0.5600000000000001 0.02 0  0.57 0.02 0  0.58 0.02 0  0.59 0.02 0  0.6 0.02 0  0.61 0.02 0  0.62 0.02 0  0.63 0.02 0  0.64 0.02 0  0.65 0.02 0  0.66 0.02 0  0.67 0.02 0  0.68 0.02 0  0.6899999999999999 0.02 0  0.7 0.02 0  0.71 0.02 0  0.72 0.02 0  0.73 0.02 0  0.74 0.02 0  0.75 0.02 0  0.76 0.02 0  0.77 0.02 0  0.78 0.02 0  0.79 0.02 0  0.8 0.02 0  0.8100000000000001 0.02 0  0.82 0.02 0  0.83 0.02 0  0.84 0.02 0  0.85 0.02 0  0.86 0.02 0  0.87 0.02 0  0.88 0.02 0  0.89 0.02 0  0.9 0.02 0  0.91 0.02 0  0.92 0.02 0  0.93 0.02 0  0.9399999999999999 0.02 0  0.95 0.02 0  0.96 0.02 0  0.97 0.02 0  0.98 0.02 0  0.99 0.02 0  1 0.02 0  0 0.03 0  0.01 0.03 0  0.02 0.03 0  0.03 0.03 0  0.04 0.03 0  0.05 0.03 0  0.06 0.03 0  0.07000000000000001 0.03 0  0.08 0.03 0  0.09 0.03 0  0.1 0.03 0  0.11 0.03 0  0.12 0.03 0  0.13 0.03 0  0.14 0.03 0  0.15 0.03 0  0.16 0.03 0  0.17 0.03 0  0.18 0.03 0  0.19 0.03 0  0.2 0.03 0  0.21 0.03 0  0.22 0.03 0  0.23 0.03 0  0.24 0.03 0  0.25 0.03 0  0.26 0.03 0  0.27 0.03 0  0.28 0.03 0  0.29 0.03 0  0.3 0.03 0  0.31 0.03 0  0.32 0.03 0  0.33 0.03 0  0.34 0.03 0  0.35 0.03 0  0.36 0.03 0  0.37 0.03 0  0.38 0.03 0  0.39 0.03 0  0.4 0.03 0  0.41 0.03 0  0.42 0.03 0  0.43 0.03 0  0.44 0.03 0  0.45 0.03 0  0.46 0.03 0  0.47 0.03 0  0.48 0.03 0  0.49 0.03 0  0.5 0.03 0  0.51 0.03 0  0.52 0.03 0  0.53 0.03 0  0.54 0.03 0  0.55 0.03 0  0.5600000000000001 0.03 0  0.57 0.03 0  0.58 0.03 0  0.59 0.03 0  0.6 0.03 0  0.61 0.03 0  0.62 0.03 0  0.63 0.03 0  0.64 0.03 0  0.65 0.03 0  0.66 0.03 0  0.67 0.03 0  0.68 0.03 0  0.6899999999999999 0.03 0  0.7 0.03 0  0.71 0.03 0  0.72 0.03 0  0.73 0.03 0  0.74 0.03 0  0.75 0.03 0  0.76 0.03 0  0.77 0.03 0  0.78 0.03 0  0.79 0.03 0  0.8 0.03 0  0.8100000000000001 0.03 0  0.82 0.03 0  0.83 0.03 0  0.84 0.03 0  0.85 0.03 0  0.86 0.03 0  0.87 0.03 0  0.88 0.03 0  0.89 0.03 0  0.9 0.03 0  0.91 0.03 0  0.92 0.03 0  0.93 0.03 0  0.9399999999999999 0.03 0  0.95 0.03 0  0.96 0.03 0  0.97 0.03 0  0.98 0.03 0  0.99 0.03 0  1 0.03 0  0 0.04 0  0.01 0.04 0  0.02 0.04 0  0.03 0.04 0  0.04 0.04 0  0.05 0.04 0  0.06 0.04 0  0.07000000000000001 0.04 0  0.08 0.04 0  0.09 0.04 0  0.1 0.04 0  0.11 0.04 0  0.12 0.04 0  0.13 0.04 0  0.14 0.04 0  0.15 0.04 0  0.16 0.04 0  0.17 0.04 0  0.18 0.04 0  0.19 0.04 0  0.2 0.04 0  0.21 0.04 0  0.22 0.04 0  0.23 0.04 0  0.24 0.04 0  0.25 0.04 0  0.26 0.04 0  0.27 0.04 0  0.28 0.04 0  0.29 0.04 0  0.3 0.04 0  0.31 0.04 0  0.32 0.04 0  0.33 0.04 0  0.34 0.04 0  0.35 0.04 0  0.36 0.04 0  0.37 0.04 0  0.38 0.04 0  0.39 0.04 0  0.4 0.04 0  0.41 0.04 0  0.42 0.04 0  0.43 0.04 0  0.44 0.04 0  0.45 0.04 0  0.46 0.04 0  0.47 0.04 0  0.48 0.04 0  0.49 0.04 0  0.5 0.04 0  0.51 0.04 0  0.52 0.04 0  0.53 0.04 0  0.54 0.04 0  0.55 0.04 0  0.5600000000000001 0.04 0  0.57 0.04 0  0.58 0.04 0  0.59 0.04 0  0.6 0.04 0  0.61 0.04 0  0.62 0.04 0  0.63 0.04 0  0.64 0.04 0  0.65 0.04 0  0.66 0.04 0  0.67 0.04 0  0.68 0.04 0  0.6899999999999999 0.04 0  0.7 0.04 0  0.71 0.04 0  0.72 0.04 0  0.73 0.04 0  0.74 0.04 0  0.75 0.04 0  0.76 0.04 0  0.77 0.04 0  0.78 0.04 0  0.79 0.04 0  0.8 0.04 0  0.8100000000000001 0.04 0  0.82 0.04 0  0.83 0.04 0  0.84 0.04 0  0.85 0.04 0  0.86 0.04 0  0.87 0.04 0  0.88 0.04 0  0.89 0.04 0  0.9 0.04 0  0.91 0.04 0  0.92 0.04 0  0.93 0.04 0  0.9399999999999999 0.04 0  0.95 0.04 0  0.96 0.04 0  0.97 0.04 0  0.98 0.04 0  0.99 0.04 0  1 0.04 0  0 0.05 0  0.01 0.05 0  0.02 0.05 0  0.03 0.05 0  0.04 0.05 0  0.05 0.05 0  0.06 0.05 0  0.07000000000000001 0.05 0  0.08 0.05 0  0.09 0.05 0  0.1 0.05 0  0.11 0.05 0  0.12 0.05 0  0.13 0.05 0  0.14 0.05 0  0.15 0.05 0  0.16 0.05 0  0.17 0.05 0  0.18 0.05 0  0.19 0.05 0  0.2 0.05 0  0.21 0.05 0  0.22 0.05 0  0.23 0.05 0  0.24 0.05 0  0.25 0.05 0  0.26 0.05 0  0.27 0.05 0  0.28 0.05 0  0.29 0.05 0  0.3 0.05 0  0.31 0.05 0  0.32 0.05 0  0.33 0.05 0  0.34 0.05 0  0.35 0.05 0  0.36 0.05 0  0.37 0.05 0  0.38 0.05 0  0.39 0.05 0  0.4 0.05 0  0.41 0.05 0  0.42 0.05 0  0.43 0.05 0  0.44 0.05 0  0.45 0.05 0  0.46 0.05 0  0.47 0.05 0  0.48 0.05 0  0.49 0.05 0  0.5 0.05 0  0.51 0.05 0  0.52 0.05 0  0.53 0.05 0  0.54 0.05 0  0.55 0.05 0  0.5600000000000001 0.05 0  0.57 0.05 0  0.58 0.05 0  0.59 0.05 0  0.6 0.05 0  0.61 0.05 0  0.62 0.05 0  0.63 0.05 0  0.64 0.05 0  0.65 0.05 0  0.66 0.05 0  0.67 0.05 0  0.68 0.05 0  0.6899999999999999 0.05 0  0.7 0.05 0  0.71 0.05 0  0.72 0.05 0  0.73 0.05 0  0.74 0.05 0  0.75 0.05 0  0.76 0.05 0  0.77 0.05 0  0.78 0.05 0  0.79 0.05 0  0.8 0.05 0  0.8100000000000001 0.05 0  0.82 0.05 0  0.83 0.05 0  0.84 0.05 0  0.85 0.05 0  0.86 0.05 0  0.87 0.05 0  0.88 0.05 0  0.89 0.05 0  0.9 0.05 0  0.91 0.05 0  0.92 0.05 0  0.93 0.05 0  0.9399999999999999 0.05 0  0.95 0.05 0  0.96 0.05 0  0.97 0.05 0  0.98 0.05 0  0.99 0.05 0  1 0.05 0  0 0.06 0  0.01 0.06 0  0.02 0.06 0  0.03 0.06 0  0.04 0.06 0  0.05 0.06 0  0.06 0.06 0  0.07000000000000001 0.06 0  0.08 0.06 0  0.09 0.06 0  0.1 0.06 0  0.11 0.06 0  0.12 0.06 0  0.13 0.06 0  0.14 0.06 0  0.15 0.06 0  0.16 0.06 0  0.17 0.06 0  0.18 0.06 0  0.19 0.06 0  0.2 0.06 0  0.21 0.06 0  0.22 0.06 0  0.23 0.06 0  0.24 0.06 0  0.25 0.06 0  0.26 0.06 0  0.27 0.06 0  0.28 0.06 0  0.29 0.06 0  0.3 0.06 0  0.31 0.06 0  0.32 0.06 0  0.33 0.06 0  0.34 0.06 0  0.35 0.06 0  0.36 0.06 0  0.37 0.06 0  0.38 0.06 0  0.39 0.06 0  0.4 0.06 0  0.41 0.06 0  0.42 0.06 0  0.43 0.06 0  0.44 0.06 0  0.45 0.06 0  0.46 0.06 0  0.47 0.06 0  0.48 0.06 0  0.49 0.06 0  0.5 0.06 0  0.51 0.06 0  0.52 0.06 0  0.53 0.06 0  0.54 0.06 0  0.55 0.06 0  0.5600000000000001 0.06 0  0.57 0.06 0  0.58 0.06 0  0.59 0.06 0  0.6 0.06 0  0.61 0.06 0  0.62 0.06 0  0.63 0.06 0  0.64 0.06 0  0.65 0.06 0  0.66 0.06 0  0.67 0.06 0  0.68 0.06 0  0.6899999999999999 0.06 0  0.7 0.06 0  0.71 0.06 0  0.72 0.06 0  0.73 0.06 0  0.74 0.06 0  0.75 0.06 0  0.76 0.06 0  0.77 0.06 0  0.78 0.06 0  0.79 0.06 0  0.8 0.06 0  0.8100000000000001 0.06 0  0.82 0.06 0  0.83 0.06 0  0.84 0.06 0  0.85 0.06 0  0.86 0.06 0  0.87 0.06 0  0.88 0.06 0  0.89 0.06 0  0.9 0.06 0  0.91 0.06 0  0.92 0.06 0  0.93 0.06 0  0.9399999999999999 0.06 0  0.95 0.06 0  0.96 0.06 0  0.97 0.06 0  0.98 0.06 0  0.99 0.06 0  1 0.06 0  0 0.07000000000000001 0  0.01 0.07000000000000001 0  0.02 0.07000000000000001 0  0.03 0.07000000000000001 0  0.04 0.07000000000000001 0  0.05 0.07000000000000001 0  0.06 0.07000000000000001 0  0.07000000000000001 0.07000000000000001 0  0.08 0.07000000000000001 0  0.09 0.07000000000000001 0  0.1 0.07000000000000001 0  0.11 0.07000000000000001 0  0.12 0.07000000000000001 0  0.13 0.07000000000000001 0  0.14 0.07000000000000001 0  0.15 0.07000000000000001 0  0.16 0.07000000000000001 0  0.17 0.0700
[...]
<PointData  Scalars="Indicator Function"> 
<DataArray  type="Float64"  Name="Indicator Function"  format="ascii">-2.4074124304840448e-35  -6.7290764255975162e-20  1.5566907386715357e-20  3.3464829449984095e-19  3.4517217300390404e-19  -3.5936124097695091e-20  -3.1457808527216482e-20  6.5368296781478500e-19  9.3915991800259186e-19  -7.5231638452626401e-36  5.0332044864137402e-18  2.9880864101868158e-18  -4.2670448982700506e-20  -3.6591313854109491e-20  7.6075151230772304e-18  -9.0429237549185274e-21  -6.8585183941588351e-21  2.1793237597643870e-18  -3.5849760776827624e-20  -4.8148248609680896e-35  5.5272669407940529e-18  6.0185310762101120e-36  -3.8952477737194909e-20  1.3378511737997523e-17  -5.2954528266211972e-20  -2.6477264133105995e-20  -1.9910012447576402e-20  -4.6341974173830693e-20  4.1445950564566040e-17  -1.7681206453642449e-20  -8.5279498296160842e-20  -3.0486160547266651e-20  -5.0075301837725731e-20  -1.5499399004997432e-20  2.5492820701451320e-17  -9.9177446810009998e-20  -1.3158483013842762e-19  -1.4900112219701590e-19  -1.5404880027817700e-19  -1.4978545729914093e-19  8.6876251186166463e-18  -8.9288683039923840e-20  -2.5823093849529875e-20  -3.4296816145404314e-20  -1.9517793268294325e-20  -2.2996097422255653e-20  3.0580038978152140e-17  -1.4613210634914143e-20  -8.7651808196970125e-21  -1.3863717768780387e-21  -2.2548413972059449e-20  -1.1274206986029731e-20  -8.2421961492575406e-21  -8.9782315223921563e-21  -8.4086557858450255e-21  -5.0615930077441119e-21  2.3962087255083464e-19  -1.3001599492073131e-21  -5.2594484170768390e-22  -3.4674286378020618e-22  -6.6201976824773808e-22  -5.3669743359708602e-22  -6.3169812780547026e-22  -1.3985096556555263e-21  -2.1372298044765461e-21  -1.5760954771803489e-21  -1.6477177788798194e-21  -3.1485717245217797e-21  3.5380233274942616e-18  9.4039548065783001e-38  -6.9110769609798381e-23  -2.8980057603122136e-22  -7.2551446031670497e-22  -5.2746711890809799e-22  -2.3491241076630628e-22  -1.1745620538315307e-22  -1.0530825713747462e-21  -1.1743197033131883e-21  -9.6176843530139853e-22  -8.8643564219843421e-22  -4.3264453959295189e-22  4.2835388337607102e-20  -4.0462041141578952e-22  -2.9553042970613779e-22  2.3509887016445750e-38  -1.2930437859045163e-37  -7.1335022781002509e-23  -1.4467921532832502e-22  -6.5704108419020407e-23  2.3509887016445750e-38  -1.8403875982494845e-22  -1.2059177324360891e-22  -1.8965170350478422e-22  8.7586572568751939e-19  -5.0415924004788718e-23  -6.3357554638338182e-24  -3.1678777319168739e-24  8.2284604557560126e-38  -6.0920961419451960e-23  -5.4892684522740927e-23  1.8807909613156600e-37  -3.6508449603921960e-20  5.7580105528227087e-04  2.3825482510945838e-04  1.6131471537534703e-04  3.5531823307863802e-04  2.8681491606352471e-04  5.0396020235031556e-04  3.1471339786910116e-04  7.0783090103785468e-04  5.1944538135941986e-05  3.3566178056853086e-05  4.4256288823404032e-04  7.6386951601800721e-04  3.8674771454388354e-04  4.6579665248151417e-04  2.8596677539423701e-04  1.9919444514845045e-05  7.8983022002619870e-04  1.3314540730730340e-04  6.4581187710336925e-04  2.2194902364710496e-04  3.1884442548277763e-04  2.5853259595109708e-04  5.7243915891400966e-04  2.1104869618190144e-04  9.5394397506917054e-04  7.1733379711877584e-04  9.5293933882847188e-04  3.5835312106926995e-04  6.3703259836867942e-04  8.7575835350142748e-04  1.0983796902450174e-03  6.8730348424076240e-04  5.5842470066700539e-04  3.1477526826075362e-05  8.8131588079986894e-04  1.3459641095885384e-03  1.6974395131218612e-03  1.8354458370561353e-03  1.8573735595906122e-03  1.7696081389164155e-03  1.4172606099595692e-03  8.9985161368822861e-04  4.6518750335318437e-04  3.8524276197315688e-04  8.2852172625480633e-04  6.0051626755427121e-04  5.2649639976068711e-04  2.8494518970321379e-04  1.5426865442083020e-05  1.7261220949938090e-05  4.0619611504945049e-04  1.1390646946472688e-04  9.1524971293679722e-05  1.1597495490792553e-04  9.3489398801310875e-05  6.8634529688542343e-05  4.5415230474641865e-05  2.5945290840689931e-05  1.6152236556613030e-05  1.1748602688752009e-05  7.9321705317289726e-06  9.9195008215220467e-06  1.1052084440682897e-05  1.9667268035995634e-05  2.9013842182966077e-05  1.3885490923435938e-05  4.0062188857261986e-05  3.6688531352591319e-05  1.5651421853903114e-05  7.3694155389516724e-06  1.2449889450479022e-06  4.5980885923799004e-06  1.0770662316346927e-05  4.1166717224853351e-06  4.2318057823673632e-06  8.9485161454512030e-06  1.4496391031409086e-05  1.3906467597315874e-05  1.0372446068702395e-05  1.0782381877219982e-05  1.0740001314291295e-05  7.0615636647793514e-06  7.7594410367229451e-06  1.6951504655175777e-06  3.9907333554800362e-06  3.3321515106956378e-06  5.2126180819272026e-06  2.3672399855408886e-06  3.6079349832700423e-06  4.9480277918880128e-06  8.4133366473345560e-07  2.1723882601754573e-06  3.4164613649371736e-06  1.8164250924920449e-06  5.7333015123736455e-07  1.1413482378412976e-07  1.3127520867917666e-06  2.1949089531815680e-06  1.9777173884958570e-06  -7.9662290564368030e-23  -1.2729294078082729e-20  6.5767776012838977e-04  1.7036076483443736e-04  9.5102875299247184e-05  9.2580363551796819e-06  3.3726857047474968e-04  5.4882412170548776e-04  6.6131539360767618e-04  7.8610239812236429e-04  7.7456180829482137e-05  1.7250792637446853e-04  4.9621949507485665e-04  6.8401484742741713e-04  1.0054305072599472e-03  9.6957777379247238e-04  6.4580789431924017e-04  1.2513607557663720e-03  9.2488334408544556e-05  4.8806323931196798e-04  1.0187776829260211e-03  4.8643191660155958e-04  1.6587389221538915e-03  1.0808540658658861e-03  1.7905863548068235e-03  1.0342867741579102e-03  1.3106096406117894e-03  4.8618468475077281e-05  3.2397209325026619e-04  1.7680917341711222e-03  1.2929467532178435e-03  3.0196654613255156e-05  1.7718925638122416e-03  1.0880078257016702e-04  1.1912571130693278e-03  6.8203918722940955e-04  1.2180684113960003e-03  1.6628619048069690e-03  2.2139748542262167e-03  2.5473005106372861e-03  2.6408447660960350e-03  2.5687024458265662e-03  2.3658096480061782e-03  1.7879186088206949e-03  2.2763632591735089e-04  1.1018492323196989e-03  9.6069741833598081e-04  9.2582781925669249e-04  1.3076119635122023e-03  1.1172149139310346e-03  4.0373557296861972e-04  3.6761038478856997e-04  6.7379666310418132e-04  1.9432564657464213e-04  2.8382777675553988e-04  1.1479734871264911e-04  1.2317978779566646e-04  9.7092464477486879e-05  7.6758146399651665e-05  5.0326420547017036e-05  2.9101077410449864e-05  1.8825141321793765e-05  1.5249875456725614e-05  1.2286351059880990e-05  1.3492246874002127e-05  2.6396828057261993e-05  2.6568076624897959e-05  4.5284322720787013e-05  3.4446267197547828e-05  6.6115598596990944e-05  2.3468620647447349e-05  1.0623286882995100e-05  4.0949809850136835e-06  4.7422608555556234e-06  9.4382840448236507e-06  1.6019659997922207e-05  5.3178731766388725e-06  2.8299665482098039e-06  1.9992109860032439e-05  1.8940976272050135e-05  2.0115464896834607e-05  1.6191356308114152e-05  1.0202133926603348e-05  1.5855384818034751e-05  9.9647052099730319e-06  7.5729759777892989e-06  4.1876253345634126e-06  3.3511233431697116e-06  6.9547031896679940e-06  6.1789424327808221e-06  1.7725363953537442e-06  4.0825005936993462e-06  8.0404907333585470e-06  5.0608670318441273e-06  1.5896677853643027e-05  7.6893489133667035e-06  9.7121210489938617e-06  5.0847731580009362e-07  1.2295570479597715e-06  4.9580971661418747e-06  8.7231326591093557e-06  2.1790401131256537e-21  -2.4292328661433079e-20  2.2931057626697230e-04  4.5511271277343926e-04  7.4368098527661904e-05  5.4428893706648016e-04  7.5244977994577624e-04  6.6943045528487549e-04  8.8589070760016473e-04  2.2462863447069966e-04  1.3468336073954280e-03  5.1419657789096671e-04  1.0333583877975983e-05  1.0687519700929527e-03  1.2822916602819011e-03  2.8768032558772124e-04  1.0236106362409383e-03  1.7883679896037904e-04  3.1594790633539737e-04  1.5861622339979435e-03  8.4559016959839892e-04  1.7871529232290463e-03  4.3102488514629769e-04  1.1487339262172787e-03  3.0809318322806754e-04  1.6880079011569941e-03  1.4544987142158462e-03  2.5213306358887982e-03  2.1418939497349818e-03  2.0625763701397461e-03  7.8160760173666421e-04  2.1951193631126013e-03  2.0228237582832990e-03  2.1685616247364451e-03  2.2877230687151583e-03  1.0245556953301376e-03  3.0607350928677602e-04  2.0461477076102060e-03  2.2903715995682967e-03  2.8049524809704500e-03  3.0222311451342829e-03  3.0581534553555528e-03  2.8705825541280395e-03  2.1936076787960504e-03  1.4512900041721399e-03  1.4302421254756719e-03  7.6235287070600523e-04  2.4099922209566806e-03  1.3757356101292094e-03  7.9603218722273613e-04  4.3446186060370958e-04  9.2338680081069472e-05  1.6035523092058798e-04  1.0348220111551444e-03  4.8303402409830828e-04  2.1163881964140504e-04  1.0334106383267123e-04  8.3358636395127836e-05  8.2818681494886299e-05  6.8269012214093675e-05  4.0801470100668555e-05  2.7701405426479953e-05  2.0831861350038455e-05  1.3580904759048714e-05  1.8137040529015056e-05  1.7002377573077154e-05  3.5247440527616220e-05  4.0832075396872690e-05  1.8838258602422006e-05  9.1479097986409442e-05  4.9588459228106883e-05  5.8978751829874448e-07  6.9214282963092751e-06  3.1517457845607385e-07  5.0088183924102393e-06  1.6413795467781140e-05  7.0943866984084249e-06  9.7418922671411393e-06  1.8528392640634971e-05  2.4379340808059652e-05  1.9519172915859559e-05  1.6822432269318660e-05  1.9699047143135040e-05  1.4906761543060059e-05  1.1160457142222534e-05  1.3248093723825234e-05  1.5255804553541002e-06  1.0353144146536296e-05  4.5298877689756347e-06  9.8295062406427102e-06  5.0949257149108086e-06  1.2185201397519829e-05  1.1127656615087306e-05  2.7208409698072335e-06  6.1265235580226452e-06  2.0576448744506212e-05  5.9945105914996249e-07  4.9085902918982661e-06  5.0167704876560069e-06  9.1621183512838220e-07  3.1922249650509778e-06  -2.7741666679405985e-36  -1.8741622718004845e-20  4.3761168923036730e-04  6.1869157880010722e-04  7.6557272067421796e-06  1.5419309462058825e-04  4.9419283366303407e-04  6.9904772162885612e-04  1.1783301869716114e-03  1.0668913503520574e-03  6.8409619139458934e-04  2.1912774879909167e-04  3.0237640176182114e-05  4.9059850907210410e-04  1.0357883616827477e-03  1.5138863123316474e-03  7.9598431361050282e-04  1.0034240243436002e-03  1.8195377601629376e-03  3.4909537614154093e-04  1.1869727681742691e-03  7.1226836745460998e-04  4.3575832957907915e-04  2.1883507117097961e-03  1.7239324652894477e-03  2.5733776062493636e-03  1.3654956922250015e-03  1.3949402405719167e-03  5.1296354160496971e-04  1.4985901611639487e-03  3.3657492996056818e-03  2.0535125463242011e-03  7.0755795537267771e-04  3.2869913446902303e-03  3.7988549001604038e-04  2.7025196152100851e-03  8.6777871265269568e-04  2.0909312330914709e-03  2.4708000930575677e-03  2.8653499071597723e-03  3.2550140995531358e-03  3.3523884662176808e-03  3.2659647180674294e-03  3.0037823039175738e-03  2.0941964362687238e-03  5.4038196146623035e-04  2.0488311375686029e-03  1.5486437198950248e-03  2.1170131922092997e-03  2.9010252891310761e-03  2.2995739460401092e-03  1.0520346664795227e-03  3.9149763485447426e-04  9.9955968049042000e-04  4.4480152417184177e-04  7.2557580098342412e-04  1.2823608638157995e-04  7.8119589856490775e-05  5.9772757552271594e-05  7.1475708965794332e-05  5.5072470806321037e-05  3.0757531060523638e-05  2.2505384204079628e-05  2.0500112891893133e-05  1.3712835604174726e-05  1.7419677291905788e-05  3.1470101249523768e-05  3.1922912375309611e-05  6.0013965617376765e-05  5.5216630954832321e-05  1.0483201422652372e-04  1.1216233775258812e-05  6.8652322945908660e-06  3.3162603201193757e-06  3.7909637621992800e-06  8.9409745405222051e-06  1.9507705855633327e-05  1.1082927562389620e-05  2.9733530493229740e-07  2.9265501493839560e-05  2.3010256320295645e-05  2.1848561649967631e-05  1.5178148055494784e-05  1.2353038933104150e-05  2.0653445766376804e-05  9.1189912303538209e-06  1.0406986847685316e-05  1.3245510612705921e-06  8.5634326885235308e-06  1.0079300828103545e-05  9.2076880725649556e-06  5.6252903728441983e-06  9.7056544572264097e-06  1.5313303581048460e-05  6.1611028211998457e-06  1.9050522626902884e-05  6.0825174098366404e-06  1.8083163965835226e-05  1.6777887592836231e-06  5.7710297543827145e-06  2.7425218964593318e-06  -4.8107165272465755e-22  -2.3431106628624481e-20  3.3761906035649963e-04  5.9133198744567737e-04  9.6322328563472922e-04  1.3723278274770597e-04  5.6842031459653939e-04  7.2898494305834985e-04  6.9053318698644121e-04  1.3362213975219518e-03  4.0547325860418077e-04  1.6897068309441330e-03  9.1754910012416756e-04  1.6361435774022188e-05  1.4204690344957853e-03  1.4960186253342948e-03  3.9445941043246200e-04  1.2719353233040516e-03  9.6448545144517969e-04  1.0313235613976744e-03  1.5652151793060147e-03  9.9671244734536786e-04  2.3561698876774740e-03  1.1295190033272053e-03  2.0881295680226140e-03  1.1920952001884348e-03  2.8163914530963696e-03  2.5512794695904746e-03  3.6646027719763425e-03  2.8547507876991551e-03  2.2017400891437989e-03  1.7057546130399772e-03  3.6451814089435213e-03  2.5408013097001289e-03  3.5565172640953562e-03  3.1599427032141221e-03  1.8617346300507048e-03  4.0765754602622241e-04  3.1278825327846235e-03  2.9365988975662443e-03  3.4061422080850002e-03  3.6341389713247462e-03  3.6559536522947009e-03  3.4179862822935336e-03  2.6207738352055478e-03  1.7011471429497777e-03  2.3063615370925460e-03  1.3953070783155146e-03  3.7343641905475430e-03  1.3299680047768145e-03  2.8741219215708704e-05  1.9740889771599040e-04  1.9059231078246726e-04  3.8241060864128876e-04  1.5813554889898879e-03  6.0179240100234263e-04  4.8108291979828791e-04  7.7929102344801571e-05  4.3288087515550074e-05  6.0141648128365632e-05  6.7063509618096371e-05  4.1418523509431696e-05  2.7034866967714683e-05  2.0669254238390823e-05  1.4751814331041258e-05  1.8624349160646373e-05  1.6442789429648441e-05  4.1406101606220382e-05  4.2431361432869711e-05  3.0960699241498269e-05  1.2634083548252131e-04  6.5958369439930384e-05  2.0157036958493300e-05  9.4258372489190020e-07  6.9364087767670697e-07  3.2622938984079393e-06  1.8362571740417008e-05  7.9836135442617350e-06  1.7684651387500632e-05  1.8470917475123748e-05  2.9555741278578634e-05  2.0734471002661317e-05  1.9598976558741598e-05  1.8467330491851504e-05  1.1234230163040488e-05  1.3938623243576362e-05  1.1571172328907837e-05  1.3986407838495064e-06  8.8683204319089074e-06  4.1868409720229117e-06  1.3854528786462105e-05  3.0773196238254708e-06  9.9805542533181690e-06  1.2708761072654682e-05  3.0769203537780342e-06  1.0444561723792347e-05  3.2689612574325681e-05  7.7470858274721237e-06  1.1537618900612992e-05  5.8323445889000297e-06  3.4726514671290205e-06  1.2342690683634019e-37  -1.3034867620874486e-20  4.2209729232620650e-04  6.5451751124944542e-04  5.6598679670986267e-04  6.0394445177087237e-04  2.4685715443692734e-04  6.0836459106904529e-04  1.0799588396204615e-03  1.5406841033677023e-03  1.3868948851193295e-03  6.0529672431727886e-04  5.4246452526243998e-04  4.2914278186280413e-04  4.6031424718798912e-04  1.5133493182183520e-03  1.8731308170272839e-03  5.7041901513335644e-04  9.0572196793512697e-04  1.5262817580223374e-03  1.8482161239712688e-04  1.6741931494794146e-03  2.1231076984620667e-04  1.0087583466081765e-04  1.8583133012509807e-03  1.5415521034956854e-03  2.4828857517836494e-03  9.4532615233557603e-04  8.2839559330912828e-04  1.4146243890584840e-03  2.5088237626490410e-03  4.5311045892183089e-03  2.1937018008089571e-03  1.8410535849088872e-03  4.5457297182721667e-03  9.6519307771048230e-04  4.1240713604101739e-03  1.2136313073358633e-03  2.6009234572794324e-03  3.4664925608803797e-03  3.5074523563298032e-03  3.8942321078187267e-03  3.9861342390200508e-03  3.8852126966057552e-03  3.5369400768495902e-03  2.3249794571088343e-03  6.8503087537545755e-04  3.1558924575707842e-03  1.7976408126045725e-03  3.4334031805399994e-03  3.7247785416182630e-03  2.5596322734190344e-03  1.1870260108642627e-03  3.9632799491350041e-04  9.9751290632309263e-04  8.4399186486259429e-04  1.0565749112285013e-03  2.1309162636817727e-04  2.3581748752718403e-05  1.8184912986826461e-05  6.2387793891917481e-05  6.1084423539074336e-05  3.2759422615744086e-05  2.4701900049086736e-05  2.1811740983668028e-05  1.2324759224548353e-05  1.8499442078653819e-05  3.0632836159305255e-05  3.8213288308661031e-05  6.4849026552245593e-05  5.9821817384613806e-05  1.4103253679610431e-04  6.7575351429280702e-06  2.6232804308029438e-05  1.7930706093152564e-06  9.1609224940858069e-07  6.6312088088436659e-06  2.0430081050822659e-05  1.4673235594571587e-05  3.5061633829446132e-06  3.2306132295113970e-05  2.4201165679498079e-05  1.9903974004185793e-05  1.6498316696653277e-05  1.4711230307590002e-05  1.7913202527081232e-05  9.1268504879586697e-06  9.4040412870882689e-06  2.5994554460073033e-06  1.0969479983249985e-05  6.2829126099391341e-06  9.9688505880365777e-06  9.4201462563725656e-06  1.4298053202623696e-05  1.9960890197947127e-05  8.4930430724069284e-06  1.1083167624160926e-05  2.9709869354500779e-06  1.2788997442208935e-05  2.1656485422508494e-06  5.4325727917846697e-06  -3.0156836981957553e-22  -2.1054080540015911e-20  2.3481529984077643e-04  5.3519561620695973e-04  8.7839999152122047e-04  9.1461503310658217e-04  6.7839051139261539e-05  7.1358772134315969e-04  4.7990534889997080e-04  4.0212379320759726e-04  1.7710227661541763e-03  6.4522918992056873e-04  1.6724023224463909e-03  9.1418280286578398e-04  1.8632336981914431e-04  1.5410103137903021e-03  1.8447084877345674e-03  6.8202871883375326e-04  1.1215852840041403e-03  1.2035293547790200e-03  1.3376502613779511e-03  1.3786464340949333e-03  5.6397401165476143e-04  2.1487073678724869e-03  9.5227500286559116e-04  2.3433876681837333e-03  1.4329263231839761e-03  3.2210281157361194e-03  2.7772907853950354e-03  3.8669010610896159e-03  2.7488080975729481e-03  1.8007828257703808e-03  2.7284756882873630e-03  4.4889918177622940e-03  2.5575569383148263e-03  5.0848320862394540e-03  3.5604288030096527e-03  3.1628292546308045e-03  4.8630068919786447e-04  4.0269285421135146e-03  3.8229639317735663e-03  4.1247184144671094e-03  4.3471614795053638e-03  4.3499139431229968e-03  4.0661167363879409e-03  3.1036671953782679e-03  1.8121887985086966e-03  2.8950786096174018e-03  2.2375489586632536e-03  4.6063811458844622e-03  8.8379157166129825e-04  8.3623777109102045e-04  8.6868805911146578e-04  6.4131333102524109e-04  3.4773400649418739e-04  1.8649174727859035e-03  4.5935971329548421e-04  8.5910944238114142e-04  7.3380614415538770e-05  1.3929140173721780e-05  1.9287687065589579e-05  6.0694292158757655e-05  4.6729898943405241e-05  2.9631489957864548e-05  2.3995588683334027e-05  1.8651705259540605e-05  1.7870399565631788e-05  1.7336155405564944e-05  4.4079796066021726e-05  4.7259506225189713e-05  3.9654018967179271e-05  1.4778119371437485e-04  9.1377373259128930e-05  3.5185433901165001e-05  1.4645157855014492e-05  1.0135203665067045e-06  6.7896571115494594e-07  1.8304957721804494e-05  5.6890599081558195e-06  2.4854521454477972e-05  1.7366602193571965e-05  3.3723319782149148e-05  2.1081823801992717e-05  1.7680060867376220e-05  1.5467290828038304e-05  1.2195666440863134e-05  1.4712104888731343e-05  1.0151729456281569e-05  3.5925832738002999e-06  3.6468174931425135e-06  8.4027234237405998e-06  1.2538652300195757e-05  3.5646622182862915e-06  1.1838940320412024e-07  1.5429118243753470e-05  5.7698327498316918e-06  9.4616046061614192e-06  3.2677516888872164e-05  8.7129349840900310e-06  1.1551150721480046e-05  1.3694289919430138e-06  -1.9004644968054328e-22  -1.5272855368237667e-20  3.7927659709857767e-04  6.5121929689235865e-04  7.1395612661615329e-04  7.0259680338394226e-04  9.8522795210479667e-04  1.2672542163194380e-04  5.1549531643637790e-04  1.0078221062090147e-03  1.6012259898615542e-03  1.7744815609496097e-03  7.6018385923278724e-04  5.6723318777582386e-04  6.6201716902325729e-04  4.2732259419756967e-04  1.8456097549675381e-03  2.1501751008077088e-03