<?xml version="1.0"?>
<VTKFile type="UnstructuredGrid"  version="0.1"  >
<UnstructuredGrid>
<Piece  NumberOfPoints="10201" NumberOfCells="20000">
<Points>
<DataArray  type="Float64"  NumberOfComponents="3"  format="ascii">0 0 0  0.01 0 0  0.02 0 0  0.03 0 0  0.04 0 0  0.05 0 0  0.06 0 0  0.07000000000000001 0 0  0.08 0 0  0.09 0 0  0.1 0 0  0.11 0 0  0.12 0 0  0.13 0 0  0.14 0 0  0.15 0 0  0.16 0 0  0.17 0 0  0.18 0 0  0.19 0 0  0.2 0 0  0.21 0 0  0.22 0 0  0.23 0 0  0.24 0 0  0.25 0 0  0.26 0 0  0.27 0 0  0.28 0 0  0.29 0 0  0.3 0 0  0.31 0 0  0.32 0 0  0.33 0 0  0.34 0 0  0.35 0 0  0.36 0 0  0.37 0 0  0.38 0 0  0.39 0 0  0.4 0 0  0.41 0 0  0.42 0 0  0.43 0 0  0.44 0 0  0.45 0 0  0.46 0 0  0.47 0 0  0.48 0 0  0.49 0 0  0.5 0 0  0.51 0 0  0.52 0 0  0.53 0 0  0.54 0 0  0.55 0 0  0.5600000000000001 0 0  0.57 0 0  0.58 0 0  0.59 0 0  0.6 0 0  0.61 0 0  0.62 0 0  0.63 0 0  0.64 0 0  0.65 0 0  0.66 0 0  0.67 0 0  0.68 0 0  0.6899999999999999 0 0  0.7 0 0  0.71 0 0  0.72 0 0  0.73 0 0  0.74 0 0  0.75 0 0  0.76 0 0  0.77 0 0  0.78 0 0  0.79 0 0  0.8 0 0  0.8100000000000001 0 0  0.82 0 0  0.83 0 0  0.84 0 0  0.85 0 0  0.86 0 0  0.87 0 0  0.88 0 0  0.89 0 0  0.9 0 0  0.91 0 0  0.92 0 0  0.93 0 0  0.9399999999999999 0 0  0.95 0 0  0.96 0 0  0.97 0 0  0.98 0 0  0.99 0 0  1 0 0  0 0.01 0  0.01 0.01 0  0.02 0.01 0  0.03 0.01 0  0.04 0.01 0  0.05 0.01 0  0.06 0.01 0  0.07000000000000001 0.01 0  0.08 0.01 0  0.09 0.01 0  0.1 0.01 0  0.11 0.01 0  0.12 0.01 0  0.13 0.01 0  0.14 0.01 0  0.15 0.01 0  0.16 0.01 0  0.17 0.01 0  0.18 0.01 0  0.19 0.01 0  0.2 0.01 0  0.21 0.01 0  0.22 0.01 0  0.23 0.01 0  0.24 0.01 0  0.25 0.01 0  0.26 0.01 0  0.27 0.01 0  0.28 0.01 0  0.29 0.01 0  0.3 0.01 0  0.31 0.01 0  0.32 0.01 0  0.33 0.01 0  0.34 0.01 0  0.35 0.01 0  0.36 0.01 0  0.37 0.01 0  0.38 0.01 0  0.39 0.01 0  0.4 0.01 0  0.41 0.01 0  0.42 0.01 0  0.43 0.01 0  0.44 0.01 0  0.45 0.01 0  0.46 0.01 0  0.47 0.01 0  0.48 0.01 0  0.49 0.01 0  0.5 0.01 0  0.51 0.01 0  0.52 0.01 0  0.53 0.01 0  0.54 0.01 0  0.55 0.01 0  0.5600000000000001 0.01 0  0.57 0.01 0  0.58 0.01 0  0.59 0.01 0  0.6 0.01 0  0.61 0.01 0  0.62 0.01 0  0.63 0.01 0  0.64 0.01 0  0.65 0.01 0  0.66 0.01 0  0.67 0.01 0  0.68 0.01 0  0.6899999999999999 0.01 0  0.7 0.01 0  0.71 0.01 0  0.72 0.01 0  0.73 0.01 0  0.74 0.01 0  0.75 0.01 0  0.76 0.01 0  0.77 0.01 0  0.78 0.01 0  0.79 0.01 0  0.8 0.01 0  0.8100000000000001 0.01 0  0.82 0.01 0  0.83 0.01 0  0.84 0.01 0  0.85 0.01 0  0.86 0.01 0  0.87 0.01 0  0.88 0.01 0  0.89 0.01 0  0.9 0.01 0  0.91 0.01 0  0.92 0.01 0  0.93 0.01 0  0.9399999999999999 0.01 0  0.95 0.01 0  0.96 0.01 0  0.97 0.01 0  0.98 0.01 0  0.99 0.01 0  1 0.01 0  0 0.02 0  0.01 0.02 0  0.02 0.02 0  0.03 0.02 0  0.04 0.02 0  0.05 0.02 0  0.06 0.02 0  0.07000000000000001 0.02 0  0.08 0.02 0  0.09 0.02 0  0.1 0.02 0  0.11 0.02 0  0.12 0.02 0  0.13 0.02 0  0.14 0.02 0  0.15 0.02 0  0.16 0.02 0  0.17 0.02 0  0.18 0.02 0  0.19 0.02 0  0.2 0.02 0  0.21 0.02 0  0.22 0.02 0  0.23 0.02 0  0.24 0.02 0  0.25 0.02 0  0.26 0.02 0  0.27 0.02 0  0.28 0.02 0  0.29 0.02 0  0.3 0.02 0  0.31 0.02 0  0.32 0.02 0  0.33 0.02 0  0.34 0.02 0  0.35 0.02 0  0.36 0.02 0  0.37 0.02 0  0.38 0.02 0  0.39 0.02 0  0.4 0.02 0  0.41 0.02 0  0.42 0.02 0  0.43 0.02 0  0.44 0.02 0  0.45 0.02 0  0.46 0.02 0  0.47 0.02 0  0.48 0.02 0  0.49 0.02 0  0.5 0.02 0  0.51 0.02 0  0.52 0.02 0  0.53 0.02 0  0.54 0.02 0  0.55 0.02 0  0.5600000000000001 0.02 0  0.57 0.02 0  0.58 0.02 0  0.59 0.02 0  0.6 0.02 0  0.61 0.02 0  0.62 0.02 0  0.63 0.02 0  0.64 0.02 0  0.65 0.02 0  0.66 0.02 0  0.67 0.02 0  0.68 0.02 0  0.6899999999999999 0.02 0  0.7 0.02 0  0.71 0.02 0  0.72 0.02 0  0.73 0.02 0  0.74 0.02 0  0.75 0.02 0  0.76 0.02 0  0.77 0.02 0  0.78 0.02 0  0.79 0.02 0  0.8 0.02 0  0.8100000000000001 0.02 0  0.82 0.02 0  0.83 0.02 0  0.84 0.02 0  0.85 0.02 0  0.86 0.02 0  0.87 0.02 0  0.88 0.02 0  0.89 0.02 0  0.9 0.02 0  0.91 0.02 0  0.92 0.02 0  0.93 0.02 0  0.9399999999999999 0.02 0  0.95 0.02 0  0.96 0.02 0  0.97 0.02 0  0.98 0.02 0  0.99 0.02 0  1 0.02 0  0 0.03 0  0.01 0.03 0  0.02 0.03 0  0.03 0.03 0  0.04 0.03 0  0.05 0.03 0  0.06 0.03 0  0.07000000000000001 0.03 0  0.08 0.03 0  0.09 0.03 0  0.1 0.03 0  0.11 0.03 0  0.12 0.03 0  0.13 0.03 0  0.14 0.03 0  0.15 0.03 0  0.16 0.03 0  0.17 0.03 0  0.18 0.03 0  0.19 0.03 0  0.2 0.03 0  0.21 0.03 0  0.22 0.03 0  0.23 0.03 0  0.24 0.03 0  0.25 0.03 0  0.26 0.03 0  0.27 0.03 0  0.28 0.03 0  0.29 0.03 0  0.3 0.03 0  0.31 0.03 0  0.32 0.03 0  0.33 0.03 0  0.34 0.03 0  0.35 0.03 0  0.36 0.03 0  0.37 0.03 0  0.38 0.03 0  0.39 0.03 0  0.4 0.03 0  0.41 0.03 0  0.42 0.03 0  0.43 0.03 0  0.44 0.03 0  0.45 0.03 0  0.46 0.03 0  0.47 0.03 0  0.48 0.03 0  0.49 0.03 0  0.5 0.03 0  0.51 0.03 0  0.52 0.03 0  0.53 0.03 0  0.54 0.03 0  0.55 0.03 0  0.5600000000000001 0.03 0  0.57 0.03 0  0.58 0.03 0  0.59 0.03 0  0.6 0.03 0  0.61 0.03 0  0.62 0.03 0  0.63 0.03 0  0.64 0.03 0  0.65 0.03 0  0.66 0.03 0  0.67 0.03 0  0.68 0.03 0  0.6899999999999999 0.03 0  0.7 0.03 0  0.71 0.03 0  0.72 0.03 0  0.73 0.03 0  0.74 0.03 0  0.75 0.03 0  0.76 0.03 0  0.77 0.03 0  0.78 0.03 0  0.79 0.03 0  0.8 0.03 0  0.8100000000000001 0.03 0  0.82 0.03 0  0.83 0.03 0  0.84 0.03 0  0.85 0.03 0  0.86 0.03 0  0.87 0.03 0  0.88 0.03 0  0.89 0.03 0  0.9 0.03 0  0.91 0.03 0  0.92 0.03 0  0.93 0.03 0  0.9399999999999999 0.03 0  0.95 0.03 0  0.96 0.03 0  0.97 0.03 0  0.98 0.03 0  0.99 0.03 0  1 0.03 0  0 0.04 0  0.01 0.04 0  0.02 0.04 0  0.03 0.04 0  0.04 0.04 0  0.05 0.04 0  0.06 0.04 0  0.07000000000000001 0.04 0  0.08 0.04 0  0.09 0.04 0  0.1 0.04 0  0.11 0.04 0  0.12 0.04 0  0.13 0.04 0  0.14 0.04 0  0.15 0.04 0  0.16 0.04 0  0.17 0.04 0  0.18 0.04 0  0.19 0.04 0  0.2 0.04 0  0.21 0.04 0  0.22 0.04 0  0.23 0.04 0  0.24 0.04 0  0.25 0.04 0  0.26 0.04 0  0.27 0.04 0  0.28 0.04 0  0.29 0.04 0  0.3 0.04 0  0.31 0.04 0  0.32 0.04 0  0.33 0.04 0  0.34 0.04 0  0.35 0.04 0  0.36 0.04 0  0.37 0.04 0  0.38 0.04 0  0.39 0.04 0  0.4 0.04 0  0.41 0.04 0  0.42 0.04 0  0.43 0.04 0  0.44 0.04 0  0.45 0.04 0  0.46 0.04 0  0.47 0.04 0  0.48 0.04 0  0.49 0.04 0  0.5 0.04 0  0.51 0.04 0  0.52 0.04 0  0.53 0.04 0  0.54 0.04 0  0.55 0.04 0  0.5600000000000001 0.04 0  0.57 0.04 0  0.58 0.04 0  0.59 0.04 0  0.6 0.04 0  0.61 0.04 0  0.62 0.04 0  0.63 0.04 0  0.64 0.04 0  0.65 0.04 0  0.66 0.04 0  0.67 0.04 0  0.68 0.04 0  0.6899999999999999 0.04 0  0.7 0.04 0  0.71 0.04 0  0.72 0.04 0  0.73 0.04 0  0.74 0.04 0  0.75 0.04 0  0.76 0.04 0  0.77 0.04 0  0.78 0.04 0  0.79 0.04 0  0.8 0.04 0  0.8100000000000001 0.04 0  0.82 0.04 0  0.83 0.04 0  0.84 0.04 0  0.85 0.04 0  0.86 0.04 0  0.87 0.04 0  0.88 0.04 0  0.89 0.04 0  0.9 0.04 0  0.91 0.04 0  0.92 0.04 0  0.93 0.04 0  0.9399999999999999 0.04 0  0.95 0.04 0  0.96 0.04 0  0.97 0.04 0  0.98 0.04 0  0.99 0.04 0  1 0.04 0  0 0.05 0  0.01 0.05 0  0.02 0.05 0  0.03 0.05 0  0.04 0.05 0  0.05 0.05 0  0.06 0.05 0  0.07000000000000001 0.05 0  0.08 0.05 0  0.09 0.05 0  0.1 0.05 0  0.11 0.05 0  0.12 0.05 0  0.13 0.05 0  0.14 0.05 0  0.15 0.05 0  0.16 0.05 0  0.17 0.05 0  0.18 0.05 0  0.19 0.05 0  0.2 0.05 0  0.21 0.05 0  0.22 0.05 0  0.23 0.05 0  0.24 0.05 0  0.25 0.05 0  0.26 0.05 0  0.27 0.05 0  0.28 0.05 0  0.29 0.05 0  0.3 0.05 0  0.31 0.05 0  0.32 0.05 0  0.33 0.05 0  0.34 0.05 0  0.35 0.05 0  0.36 0.05 0  0.37 0.05 0  0.38 0.05 0  0.39 0.05 0  0.4 0.05 0  0.41 0.05 0  0.42 0.05 0  0.43 0.05 0  0.44 0.05 0  0.45 0.05 0  0.46 0.05 0  0.47 0.05 0  0.48 0.05 0  0.49 0.05 0  0.5 0.05 0  0.51 0.05 0  0.52 0.05 0  0.53 0.05 0  0.54 0.05 0  0.55 0.05 0  0.5600000000000001 0.05 0  0.57 0.05 0  0.58 0.05 0  0.59 0.05 0  0.6 0.05 0  0.61 0.05 0  0.62 0.05 0  0.63 0.05 0  0.64 0.05 0  0.65 0.05 0  0.66 0.05 0  0.67 0.05 0  0.68 0.05 0  0.6899999999999999 0.05 0  0.7 0.05 0  0.71 0.05 0  0.72 0.05 0  0.73 0.05 0  0.74 0.05 0  0.75 0.05 0  0.76 0.05 0  0.77 0.05 0  0.78 0.05 0  0.79 0.05 0  0.8 0.05 0  0.8100000000000001 0.05 0  0.82 0.05 0  0.83 0.05 0  0.84 0.05 0  0.85 0.05 0  0.86 0.05 0  0.87 0.05 0  0.88 0.05 0  0.89 0.05 0  0.9 0.05 0  0.91 0.05 0  0.92 0.05 0  0.93 0.05 0  0.9399999999999999 0.05 0  0.95 0.05 0  0.96 0.05 0  0.97 0.05 0  0.98 0.05 0  0.99 0.05 0  1 0.05 0  0 0.06 0  0.01 0.06 0  0.02 0.06 0  0.03 0.06 0  0.04 0.06 0  0.05 0.06 0  0.06 0.06 0  0.07000000000000001 0.06 0  0.08 0.06 0  0.09 0.06 0  0.1 0.06 0  0.11 0.06 0  0.12 0.06 0  0.13 0.06 0  0.14 0.06 0  0.15 0.06 0  0.16 0.06 0  0.17 0.06 0  0.18 0.06 0  0.19 0.06 0  0.2 0.06 0  0.21 0.06 0  0.22 0.06 0  0.23 0.06 0  0.24 0.06 0  0.25 0.06 0  0.26 0.06 0  0.27 0.06 0  0.28 0.06 0  0.29 0.06 0  0.3 0.06 0  0.31 0.06 0  0.32 0.06 0  0.33 0.06 0  0.34 0.06 0  0.35 0.06 0  0.36 0.06 0  0.37 0.06 0  0.38 0.06 0  0.39 0.06 0  0.4 0.06 0  0.41 0.06 0  0.42 0.06 0  0.43 0.06 0  0.44 0.06 0  0.45 0.06 0  0.46 0.06 0  0.47 0.06 0  0.48 0.06 0  0.49 0.06 0  0.5 0.06 0  0.51 0.06 0  0.52 0.06 0  0.53 0.06 0  0.54 0.06 0  0.55 0.06 0  0.5600000000000001 0.06 0  0.57 0.06 0  0.58 0.06 0  0.59 0.06 0  0.6 0.06 0  0.61 0.06 0  0.62 0.06 0  0.63 0.06 0  0.64 0.06 0  0.65 0.06 0  0.66 0.06 0  0.67 0.06 0  0.68 0.06 0  0.6899999999999999 0.06 0  0.7 0.06 0  0.71 0.06 0  0.72 0.06 0  0.73 0.06 0  0.74 0.06 0  0.75 0.06 0  0.76 0.06 0  0.77 0.06 0  0.78 0.06 0  0.79 0.06 0  0.8 0.06 0  0.8100000000000001 0.06 0  0.82 0.06 0  0.83 0.06 0  0.84 0.06 0  0.85 0.06 0  0.86 0.06 0  0.87 0.06 0  0.88 0.06 0  0.89 0.06 0  0.9 0.06 0  0.91 0.06 0  0.92 0.06 0  0.93 0.06 0  0.9399999999999999 0.06 0  0.95 0.06 0  0.96 0.06 0  0.97 0.06 0  0.98 0.06 0  0.99 0.06 0  1 0.06 0  0 0.07000000000000001 0  0.01 0.07000000000000001 0  0.02 0.07000000000000001 0  0.03 0.07000000000000001 0  0.04 0.07000000000000001 0  0.05 0.07000000000000001 0  0.06 0.07000000000000001 0  0.07000000000000001 0.07000000000000001 0  0.08 0.07000000000000001 0  0.09 0.07000000000000001 0  0.1 0.07000000000000001 0  0.11 0.07000000000000001 0  0.12 0.07000000000000001 0  0.13 0.07000000000000001 0  0.14 0.07000000000000001 0  0.15 0.07000000000000001 0  0.16 0.07000000000000001 0  0.17 0.0700
[...]
<PointData  Scalars="Indicator Function"> 
<DataArray  type="Float64"  Name="Indicator Function"  format="ascii">-1.8055593228630336e-35  -6.4319590545526376e-20  2.8164135015577035e-20  2.8705873197415113e-19  3.4149464159015872e-19  -3.4328526642400843e-20  -2.9903342932709659e-20  6.5229559566922575e-19  8.9786881875615883e-19  -5.2662146916838480e-36  4.8084592769676065e-18  2.5289150762747199e-18  -3.9188573802622255e-20  -3.5578009636259314e-20  7.9544874535280603e-18  -9.0527094160473657e-21  -3.9105533339038722e-21  2.1146486677607268e-18  -3.5415243453541128e-20  -3.9120451995365728e-35  5.8795741365208717e-18  0.0000000000000000e+00  -3.8164478611469966e-20  1.2314459147462982e-17  -5.1469650201074303e-20  -2.5734825100537170e-20  -1.9311762993209266e-20  -4.5078576305266557e-20  4.1347002528165225e-17  -1.7308942223778584e-20  -8.1324391373061343e-20  -2.9242597781062555e-20  -4.8062676862066747e-20  -1.7940852559706147e-20  1.8967271721691966e-17  -9.1931153603073190e-20  -1.2388523260401515e-19  -1.4137199672295597e-19  -1.4678279905858606e-19  -1.4318363692704869e-19  8.9988973431319826e-18  -8.0615088778545373e-20  -2.5105710806341641e-20  -3.2908697633945491e-20  -2.2037512941983632e-20  -2.2162326032298174e-20  2.7245838604048311e-17  -1.4810709477125816e-20  -8.6726712224141147e-21  -2.5015980975482629e-21  -2.3109420279742957e-20  -1.1554710139871483e-20  -8.5102817566899475e-21  -1.0294203268371245e-20  -9.1828387134719820e-21  -4.8542311518599531e-21  2.8469276134278944e-19  -2.7730600002150505e-22  -9.5647725278304368e-23  -5.6433992535881279e-23  -2.1131516845870805e-22  -5.9810455569614479e-22  -1.0912645241644235e-21  -1.4760743124937632e-21  -4.4525816912856138e-22  -2.8256551185091331e-21  -2.3298923322436002e-21  -3.9774569341515775e-22  4.8148248609680896e-35  -1.1599310386134165e-22  -2.7770704167609562e-22  -3.3737556172152280e-22  -3.2671100882962809e-22  -3.1934216917166293e-22  -4.2539469485819978e-22  -4.1841691581058385e-22  -3.1491615871691706e-22  -4.5946563753948067e-22  -2.5818639031652177e-22  -6.9860495451371522e-22  -8.0551159349862806e-22  -2.4088377341185886e-20  -5.1100693518445592e-22  -2.9661599765431369e-22  -3.5735617736586291e-22  -1.0452408926935305e-22  -1.5615225241608278e-23  -1.7612247756585862e-22  -1.6506292515235469e-22  -5.8184649736767982e-23  -3.7409967429897846e-22  -2.9121163545884099e-22  -4.2986728906590050e-22  5.6430679778156944e-20  -1.2746671534492568e-22  5.8774717541114375e-39  -2.8447527221497919e-24  -1.4223763610749018e-24  -1.2748344099417606e-23  -4.0779397679381288e-24  1.1754943508222875e-38  -3.4311704827629850e-20  5.4303724413457216e-04  2.2951095166471173e-04  1.4677536249382503e-04  3.5153260356901844e-04  2.7271539356040229e-04  4.8205006239937715e-04  2.9766570515584568e-04  6.9258245419658981e-04  6.8863189215630924e-05  1.8699613630954400e-05  4.3172157290672492e-04  7.3822374405771603e-04  3.3684671346982491e-04  4.7249308702685137e-04  2.4948934260351910e-04  3.8334443709457471e-05  7.6481606478745370e-04  1.3292715969934852e-04  6.3798430888241289e-04  1.9184022544310486e-04  3.1831533267746766e-04  2.2572735305052382e-04  5.7464645008836420e-04  2.2187273355219451e-04  9.2719478986579202e-04  6.9577958896067623e-04  9.0548261549257898e-04  3.5932213005687193e-04  6.2362036599349286e-04  8.2286874994859447e-04  1.0535756197611087e-03  6.6121975189088733e-04  5.3521033848028562e-04  5.5588498370257548e-05  7.9793629978672828e-04  1.2571162865487966e-03  1.6031598062942007e-03  1.7451515839014096e-03  1.7716280446278810e-03  1.6935530733268949e-03  1.3478681657482720e-03  7.7829825225984948e-04  4.5226427932924655e-04  3.6669825394131789e-04  7.9848194608580884e-04  6.0596169828974582e-04  5.3361204545821200e-04  3.1246591108456819e-04  3.7489044096722970e-05  4.5064785039796401e-05  4.1630230624239420e-04  9.3381204072419776e-05  1.0661700495677720e-04  1.3213537753566286e-04  9.9355627264951677e-05  7.1263737750053727e-05  4.3882098230069035e-05  2.3966185960760602e-05  1.3559027628253226e-05  8.8794781142245784e-06  8.4198490117824952e-06  1.2788686584535284e-05  2.1096949396607635e-05  1.6042116196568463e-05  2.4185463612401022e-05  3.8809745548980544e-05  2.2566736182732336e-05  1.0401164604784739e-05  2.2438674100533402e-06  2.0895459973099416e-06  3.9579523189875389e-06  4.6456734263433670e-06  5.6506947219594840e-06  5.4433351018537002e-06  5.8017743590507076e-06  4.6366418849948738e-06  7.3823217925168687e-06  6.5471124823746797e-06  3.6475477383234882e-06  1.2399768146031286e-05  8.3109227762764537e-06  1.3386749799773409e-05  2.5121076716351113e-06  5.3433587860323793e-06  3.7658771958775894e-06  5.6259778063530628e-07  1.3001085876843177e-06  4.4789555526173722e-06  7.3403153652662879e-07  2.1264004813605849e-06  5.6759803744089209e-06  2.4080122645490939e-06  6.5397945191492537e-06  3.6982520268897243e-06  1.9074046991338887e-06  4.0917057852545597e-07  5.1246509197739664e-08  1.6546097357661607e-07  1.4692326415460387e-07  4.0779397679381582e-24  -1.3147232798559913e-20  6.1810472430464075e-04  1.5866994045638696e-04  9.7474255181827867e-05  1.0729900541641492e-05  3.4973712117423273e-04  5.2778909363971965e-04  6.4467887206248894e-04  7.6722899244500195e-04  4.3224753278650460e-05  2.3425102446654190e-04  4.6129515353116474e-04  6.2582394334743106e-04  9.9310682605920097e-04  8.9236891562594122e-04  6.0187959633736712e-04  1.2266407601743720e-03  3.6125579391513693e-05  5.0954416027678762e-04  9.5254553774790746e-04  4.5487164929417033e-04  1.5922787256683244e-03  1.0367715801446234e-03  1.7208690362310692e-03  9.7964765090072952e-04  1.2361813615874248e-03  8.6754569293971671e-06  3.3818689108779495e-04  1.7175362982479478e-03  1.2229918993150041e-03  7.5462033182219535e-05  1.7076125539748439e-03  1.4242262049552921e-04  1.1751970129562693e-03  6.4999623304271047e-04  1.0180401897675283e-03  1.5621553475642994e-03  2.0816619991931452e-03  2.4138188399637820e-03  2.5157261023449917e-03  2.4482888890700600e-03  2.2419429914131584e-03  1.6699392456305086e-03  2.7797464355756797e-04  1.0712980957667323e-03  9.2842450113154204e-04  8.5618221299955531e-04  1.2337359206136733e-03  1.0359583678387788e-03  3.1832206408839345e-04  3.8446643786622394e-04  6.3135893612582003e-04  2.6039276801781029e-04  3.1693400487435341e-04  1.3756954275236460e-04  1.4306538758293339e-04  9.6106635716655456e-05  8.0535320341269733e-05  4.4712145339103472e-05  2.6630070093236775e-05  1.6649232868318933e-05  1.2950637795188436e-05  1.4356608076372249e-05  2.0317911782744601e-05  3.1192449779132974e-05  1.1016990400614223e-05  5.5172166719406780e-05  3.8141109832035989e-05  1.8073493631268956e-05  9.8844360012254126e-06  7.8252779478419575e-07  3.7041654592594494e-06  5.6687587846532058e-06  6.5231712594047264e-06  6.5680173858146046e-06  8.6668586281233706e-06  7.6914010456013706e-06  7.6868290268438124e-06  8.4271590984232455e-06  7.0090961487397295e-06  1.4194651634944872e-05  1.4063375425007966e-05  1.2710555719347774e-05  1.5165721896910620e-05  9.7138352869081916e-06  4.8344917161407304e-06  1.6684028951130818e-07  1.9009687748511691e-06  6.8236023933025575e-06  4.9110777743029247e-06  3.7423878580591332e-06  6.0644772126972505e-06  2.4245591162986888e-06  7.2955748601047330e-06  7.0282685752371372e-06  2.5424280075455973e-06  1.6052393190383538e-06  5.1952875982464045e-08  1.3467715510797694e-07  4.9103095478865649e-07  1.0944913860214349e-22  -2.3643414215840632e-20  2.3683949093019109e-04  4.5384308444011489e-04  7.2344990971485532e-05  5.0685494991066092e-04  7.2662375933234605e-04  6.3880241580191834e-04  8.4890285099585301e-04  2.1464025796337729e-04  1.3346328930338555e-03  4.9340474403080032e-04  5.4595054203016095e-06  1.0498273640766015e-03  1.2195434549725122e-03  2.1881669163415984e-04  1.0520808685166518e-03  2.3616697129649799e-04  3.7641360168756856e-04  1.4943577987222465e-03  8.0758380590996827e-04  1.7456227396422416e-03  4.6872061180587408e-04  1.1432582777928027e-03  3.4685304401836344e-04  1.6888326282992407e-03  1.4468876655092261e-03  2.4428437066325677e-03  2.0533169399841299e-03  1.9525896848002150e-03  8.0113698753302045e-04  2.1232123806732375e-03  1.8938878214033411e-03  2.0933727655668426e-03  2.1780612216948793e-03  9.9214187090977679e-04  1.4449014583522987e-04  1.8990661362059448e-03  2.1703677780045409e-03  2.6455275559949961e-03  2.8638380041318755e-03  2.9078831583101801e-03  2.7393634721445729e-03  2.0674668653774112e-03  1.2128410635649711e-03  1.3236197603420285e-03  7.1012140732929570e-04  2.3081457670471144e-03  1.4011499844871597e-03  8.5594674002412196e-04  5.3759597726711584e-04  2.5515034635816285e-04  2.6334222303234586e-04  1.0506697678742862e-03  4.1416935372959801e-04  2.7282417381025023e-04  1.3038758190792786e-04  8.3897632591799771e-05  8.0906672852923105e-05  6.8839830097348453e-05  3.9608895010197964e-05  2.4078777739771882e-05  1.6307332960169921e-05  1.4591152059500972e-05  2.0922641895444469e-05  3.1443140164147565e-05  1.7833947741768335e-05  5.5784764425961746e-05  5.6874613996755380e-05  1.9083871512551003e-05  1.2682442450512090e-05  6.8064020882002747e-06  1.1274972532361904e-06  5.0178967539224301e-06  5.8688727397361904e-06  7.7897496697466034e-06  7.0997916999649516e-06  8.9664154142030029e-06  6.7777879936302117e-06  1.1645212234921938e-05  8.9661152203755382e-06  5.0014515026830803e-06  2.3627389551449094e-05  1.1895483472841933e-05  2.0257800382149574e-05  9.3477961993159384e-07  1.4391334743164753e-05  4.8856634707044590e-07  5.4691239108375034e-06  2.2561560301996677e-06  1.0606359497718156e-05  6.8201705451950105e-08  6.0396548402793426e-06  9.3072503037227822e-06  1.0512196004736550e-06  1.0583486702652341e-05  3.6997239050628716e-06  1.0645277392094444e-06  4.6138529876239320e-07  3.0361839088089886e-07  2.1703125183689051e-07  1.8807909613156600e-37  -1.8849287798593708e-20  4.2592188580890529e-04  5.9017124507808273e-04  1.7952974767519784e-05  1.5265926275211618e-04  4.7780206662064530e-04  6.9950650648842078e-04  1.1488056106212093e-03  1.0414852824879746e-03  6.6194237676440570e-04  1.8587123373805273e-04  8.4717467385478365e-05  4.1021719377831229e-04  9.6473972963008285e-04  1.5131052639394138e-03  6.6844867421042087e-04  8.9023607550637511e-04  1.7428147026713255e-03  3.8614751132172762e-04  1.2072690290288203e-03  6.3058280988643263e-04  3.7628051837373938e-04  2.0698332867322834e-03  1.6327000601668322e-03  2.4426262431963626e-03  1.2582245049539899e-03  1.2782182367752429e-03  5.6561602050034286e-04  1.4857038425528403e-03  3.2494831475211794e-03  1.9268784387609372e-03  7.5684939055664896e-04  3.1613082661871117e-03  4.2506874743158057e-04  2.6439195027232287e-03  8.0464419962019524e-04  1.7311511257514583e-03  2.3674600664807697e-03  2.7059522055805359e-03  3.0727297836863625e-03  3.1777476864935351e-03  3.0960672828408433e-03  2.8382712727260413e-03  1.9469417257822576e-03  6.4447459926954731e-04  1.9268339732722319e-03  1.5144361647981546e-03  1.9804566880061983e-03  2.7701782929566384e-03  2.1956287181257518e-03  9.6858626359757314e-04  3.6772482737523678e-04  8.9362056590353164e-04  5.6072119178968930e-04  7.5498665541376810e-04  1.7323979674727246e-04  9.9898379328876982e-05  4.3659299755709542e-05  7.3627475890717626e-05  4.9055688268289438e-05  3.1857030327114270e-05  2.0107268311944859e-05  1.5535965471344219e-05  1.7571169116159494e-05  2.4320113465175550e-05  4.2526877123429321e-05  2.3469795568469794e-05  8.1425965627468774e-05  3.5159133225182222e-05  7.1773331611060047e-06  9.8225958927748214e-06  2.6539415772204374e-06  3.0026145079572646e-06  6.2816599396892019e-06  7.1856969941165894e-06  7.2863498936331068e-06  9.5728128197685986e-06  9.0982655922481844e-06  9.0285676777540073e-06  1.1941305941600970e-05  7.0686165844538500e-06  1.5499445185237184e-05  2.0319191437819274e-05  1.5239093102508815e-05  2.1285369574333434e-05  2.1816501454040312e-05  7.3455616756333041e-06  5.6081846081716419e-06  8.1916131112296750e-06  1.0705586803565715e-05  8.7972311629074217e-06  7.5604743959710160e-06  9.3634732991630996e-06  3.6333367852850125e-06  4.7170075237541196e-06  8.9860621919695004e-06  8.4038149584222745e-07  9.9604630636231717e-08  1.0060810204268745e-06  5.4266922804324737e-07  1.3555887113906384e-22  -2.2006026055915135e-20  3.3955858202378301e-04  5.8151740564210111e-04  9.3924614596749029e-04  1.2574672734743674e-04  5.3123471870884819e-04  6.8685325115888771e-04  6.5378880705072734e-04  1.2924431171488890e-03  4.0621991939256564e-04  1.6708698282853563e-03  9.1132732965203426e-04  5.5126375453783759e-05  1.3738925117546580e-03  1.3951940010721365e-03  3.4824171006676304e-04  1.2854961484183695e-03  9.8349409059334501e-04  1.0838029279288714e-03  1.4227889134966860e-03  9.1556035199311418e-04  2.2747802299747772e-03  1.1399037674266132e-03  2.0526710643955981e-03  1.2014730067367143e-03  2.7815387535392736e-03  2.5074975033162090e-03  3.5181804519088511e-03  2.7063254485128699e-03  2.0513858033984365e-03  1.7138379070852324e-03  3.5034604759076760e-03  2.3439465977050300e-03  3.4318609725965932e-03  2.9731925731727501e-03  1.8109440238080041e-03  2.3373882741200731e-04  2.8482220115731631e-03  2.8038465501103319e-03  3.2030175667355624e-03  3.4249598016652485e-03  3.4599856680043949e-03  3.2465744040651632e-03  2.4515500134860528e-03  1.4001169363795835e-03  2.1590496034214054e-03  1.2871134573356651e-03  3.5746646300271142e-03  1.3903938504153778e-03  1.5139356093670612e-04  4.0624217260658563e-05  4.5712022689367304e-05  5.3146305019780590e-04  1.5697172691733811e-03  4.7778669678301953e-04  5.7630875999133331e-04  1.1275221857055707e-04  3.9063394231358904e-05  4.4573985587188361e-05  6.6900153341855882e-05  3.8775561559010664e-05  2.5487324527652586e-05  1.7314653772506035e-05  1.2841573236703446e-05  2.1800760637218994e-05  3.4657673855620524e-05  2.7661845246466787e-05  7.7391639553803923e-05  6.9400102956240409e-05  7.8647393026305228e-06  5.4371397818855511e-06  7.3371163951133422e-06  5.8704750231772523e-07  5.5383830833673954e-06  6.7183616712225913e-06  9.0715280714346500e-06  7.8512591701863443e-06  1.0171379039963919e-05  7.3310036130332944e-06  1.2815258700014322e-05  1.1383202496302062e-05  6.0562871725117091e-06  2.5303158662607529e-05  1.4287256120125798e-05  2.4451570014318187e-05  3.9437785984550480e-06  2.7766933332749013e-05  2.8162359012480218e-06  1.1292272198624578e-05  2.5092616917640753e-06  1.4896374965486188e-05  2.5119334861784482e-07  1.0466327692915373e-05  1.1083125801293262e-05  6.3100749727488957e-07  1.0857319735634937e-05  5.1723064718155986e-06  1.4834699514638437e-07  2.0992146131203087e-07  7.9260937156003642e-07  -4.3998658691981350e-23  -1.1376326010051349e-20  3.9642532298129958e-04  6.3856664885460061e-04  5.3842467788686819e-04  6.0950988723266434e-04  2.4313440207428632e-04  5.7764750435902756e-04  1.0607171160026076e-03  1.4994177417823457e-03  1.3505254517410090e-03  5.9046465231755692e-04  5.2472400261305676e-04  3.1253725774057557e-04  3.7334661470793959e-04  1.4381268005181659e-03  1.8525452809724488e-03  4.2801987064198323e-04  7.4936828116338190e-04  1.4355134064238939e-03  1.8988524140447799e-04  1.6510432450361112e-03  1.5399429885949170e-04  1.5908396524714347e-04  1.7233933684112507e-03  1.4299093547492463e-03  2.3273417268162059e-03  8.1254750220848102e-04  7.0083722405437786e-04  1.4439946451955195e-03  2.4579188179094896e-03  4.3405546264026623e-03  2.0271545890467599e-03  1.8639088897750608e-03  4.3361578902283955e-03  1.0099344499976779e-03  3.9866851111133887e-03  1.1268318511382101e-03  2.1486323503829069e-03  3.3082252720046815e-03  3.3200514007026777e-03  3.6542938956399588e-03  3.7524188177961337e-03  3.6620734276350303e-03  3.3326603724865146e-03  2.1406998963415269e-03  8.1899575578395548e-04  2.9319645741742047e-03  1.7626629565016755e-03  3.2199047597611676e-03  3.5890562316462211e-03  2.4767672513876207e-03  1.1544307002745665e-03  2.7197563315928529e-04  8.2064996545472833e-04  9.7990258037866282e-04  1.0480909177335203e-03  2.9850549157363479e-04  4.7738420459817038e-05  8.5510497848480936e-06  5.6821868506863077e-05  5.5333822504507225e-05  3.4091891619774489e-05  2.0451474293000648e-05  1.6400410412885414e-05  1.6222987687340231e-05  2.3899829848834905e-05  4.8873621195395034e-05  2.8019195484791112e-05  1.0661391698339418e-04  3.3344559770062556e-05  5.2400363014841675e-06  7.0799805822117862e-06  3.7994674911242027e-06  1.9487562434003820e-06  6.2898611257222760e-06  7.4227879323804171e-06  8.8784805926210824e-06  1.0008088952892240e-05  1.0177491381011597e-05  9.0286744764671435e-06  1.3077062836127749e-05  6.3782653921296640e-06  1.7685041341870310e-05  2.1387297092396156e-05  1.6518154290471584e-05  2.5018781149318298e-05  2.1578080482944025e-05  1.6702617581132474e-05  1.1668321887665034e-05  1.4655722688054033e-05  8.9736840097775789e-06  1.2537140378539587e-05  1.0379280285404000e-05  1.4710181891595061e-05  4.1999895650321040e-06  4.8931413945962111e-06  1.0922668525443647e-05  2.1135583244977521e-06  7.0529726829881404e-07  1.8257667550266137e-07  -1.0135041445128386e-23  -2.0399497054439332e-20  2.0493767031885018e-04  5.0996332018092842e-04  8.4378798757688684e-04  8.8384961049148769e-04  5.9398459256497099e-05  6.7166343297943277e-04  4.4271760459276010e-04  3.6793709346435072e-04  1.7129688631085081e-03  6.4257523217899786e-04  1.6394098454970798e-03  8.9986230149383822e-04  9.6984300364887305e-05  1.4512047379893777e-03  1.7227475021411511e-03  6.5109273674672497e-04  1.1080607970723906e-03  1.1672570179144938e-03  1.3593549130280797e-03  1.2461311135265455e-03  4.8079172248779230e-04  2.0520188881160586e-03  9.5046365699129266e-04  2.2804295943602278e-03  1.4154887547955482e-03  3.1549698124399284e-03  2.6939062500281434e-03  3.6769089068381020e-03  2.5637316002352999e-03  1.6379216963329445e-03  2.7042937317461871e-03  4.2830006413286962e-03  2.3096509992667764e-03  4.8802439494177400e-03  3.3150592361493631e-03  3.0605439457895328e-03  2.9580306046556433e-04  3.5993776082645884e-03  3.6656716991796353e-03  3.8738587516871231e-03  4.0699403343019344e-03  4.0883302367414340e-03  3.8352425672589746e-03  2.8823905088660733e-03  1.4605572986566310e-03  2.7505381704800947e-03  2.0217296477047409e-03  4.4081360578386757e-03  9.7064818910928049e-04  6.8564811141952418e-04  7.1655562518999484e-04  4.2427462674797186e-04  4.6381140445536043e-04  1.7956619277562293e-03  2.9653002100964382e-04  9.4412626148456576e-04  1.2995459026421993e-04  1.9312600037077260e-05  9.7267177064747002e-06  5.7319539279239325e-05  4.3633051653738579e-05  2.9809247473064904e-05  1.9648092575211178e-05  1.3447113744645952e-05  2.2354607833105767e-05  3.4138775047911034e-05  3.7317832020009640e-05  9.8000944449791577e-05  9.0402318673613965e-05  3.7099479565544716e-07  3.2229544829401038e-06  7.1046253748053162e-06  9.1658861078123894e-07  3.7454871815719513e-06  5.6641499025854663e-06  7.5397462805725047e-06  7.6489851085244207e-06  9.6296893150231627e-06  7.8503334600052676e-06  1.2080817827606558e-05  1.2785162273766039e-05  5.5238356370223125e-06  2.4689777884784937e-05  1.5711007183120969e-05  2.5892301689358437e-05  8.1470834676532942e-06  3.4590713584405337e-05  1.5637597135549755e-07  1.6544905863694592e-05  8.9575403119760323e-06  1.6132558932999436e-05  1.3160930795705114e-06  1.5701604894481137e-05  1.5046007252595556e-05  1.4145046943453771e-06  1.0657072467918852e-05  8.2407618170231670e-06  1.1190564785735697e-06  6.2333651580645396e-07  4.8325670346586480e-23  -1.2980155948933648e-20  3.6748466933167516e-04  6.2044568150730129e-04  6.8837801017363647e-04  6.5593661926163403e-04  9.6870883451994131e-04  1.2308660694839999e-04  4.7627179118412094e-04  9.8362107352889050e-04  1.5498456224930300e-03  1.7269092124622392e-03  7.4808594391258980e-04  5.5203583008157215e-04  5.6889044467620857e-04  3.8601938926660011e-04  1.7414897466823890e-03  2.0948621842978420e-0