<?xml version="1.0"?>
<VTKFile type="UnstructuredGrid"  version="0.1"  >
<UnstructuredGrid>
<Piece  NumberOfPoints="10201" NumberOfCells="20000">
<Points>
<DataArray  type="Float64"  NumberOfComponents="3"  format="ascii">0 0 0  0.01 0 0  0.02 0 0  0.03 0 0  0.04 0 0  0.05 0 0  0.06 0 0  0.07000000000000001 0 0  0.08 0 0  0.09 0 0  0.1 0 0  0.11 0 0  0.12 0 0  0.13 0 0  0.14 0 0  0.15 0 0  0.16 0 0  0.17 0 0  0.18 0 0  0.19 0 0  0.2 0 0  0.21 0 0  0.22 0 0  0.23 0 0  0.24 0 0  0.25 0 0  0.26 0 0  0.27 0 0  0.28 0 0  0.29 0 0  0.3 0 0  0.31 0 0  0.32 0 0  0.33 0 0  0.34 0 0  0.35 0 0  0.36 0 0  0.37 0 0  0.38 0 0  0.39 0 0  0.4 0 0  0.41 0 0  0.42 0 0  0.43 0 0  0.44 0 0  0.45 0 0  0.46 0 0  0.47 0 0  0.48 0 0  0.49 0 0  0.5 0 0  0.51 0 0  0.52 0 0  0.53 0 0  0.54 0 0  0.55 0 0  0.5600000000000001 0 0  0.57 0 0  0.58 0 0  0.59 0 0  0.6 0 0  0.61 0 0  0.62 0 0  0.63 0 0  0.64 0 0  0.65 0 0  0.66 0 0  0.67 0 0  0.68 0 0  0.6899999999999999 0 0  0.7 0 0  0.71 0 0  0.72 0 0  0.73 0 0  0.74 0 0  0.75 0 0  0.76 0 0  0.77 0 0  0.78 0 0  0.79 0 0  0.8 0 0  0.8100000000000001 0 0  0.82 0 0  0.83 0 0  0.84 0 0  0.85 0 0  0.86 0 0  0.87 0 0  0.88 0 0  0.89 0 0  0.9 0 0  0.91 0 0  0.92 0 0  0.93 0 0  0.9399999999999999 0 0  0.95 0 0  0.96 0 0  0.97 0 0  0.98 0 0  0.99 0 0  1 0 0  0 0.01 0  0.01 0.01 0  0.02 0.01 0  0.03 0.01 0  0.04 0.01 0  0.05 0.01 0  0.06 0.01 0  0.07000000000000001 0.01 0  0.08 0.01 0  0.09 0.01 0  0.1 0.01 0  0.11 0.01 0  0.12 0.01 0  0.13 0.01 0  0.14 0.01 0  0.15 0.01 0  0.16 0.01 0  0.17 0.01 0  0.18 0.01 0  0.19 0.01 0  0.2 0.01 0  0.21 0.01 0  0.22 0.01 0  0.23 0.01 0  0.24 0.01 0  0.25 0.01 0  0.26 0.01 0  0.27 0.01 0  0.28 0.01 0  0.29 0.01 0  0.3 0.01 0  0.31 0.01 0  0.32 0.01 0  0.33 0.01 0  0.34 0.01 0  0.35 0.01 0  0.36 0.01 0  0.37 0.01 0  0.38 0.01 0  0.39 0.01 0  0.4 0.01 0  0.41 0.01 0  0.42 0.01 0  0.43 0.01 0  0.44 0.01 0  0.45 0.01 0  0.46 0.01 0  0.47 0.01 0  0.48 0.01 0  0.49 0.01 0  0.5 0.01 0  0.51 0.01 0  0.52 0.01 0  0.53 0.01 0  0.54 0.01 0  0.55 0.01 0  0.5600000000000001 0.01 0  0.57 0.01 0  0.58 0.01 0  0.59 0.01 0  0.6 0.01 0  0.61 0.01 0  0.62 0.01 0  0.63 0.01 0  0.64 0.01 0  0.65 0.01 0  0.66 0.01 0  0.67 0.01 0  0.68 0.01 0  0.6899999999999999 0.01 0  0.7 0.01 0  0.71 0.01 0  0.72 0.01 0  0.73 0.01 0  0.74 0.01 0  0.75 0.01 0  0.76 0.01 0  0.77 0.01 0  0.78 0.01 0  0.79 0.01 0  0.8 0.01 0  0.8100000000000001 0.01 0  0.82 0.01 0  0.83 0.01 0  0.84 0.01 0  0.85 0.01 0  0.86 0.01 0  0.87 0.01 0  0.88 0.01 0  0.89 0.01 0  0.9 0.01 0  0.91 0.01 0  0.92 0.01 0  0.93 0.01 0  0.9399999999999999 0.01 0  0.95 0.01 0  0.96 0.01 0  0.97 0.01 0  0.98 0.01 0  0.99 0.01 0  1 0.01 0  0 0.02 0  0.01 0.02 0  0.02 0.02 0  0.03 0.02 0  0.04 0.02 0  0.05 0.02 0  0.06 0.02 0  0.07000000000000001 0.02 0  0.08 0.02 0  0.09 0.02 0  0.1 0.02 0  0.11 0.02 0  0.12 0.02 0  0.13 0.02 0  0.14 0.02 0  0.15 0.02 0  0.16 0.02 0  0.17 0.02 0  0.18 0.02 0  0.19 0.02 0  0.2 0.02 0  0.21 0.02 0  0.22 0.02 0  0.23 0.02 0  0.24 0.02 0  0.25 0.02 0  0.26 0.02 0  0.27 0.02 0  0.28 0.02 0  0.29 0.02 0  0.3 0.02 0  0.31 0.02 0  0.32 0.02 0  0.33 0.02 0  0.34 0.02 0  0.35 0.02 0  0.36 0.02 0  0.37 0.02 0  0.38 0.02 0  0.39 0.02 0  0.4 0.02 0  0.41 0.02 0  0.42 0.02 0  0.43 0.02 0  0.44 0.02 0  0.45 0.02 0  0.46 0.02 0  0.47 0.02 0  0.48 0.02 0  0.49 0.02 0  0.5 0.02 0  0.51 0.02 0  0.52 0.02 0  0.53 0.02 0  0.54 0.02 0  0.55 0.02 0  0.5600000000000001 0.02 0  0.57 0.02 0  0.58 0.02 0  0.59 0.02 0  0.6 0.02 0  0.61 0.02 0  0.62 0.02 0  0.63 0.02 0  0.64 0.02 0  0.65 0.02 0  0.66 0.02 0  0.67 0.02 0  0.68 0.02 0  0.6899999999999999 0.02 0  0.7 0.02 0  0.71 0.02 0  0.72 0.02 0  0.73 0.02 0  0.74 0.02 0  0.75 0.02 0  0.76 0.02 0  0.77 0.02 0  0.78 0.02 0  0.79 0.02 0  0.8 0.02 0  0.8100000000000001 0.02 0  0.82 0.02 0  0.83 0.02 0  0.84 0.02 0  0.85 0.02 0  0.86 0.02 0  0.87 0.02 0  0.88 0.02 0  0.89 0.02 0  0.9 0.02 0  0.91 0.02 0  0.92 0.02 0  0.93 0.02 0  0.9399999999999999 0.02 0  0.95 0.02 0  0.96 0.02 0  0.97 0.02 0  0.98 0.02 0  0.99 0.02 0  1 0.02 0  0 0.03 0  0.01 0.03 0  0.02 0.03 0  0.03 0.03 0  0.04 0.03 0  0.05 0.03 0  0.06 0.03 0  0.07000000000000001 0.03 0  0.08 0.03 0  0.09 0.03 0  0.1 0.03 0  0.11 0.03 0  0.12 0.03 0  0.13 0.03 0  0.14 0.03 0  0.15 0.03 0  0.16 0.03 0  0.17 0.03 0  0.18 0.03 0  0.19 0.03 0  0.2 0.03 0  0.21 0.03 0  0.22 0.03 0  0.23 0.03 0  0.24 0.03 0  0.25 0.03 0  0.26 0.03 0  0.27 0.03 0  0.28 0.03 0  0.29 0.03 0  0.3 0.03 0  0.31 0.03 0  0.32 0.03 0  0.33 0.03 0  0.34 0.03 0  0.35 0.03 0  0.36 0.03 0  0.37 0.03 0  0.38 0.03 0  0.39 0.03 0  0.4 0.03 0  0.41 0.03 0  0.42 0.03 0  0.43 0.03 0  0.44 0.03 0  0.45 0.03 0  0.46 0.03 0  0.47 0.03 0  0.48 0.03 0  0.49 0.03 0  0.5 0.03 0  0.51 0.03 0  0.52 0.03 0  0.53 0.03 0  0.54 0.03 0  0.55 0.03 0  0.5600000000000001 0.03 0  0.57 0.03 0  0.58 0.03 0  0.59 0.03 0  0.6 0.03 0  0.61 0.03 0  0.62 0.03 0  0.63 0.03 0  0.64 0.03 0  0.65 0.03 0  0.66 0.03 0  0.67 0.03 0  0.68 0.03 0  0.6899999999999999 0.03 0  0.7 0.03 0  0.71 0.03 0  0.72 0.03 0  0.73 0.03 0  0.74 0.03 0  0.75 0.03 0  0.76 0.03 0  0.77 0.03 0  0.78 0.03 0  0.79 0.03 0  0.8 0.03 0  0.8100000000000001 0.03 0  0.82 0.03 0  0.83 0.03 0  0.84 0.03 0  0.85 0.03 0  0.86 0.03 0  0.87 0.03 0  0.88 0.03 0  0.89 0.03 0  0.9 0.03 0  0.91 0.03 0  0.92 0.03 0  0.93 0.03 0  0.9399999999999999 0.03 0  0.95 0.03 0  0.96 0.03 0  0.97 0.03 0  0.98 0.03 0  0.99 0.03 0  1 0.03 0  0 0.04 0  0.01 0.04 0  0.02 0.04 0  0.03 0.04 0  0.04 0.04 0  0.05 0.04 0  0.06 0.04 0  0.07000000000000001 0.04 0  0.08 0.04 0  0.09 0.04 0  0.1 0.04 0  0.11 0.04 0  0.12 0.04 0  0.13 0.04 0  0.14 0.04 0  0.15 0.04 0  0.16 0.04 0  0.17 0.04 0  0.18 0.04 0  0.19 0.04 0  0.2 0.04 0  0.21 0.04 0  0.22 0.04 0  0.23 0.04 0  0.24 0.04 0  0.25 0.04 0  0.26 0.04 0  0.27 0.04 0  0.28 0.04 0  0.29 0.04 0  0.3 0.04 0  0.31 0.04 0  0.32 0.04 0  0.33 0.04 0  0.34 0.04 0  0.35 0.04 0  0.36 0.04 0  0.37 0.04 0  0.38 0.04 0  0.39 0.04 0  0.4 0.04 0  0.41 0.04 0  0.42 0.04 0  0.43 0.04 0  0.44 0.04 0  0.45 0.04 0  0.46 0.04 0  0.47 0.04 0  0.48 0.04 0  0.49 0.04 0  0.5 0.04 0  0.51 0.04 0  0.52 0.04 0  0.53 0.04 0  0.54 0.04 0  0.55 0.04 0  0.5600000000000001 0.04 0  0.57 0.04 0  0.58 0.04 0  0.59 0.04 0  0.6 0.04 0  0.61 0.04 0  0.62 0.04 0  0.63 0.04 0  0.64 0.04 0  0.65 0.04 0  0.66 0.04 0  0.67 0.04 0  0.68 0.04 0  0.6899999999999999 0.04 0  0.7 0.04 0  0.71 0.04 0  0.72 0.04 0  0.73 0.04 0  0.74 0.04 0  0.75 0.04 0  0.76 0.04 0  0.77 0.04 0  0.78 0.04 0  0.79 0.04 0  0.8 0.04 0  0.8100000000000001 0.04 0  0.82 0.04 0  0.83 0.04 0  0.84 0.04 0  0.85 0.04 0  0.86 0.04 0  0.87 0.04 0  0.88 0.04 0  0.89 0.04 0  0.9 0.04 0  0.91 0.04 0  0.92 0.04 0  0.93 0.04 0  0.9399999999999999 0.04 0  0.95 0.04 0  0.96 0.04 0  0.97 0.04 0  0.98 0.04 0  0.99 0.04 0  1 0.04 0  0 0.05 0  0.01 0.05 0  0.02 0.05 0  0.03 0.05 0  0.04 0.05 0  0.05 0.05 0  0.06 0.05 0  0.07000000000000001 0.05 0  0.08 0.05 0  0.09 0.05 0  0.1 0.05 0  0.11 0.05 0  0.12 0.05 0  0.13 0.05 0  0.14 0.05 0  0.15 0.05 0  0.16 0.05 0  0.17 0.05 0  0.18 0.05 0  0.19 0.05 0  0.2 0.05 0  0.21 0.05 0  0.22 0.05 0  0.23 0.05 0  0.24 0.05 0  0.25 0.05 0  0.26 0.05 0  0.27 0.05 0  0.28 0.05 0  0.29 0.05 0  0.3 0.05 0  0.31 0.05 0  0.32 0.05 0  0.33 0.05 0  0.34 0.05 0  0.35 0.05 0  0.36 0.05 0  0.37 0.05 0  0.38 0.05 0  0.39 0.05 0  0.4 0.05 0  0.41 0.05 0  0.42 0.05 0  0.43 0.05 0  0.44 0.05 0  0.45 0.05 0  0.46 0.05 0  0.47 0.05 0  0.48 0.05 0  0.49 0.05 0  0.5 0.05 0  0.51 0.05 0  0.52 0.05 0  0.53 0.05 0  0.54 0.05 0  0.55 0.05 0  0.5600000000000001 0.05 0  0.57 0.05 0  0.58 0.05 0  0.59 0.05 0  0.6 0.05 0  0.61 0.05 0  0.62 0.05 0  0.63 0.05 0  0.64 0.05 0  0.65 0.05 0  0.66 0.05 0  0.67 0.05 0  0.68 0.05 0  0.6899999999999999 0.05 0  0.7 0.05 0  0.71 0.05 0  0.72 0.05 0  0.73 0.05 0  0.74 0.05 0  0.75 0.05 0  0.76 0.05 0  0.77 0.05 0  0.78 0.05 0  0.79 0.05 0  0.8 0.05 0  0.8100000000000001 0.05 0  0.82 0.05 0  0.83 0.05 0  0.84 0.05 0  0.85 0.05 0  0.86 0.05 0  0.87 0.05 0  0.88 0.05 0  0.89 0.05 0  0.9 0.05 0  0.91 0.05 0  0.92 0.05 0  0.93 0.05 0  0.9399999999999999 0.05 0  0.95 0.05 0  0.96 0.05 0  0.97 0.05 0  0.98 0.05 0  0.99 0.05 0  1 0.05 0  0 0.06 0  0.01 0.06 0  0.02 0.06 0  0.03 0.06 0  0.04 0.06 0  0.05 0.06 0  0.06 0.06 0  0.07000000000000001 0.06 0  0.08 0.06 0  0.09 0.06 0  0.1 0.06 0  0.11 0.06 0  0.12 0.06 0  0.13 0.06 0  0.14 0.06 0  0.15 0.06 0  0.16 0.06 0  0.17 0.06 0  0.18 0.06 0  0.19 0.06 0  0.2 0.06 0  0.21 0.06 0  0.22 0.06 0  0.23 0.06 0  0.24 0.06 0  0.25 0.06 0  0.26 0.06 0  0.27 0.06 0  0.28 0.06 0  0.29 0.06 0  0.3 0.06 0  0.31 0.06 0  0.32 0.06 0  0.33 0.06 0  0.34 0.06 0  0.35 0.06 0  0.36 0.06 0  0.37 0.06 0  0.38 0.06 0  0.39 0.06 0  0.4 0.06 0  0.41 0.06 0  0.42 0.06 0  0.43 0.06 0  0.44 0.06 0  0.45 0.06 0  0.46 0.06 0  0.47 0.06 0  0.48 0.06 0  0.49 0.06 0  0.5 0.06 0  0.51 0.06 0  0.52 0.06 0  0.53 0.06 0  0.54 0.06 0  0.55 0.06 0  0.5600000000000001 0.06 0  0.57 0.06 0  0.58 0.06 0  0.59 0.06 0  0.6 0.06 0  0.61 0.06 0  0.62 0.06 0  0.63 0.06 0  0.64 0.06 0  0.65 0.06 0  0.66 0.06 0  0.67 0.06 0  0.68 0.06 0  0.6899999999999999 0.06 0  0.7 0.06 0  0.71 0.06 0  0.72 0.06 0  0.73 0.06 0  0.74 0.06 0  0.75 0.06 0  0.76 0.06 0  0.77 0.06 0  0.78 0.06 0  0.79 0.06 0  0.8 0.06 0  0.8100000000000001 0.06 0  0.82 0.06 0  0.83 0.06 0  0.84 0.06 0  0.85 0.06 0  0.86 0.06 0  0.87 0.06 0  0.88 0.06 0  0.89 0.06 0  0.9 0.06 0  0.91 0.06 0  0.92 0.06 0  0.93 0.06 0  0.9399999999999999 0.06 0  0.95 0.06 0  0.96 0.06 0  0.97 0.06 0  0.98 0.06 0  0.99 0.06 0  1 0.06 0  0 0.07000000000000001 0  0.01 0.07000000000000001 0  0.02 0.07000000000000001 0  0.03 0.07000000000000001 0  0.04 0.07000000000000001 0  0.05 0.07000000000000001 0  0.06 0.07000000000000001 0  0.07000000000000001 0.07000000000000001 0  0.08 0.07000000000000001 0  0.09 0.07000000000000001 0  0.1 0.07000000000000001 0  0.11 0.07000000000000001 0  0.12 0.07000000000000001 0  0.13 0.07000000000000001 0  0.14 0.07000000000000001 0  0.15 0.07000000000000001 0  0.16 0.07000000000000001 0  0.17 0.0700
[...]
<PointData  Scalars="Indicator Function"> 
<DataArray  type="Float64"  Name="Indicator Function"  format="ascii">-2.4074124304840448e-35  -4.4948180666925279e-20  -6.1275977376301642e-20  -2.1911394847927853e-20  3.0185729585510467e-19  -2.7661525820803572e-20  -2.2179945549578839e-20  6.6057827984282163e-19  7.9285083110716731e-19  -2.3441595311108313e-21  3.6323538552462365e-18  3.2696864239905486e-19  -2.4729014945427191e-20  -3.0169267609436751e-20  7.9544317456088498e-18  -6.0974697960996881e-21  2.4224587581745701e-34  1.8389326525371959e-18  -3.3461789579815847e-20  1.2037062152420224e-35  7.6364415542770563e-18  6.0185310762101120e-36  -3.3790309670527559e-20  8.4603876276239872e-18  -3.5759968467666317e-20  -2.2260359351591570e-20  -1.7079124251801898e-20  -3.9838629520062116e-20  4.0248035090959481e-17  -1.6052761334917461e-20  -6.5435324308321610e-20  -2.4519128696876550e-20  -4.2348775753584430e-20  -3.1384336962183454e-20  1.8096623047485485e-18  -6.6509514432996066e-20  -9.6990222390964303e-20  -1.1456075814489236e-19  -1.2125540755999036e-19  -1.1908898815686773e-19  7.9740891632508930e-18  -5.2298563842278284e-20  -2.2346826695153026e-20  -2.8930571127304817e-20  -2.8026399930766118e-20  -1.9107849065667235e-20  1.3336209786720280e-17  -1.4897601959717555e-20  -1.0067435537027322e-20  -9.3612077362894057e-21  -1.1526597334721158e-20  -1.1582902356485996e-20  -8.3669593822111705e-21  -1.1738625262174883e-20  -7.0529236078709524e-21  -9.4039548065783001e-37  2.6000054249227684e-33  1.4105932209867450e-37  -4.7019774032891500e-38  0.0000000000000000e+00  -7.0529661049337250e-38  -4.4517810340601197e-24  -4.1259961412848418e-23  -1.5226518492831937e-23  -2.1698084507566694e-23  -6.3773439151889601e-23  -7.9336375510361604e-23  -5.6775468775656447e-23  -4.1013828810380536e-21  -7.2627122953405188e-23  -7.0991822285921676e-23  -1.7541652288639670e-22  -3.5061186312460325e-22  -4.5217937329572624e-22  -9.0794189794476266e-22  -1.8791468165694233e-21  -1.4696901071182919e-21  -4.1869955780202257e-22  -1.2428970570239668e-21  -4.9000961004550553e-22  -3.1468664596393818e-22  3.7013176549732161e-20  -5.5129328921503193e-22  -1.8509876841320801e-22  -7.6679949741432481e-22  -1.0061913907431817e-21  -3.0393723859417297e-22  -5.7780816727616524e-24  1.1754943508222875e-38  -2.5411353163199471e-24  -4.4289353462172386e-24  -1.2646513797373619e-24  8.4488656465351915e-39  7.2328141434808504e-23  -1.1938614500538858e-38  1.2856969462118770e-39  -1.8367099231598242e-40  -9.1835496157991212e-41  -4.5917748078995606e-41  1.4349296274686127e-40  -2.0662986635548023e-40  -2.1570226823639767e-20  3.6824764906131862e-04  2.1274318859706921e-04  1.0681061260117877e-04  3.1431806264808811e-04  2.1008836946669830e-04  3.9326156478293201e-04  2.0292759565725946e-04  6.2241927576474104e-04  8.4457247926461460e-05  1.5596841583788489e-05  4.0474176547467368e-04  6.2854448426199268e-04  1.3120608784286463e-04  4.7787816553416580e-04  1.0190805693927220e-04  5.8888222336833436e-05  6.6086038130970819e-04  1.5949929948642829e-04  6.0279401233123437e-04  5.7091177341918588e-05  3.2016943833544577e-04  8.5553767762432364e-05  5.6593522028247471e-04  2.6989130568981875e-04  8.0201396864768883e-04  6.1534030092983533e-04  7.2718098234196408e-04  3.5407845707502650e-04  5.7836167972961396e-04  5.9076659557135835e-04  8.8339471090161971e-04  5.5826259488178426e-04  4.8375642537286585e-04  3.2349174030620319e-04  4.8234767614080756e-04  9.5695505959773116e-04  1.2687429878752478e-03  1.4293716568328509e-03  1.4696574047988950e-03  1.4104877883493478e-03  1.1267627224184201e-03  3.7874580931917601e-04  4.0256464150881683e-04  3.1988451663977376e-04  6.8843281545595753e-04  6.0734918253495208e-04  5.3674267707598360e-04  3.6271759146506180e-04  1.9970370965791451e-04  1.6863652669156311e-04  3.8973702676870154e-04  1.3790505561805969e-05  1.5072574062380121e-04  1.3610140311439008e-04  5.9003474971925693e-05  5.1705180920169241e-05  2.2956506438082861e-05  8.2501951041628830e-06  2.9587010563692701e-06  1.4121687032183169e-06  1.6039231524902629e-07  3.3283318965424780e-07  1.0125780299530576e-06  2.0610931193917605e-06  1.7777554770182122e-06  1.2716473067055199e-06  2.0087577319767220e-06  2.7284602586846862e-06  2.3395804486433438e-06  1.9903168983917747e-06  3.2825889042556020e-06  6.4896269033684072e-06  8.5598154491118035e-06  1.1246885550781202e-05  2.1259510963872739e-05  2.8691165267014514e-05  1.2130000641564912e-05  1.4215106363874296e-05  1.5282489709554941e-05  1.1859835340581291e-06  6.0784233499310095e-06  6.5246621038060017e-06  6.6688859556196899e-06  5.9016040817243828e-06  1.7732071098354386e-05  9.2598971404803798e-06  8.4529796766674856e-07  3.2699944422386069e-07  2.2385433966944097e-07  4.5777024254706117e-08  5.6896094172134934e-08  4.4210526718520889e-08  3.4333427873730183e-08  2.8658951893866136e-08  2.4500176889897937e-08  2.0703932476687312e-08  1.6242748172840677e-08  1.2523420910448424e-08  6.9135704145215720e-09  -3.3979133578456748e-39  -1.5742913921431546e-20  3.8857466194096437e-04  1.3478052774789192e-04  7.9283141014102853e-05  6.7708754650481614e-05  4.6114742730271548e-04  4.7863274450282337e-04  5.4835407613448536e-04  6.6277455206894523e-04  9.0726839646793241e-05  4.5746917688863835e-04  3.3194005594076008e-04  3.8533776069249963e-04  9.6238568557311733e-04  5.2065840252138354e-04  4.2586661286496690e-04  1.0662353253144757e-03  1.5403305433376509e-04  5.5384332579073829e-04  6.8502631970660617e-04  3.5129569984190681e-04  1.3191694075312644e-03  8.8410879909626235e-04  1.4433851475739046e-03  7.8001620727951118e-04  9.3556966744823983e-04  1.2207010983649766e-04  4.3812683561562915e-04  1.5402669724207906e-03  9.4704555891740323e-04  3.1779934127622978e-04  1.5204804196037450e-03  2.0507756170405706e-04  1.1101802689344683e-03  4.3997884490769285e-04  9.4199981372133823e-05  1.2744902886745613e-03  1.6221129237136355e-03  1.9391029454475970e-03  2.0815663125791704e-03  2.0434603775480228e-03  1.8009585867284812e-03  1.1723243096726666e-03  2.8182173334377500e-04  9.5935978551753135e-04  7.9285254545274962e-04  6.2136036600188554e-04  9.0724522017475917e-04  6.5713074274376180e-04  3.7205425784194795e-05  3.5537593087515252e-04  3.9035744387231318e-04  4.2905156924125229e-04  3.4758302989270062e-04  2.1393789639297735e-04  8.6547896418299260e-05  5.3183703806062748e-05  6.1256691398406461e-05  2.1160949766264486e-05  7.2295367806664354e-06  2.4550562709576088e-06  1.4171529242545001e-07  8.4872182555987416e-07  2.5844934490078570e-07  1.7169365393564542e-06  1.9839672920817742e-06  1.9687647690584229e-06  2.4940428668582104e-06  2.6706460080409485e-06  2.5075547988940607e-06  2.5216497538592502e-06  2.8506848984333905e-06  5.5088375399034974e-06  9.5567646758374051e-06  1.1654579518291135e-05  2.0232193161613439e-05  3.7540784790271766e-05  3.5317418378895365e-05  2.6452412982982684e-06  2.7742879576494460e-05  1.4064807174723262e-05  5.5995662864155895e-06  1.0301788513440392e-05  1.1327399425376971e-05  4.7717232387449200e-06  1.8936666951467371e-05  2.2512000399179984e-05  6.2640190469241828e-06  3.9882348652709300e-08  2.3700695974755563e-07  5.5351657292540293e-09  1.0672108673720221e-07  7.9914396390938717e-08  5.8346707273875963e-08  4.5923011963414838e-08  3.8711754417183430e-08  3.2154523655712738e-08  2.7280815017663077e-08  2.0827485294802023e-08  1.2837033391087430e-08  6.9794977080073321e-39  -1.6436481044795122e-20  2.8359912508114015e-04  4.1239392479631748e-04  4.9694036101145330e-05  4.0672449903646950e-04  5.5100254206406061e-04  4.4179918873832536e-04  7.1366854038631218e-04  1.1981601816537397e-04  1.2893204978795909e-03  4.8977730332476011e-04  2.1963485381833931e-05  9.9027680705553178e-04  9.0623782574029488e-04  3.9801798626818344e-05  1.1206119944500057e-03  4.3785939791247583e-04  4.8720147137806997e-04  1.1708015108977436e-03  7.2273389889167749e-04  1.5926036403588828e-03  6.4618283732012158e-04  1.1446463517808282e-03  5.3948416049101058e-04  1.6658971455954981e-03  1.4165641046503181e-03  2.1019200586545671e-03  1.7057571290176718e-03  1.5073736488061850e-03  8.5188033278130876e-04  1.8614257722982248e-03  1.2976684566859836e-03  1.8904161837778185e-03  1.7780711232414565e-03  9.6598914801650703e-04  2.5290371306458916e-04  1.1752560326796671e-03  1.8163238650976811e-03  2.0716481545430573e-03  2.3033934994428967e-03  2.3792940636777485e-03  2.2623193166258922e-03  1.7067608935591419e-03  3.6642014609801634e-04  9.1029802201679532e-04  5.8527882188795207e-04  1.9401939786076058e-03  1.4469173384141026e-03  1.0475627018722085e-03  8.1407321681843897e-04  7.0829574305074795e-04  6.1617392599093391e-04  9.6073381063704140e-04  9.0670426117425875e-05  4.5749728272376580e-04  1.6373648461059237e-04  2.1485319690048002e-05  7.2801455096819587e-05  5.0738511316819622e-05  1.7781900076436219e-05  6.5708231160935635e-06  2.0522249614113288e-06  5.9885294078013870e-07  4.7283057013124851e-09  1.0951010836775157e-06  2.3286941810121268e-06  2.7408354870004017e-06  2.3356572179138427e-06  2.0868193816990897e-06  2.8172264154714612e-06  3.1571216398849932e-06  2.2064182337128076e-06  3.0458022274297242e-06  8.0396343913337886e-06  1.1359937724361667e-05  1.5354384579536733e-05  3.2451334371974104e-05  4.7005653513587803e-05  2.1268036033645696e-05  2.3967866836416058e-05  2.8280118820584343e-05  3.8044841534748231e-06  1.0906498132202779e-05  1.2483567616099672e-05  1.2336901810960751e-05  8.5791623332333190e-06  2.8589075914745366e-05  1.6228138962329461e-05  1.8194796238295207e-06  1.5630708181795539e-07  5.3306776554522808e-08  1.7510858160493812e-07  1.3396266762196706e-07  8.9886906326031365e-08  6.2913114251198399e-08  5.0290781991093005e-08  4.1912347572133030e-08  3.4425530871935824e-08  2.6449930636069581e-08  1.7596909121757869e-08  7.1631687003233145e-39  -1.9207590192584851e-20  2.9609331963448662e-04  3.9452758071486068e-04  1.1081727413292870e-04  1.3718744751033886e-04  4.9665791834192785e-04  8.0721652476430528e-04  1.0618088705012815e-03  8.9430968707443481e-04  5.2206561305081372e-04  8.0244568649556628e-05  4.7248362320421636e-04  1.4635509008762045e-04  6.9304838641507359e-04  1.5034154031765368e-03  5.3812451755722863e-05  4.0908680694641027e-04  1.3768218174485198e-03  5.1044984044309571e-04  1.2431136778532691e-03  2.8644442829542106e-04  1.5299990082363589e-04  1.5800088128480694e-03  1.2747174769844837e-03  1.9207330133726914e-03  8.6013591750647221e-04  8.2292330652526712e-04  7.2818249736357867e-04  1.4821905417253625e-03  2.8515175152023118e-03  1.4334044043257555e-03  1.0546990118045635e-03  2.7132852283288634e-03  5.3744731611903994e-04  2.3940132041177548e-03  5.1611344787877704e-04  2.6833111462689230e-04  2.1148354439922855e-03  2.2013819397909379e-03  2.4237021379022628e-03  2.5719547320712907e-03  2.5240990110107658e-03  2.2307302078584455e-03  1.3623563821050114e-03  7.1277824056814110e-04  1.5325409128329826e-03  1.3061851816940728e-03  1.5006776713207704e-03  2.2242943194883198e-03  1.6232369510433232e-03  5.8530442136197800e-04  2.0687133142190887e-04  3.7900404043941181e-04  8.3022476828156430e-04  6.8020074431289197e-04  3.5736959623526267e-04  2.1174951487681177e-05  3.4293135975136409e-05  7.9502294727517428e-05  3.1364747088152118e-05  1.1874691199220276e-05  4.4758348718928434e-06  2.9566563510220044e-06  1.8264962539198666e-06  1.3036391228988482e-06  2.1785686435532633e-06  2.6051140912595239e-06  2.1827292869525102e-06  2.4461206066912362e-06  3.1836087268752684e-06  2.8132632780657385e-06  1.4845369747517504e-06  1.2056153274275500e-06  5.4308937919643665e-06  1.0926173018844628e-05  1.2711096431481067e-05  2.4176705960080152e-05  4.7119500469114265e-05  4.3081304264882871e-05  5.5157009354956084e-06  3.4690938759327423e-05  1.7565575061599531e-05  6.3780490731916380e-06  1.2784480673182418e-05  1.5130139498117153e-05  4.0315399836495550e-06  2.5768293905317877e-05  2.6360431426952677e-05  7.1183467085021208e-06  2.2413297383051932e-07  1.2103541893707393e-07  2.8789337285917122e-07  2.1887731112563878e-07  1.3537610745408467e-07  8.7423706016947867e-08  6.2699108244842476e-08  5.0272219897496082e-08  4.0963696222261999e-08  3.2720073163937494e-08  2.0677489234565172e-08  1.2618482362572615e-24  -1.2433980876057115e-20  3.4601318413604105e-04  5.1774716816764554e-04  7.0388318378656277e-04  1.9825548590224259e-04  5.0186148883984310e-04  4.0472367410496858e-04  3.1730746656348312e-04  1.1286517071613165e-03  3.2241560557168665e-04  1.5807021257581964e-03  9.6108843436369825e-04  2.9812607108138043e-04  1.1825761841923520e-03  9.1693464220121267e-04  2.3403620023157844e-04  1.2275486981946700e-03  9.9168382334069135e-04  1.1325298406970499e-03  9.5662407342924684e-04  6.7414987888263786e-04  1.9604641538378867e-03  1.2003844543727763e-03  1.9307724320832655e-03  1.2829181107214516e-03  2.6186769933831708e-03  2.3041406380681193e-03  2.9137015180164504e-03  2.1131492409918956e-03  1.4358663117126050e-03  1.7445234411802917e-03  2.9433777794392415e-03  1.4580746498867169e-03  3.1120319245853210e-03  2.3294078667159103e-03  1.7250354764993100e-03  1.1331648084895077e-04  1.4738805890119359e-03  2.5691717473552683e-03  2.5268209453794747e-03  2.7004120654499663e-03  2.7845991712005511e-03  2.6440138229710066e-03  1.9569790787483444e-03  2.8746292803279638e-04  1.4569646917858170e-03  9.9466856683026175e-04  2.9773727867775132e-03  1.5325750185952870e-03  5.9521175529411393e-04  5.2793994181615160e-04  7.5176275723803649e-04  9.4811522294415535e-04  1.3096937918663121e-03  1.8666249032923942e-05  8.0465300574652967e-04  2.0348172116978840e-04  1.2192124114863635e-04  3.2795978372219510e-05  6.5324699170213289e-05  1.9443607182540893e-05  7.5373662409333511e-06  4.2181925259991427e-06  3.4556852839752359e-06  2.4193339957743948e-06  1.9887585434081614e-06  2.5616493304383266e-06  3.0653131591567194e-06  3.5175815541206186e-06  3.1053562391888347e-06  2.3255687942616111e-06  1.9579877876775213e-06  1.0941809461253790e-06  2.7614795511761017e-06  9.5799504294879048e-06  1.2989938722018150e-05  1.7928394519578734e-05  3.9955749716849121e-05  5.5367560974115095e-05  2.0494989712852455e-05  2.9642635616078981e-05  2.9987893293338256e-05  2.9958818744675716e-06  1.1573698725992976e-05  1.4481231493503121e-05  1.3433401762549831e-05  1.5554106165220221e-05  3.3565145397883716e-05  1.5376421262055255e-05  1.7516969253517762e-06  9.4248337992601663e-08  3.1663352912184102e-07  3.4010972828102522e-07  2.0032314842639617e-07  1.2165055741273641e-07  8.0025542804502335e-08  6.0538222107860786e-08  4.8463151922226484e-08  3.8285464683366393e-08  2.4252025889660786e-08  6.2448137387434024e-39  -5.1691486239679847e-21  2.2399068656057077e-04  4.9356743258983991e-04  3.9974493889534293e-04  5.5280893900612818e-04  1.3487141306187553e-04  5.7418590637713042e-04  1.0197329464129842e-03  1.2986148841251091e-03  1.1441042794132308e-03  4.4785341356946942e-04  4.8719512639551157e-04  4.5791428676935111e-05  1.3332841551534294e-04  1.1455324689559402e-03  1.6870287022470816e-03  2.0216036940530883e-04  8.2166398818758182e-05  1.0260659031357318e-03  2.2654053712337183e-04  1.5416170756853184e-03  1.0412868719667030e-04  3.7865348373388369e-04  1.1681302249217822e-03  9.7327348948613379e-04  1.6871755658880254e-03  3.3140182229204001e-04  2.2912482722396634e-04  1.4957820324557084e-03  2.2740061002547514e-03  3.6559413791027152e-03  1.3955943956219306e-03  2.0514182968020388e-03  3.5336389115402543e-03  1.1890825663030196e-03  3.4557932267893937e-03  8.0543444239572265e-04  4.9241275320596083e-04  2.6985081130216902e-03  2.8285216142874920e-03  2.8359115093686822e-03  2.9617736804673990e-03  2.9193496245739229e-03  2.5926131706129345e-03  1.4847149502194533e-03  1.0477752781082211e-03  2.1098260721536966e-03  1.4955298923035798e-03  2.4596359547857799e-03  2.9932526969196527e-03  2.0003718093457618e-03  9.1393946636524504e-04  1.0988129306042745e-04  1.1027470283249997e-04  1.2312907274250895e-03  8.0827456445649922e-04  6.0552948285792600e-04  7.7856380682505109e-06  1.4356945094186647e-04  8.1918005443256628e-05  4.5663211340454258e-05  1.5121253801482751e-05  5.3775097305636514e-06  2.9992043673261109e-06  2.2191782392943565e-06  1.6449279548768590e-06  1.7656891143857742e-06  2.6296928240666693e-06  2.8982612296428583e-06  2.3924445630724304e-06  2.5666903280401828e-06  2.8620168290104620e-06  1.3113989442923501e-06  5.0015968254515936e-07  6.9192255354221440e-06  1.4267987124152186e-05  1.5514747698089790e-05  3.0189579295006247e-05  5.6552505018158297e-05  4.5749675856163873e-05  1.2161809002029729e-05  3.7479347186249373e-05  1.5608979066806002e-05  7.7545751842833597e-06  1.3026650979475602e-05  1.7019114906411613e-05  1.0378968349898939e-06  3.4411430832557157e-05  2.6489669925498146e-05  5.3606246404601197e-06  4.5943024323778572e-07  1.3725894057187431e-07  4.6050916059135288e-07  2.9897655729758369e-07  1.7263027075486446e-07  1.0528840669678724e-07  7.5219103514952909e-08  5.7807722710209546e-08  4.4932769346436845e-08  2.9611132737676585e-08  2.0938493124021996e-38  -1.9141354321856912e-20  9.3119103266899698e-05  3.5389087023515069e-04  6.3157512736669932e-04  6.2251540435847956e-04  9.8468677815011888e-05  6.2310856345904324e-04  1.9956205169256342e-04  3.1312783139239107e-05  1.4951459925134746e-03  5.4394552668830657e-04  1.4719547715808061e-03  8.9350727731065576e-04  3.0493067313133965e-04  1.0893386536900227e-03  1.1782981238611298e-03  5.7086856116532025e-04  8.5869717675136274e-04  8.8674047754537381e-04  1.2726555758137920e-03  8.2360496711199988e-04  2.1830080650112792e-04  1.6637541957402002e-03  9.2770243254184281e-04  2.0167642463563159e-03  1.3564513122738256e-03  2.8370677777954816e-03  2.3265037647063240e-03  2.8924768279331940e-03  1.8603516792740804e-03  9.9446933599304913e-04  2.6239749244078435e-03  3.4755594198534146e-03  1.2362201765735361e-03  4.2602033420722921e-03  2.4514897983496302e-03  2.7696721192722921e-03  9.5899917523922193e-05  1.7228773588369084e-03  3.3900291507984125e-03  3.1067987845600337e-03  3.1321560064522850e-03  3.2132688824804000e-03  3.0513423769361393e-03  2.2176449747745848e-03  2.2589004430554404e-04  2.0069230787733800e-03  1.3639994956819123e-03  3.6247260824985479e-03  1.2149813024697079e-03  1.5849165809660331e-04  6.4647635778883065e-05  3.2495605868771744e-04  7.9778570873520471e-04  1.3090014585556114e-03  2.7890436166287625e-04  1.0654403574985618e-03  3.2167296871755843e-04  1.8947718218896513e-04  5.4236211140359652e-05  8.0784011575027318e-05  2.8339600719896757e-05  1.1343882299833984e-05  4.0601248425961515e-06  2.5610430411847428e-06  1.5903343261551830e-06  9.9855457898110560e-07  1.2691362806349202e-06  1.6953364285070266e-06  2.2843166446356081e-06  3.0173526987181330e-06  2.6667270949683510e-06  1.2624201010126137e-06  1.8422403383071566e-07  3.7049047837954825e-06  1.3689036630908385e-05  1.6316380530737299e-05  2.1929417621062572e-05  4.8875536788714100e-05  6.2257886116936687e-05  1.5684647025278564e-05  3.5636834645731004e-05  2.8927440095048918e-05  3.6098942210825910e-07  1.1797233766554399e-05  1.5771608336898818e-05  1.1956342289158374e-05  2.5851597716157090e-05  3.7513591654428532e-05  1.2833879275988810e-05  1.2730156028213363e-06  2.3260542730367356e-07  4.8192393472509503e-07  4.3525457443720951e-07  2.4805744821488630e-07  1.4387692337840077e-07  9.3536893505044157e-08  7.0931593863565504e-08  5.3497608459827712e-08  3.5018477346926993e-08  2.1673177093285926e-38  -1.3229036054079405e-21  3.4481998476512638e-04  4.9332530354580803e-04  5.4129891378106910e-04  4.3432445406647928e-04  7.1552025683536632e-04  2.8748205140171726e-05  5.1640227226751258e-04  8.7442096796113019e-04  1.2052563944790133e-03  1.4727734666124855e-03  6.1178244205685060e-04  5.1334207649638385e-04  2.7317363960681996e-04  3.6316738066665208e-04  1.2813789326471638e-03  1.7455637064943319e-03  4.