<?xml version="1.0"?>
<VTKFile type="UnstructuredGrid"  version="0.1"  >
<UnstructuredGrid>
<Piece  NumberOfPoints="10201" NumberOfCells="20000">
<Points>
<DataArray  type="Float64"  NumberOfComponents="3"  format="ascii">0 0 0  0.01 0 0  0.02 0 0  0.03 0 0  0.04 0 0  0.05 0 0  0.06 0 0  0.07000000000000001 0 0  0.08 0 0  0.09 0 0  0.1 0 0  0.11 0 0  0.12 0 0  0.13 0 0  0.14 0 0  0.15 0 0  0.16 0 0  0.17 0 0  0.18 0 0  0.19 0 0  0.2 0 0  0.21 0 0  0.22 0 0  0.23 0 0  0.24 0 0  0.25 0 0  0.26 0 0  0.27 0 0  0.28 0 0  0.29 0 0  0.3 0 0  0.31 0 0  0.32 0 0  0.33 0 0  0.34 0 0  0.35 0 0  0.36 0 0  0.37 0 0  0.38 0 0  0.39 0 0  0.4 0 0  0.41 0 0  0.42 0 0  0.43 0 0  0.44 0 0  0.45 0 0  0.46 0 0  0.47 0 0  0.48 0 0  0.49 0 0  0.5 0 0  0.51 0 0  0.52 0 0  0.53 0 0  0.54 0 0  0.55 0 0  0.5600000000000001 0 0  0.57 0 0  0.58 0 0  0.59 0 0  0.6 0 0  0.61 0 0  0.62 0 0  0.63 0 0  0.64 0 0  0.65 0 0  0.66 0 0  0.67 0 0  0.68 0 0  0.6899999999999999 0 0  0.7 0 0  0.71 0 0  0.72 0 0  0.73 0 0  0.74 0 0  0.75 0 0  0.76 0 0  0.77 0 0  0.78 0 0  0.79 0 0  0.8 0 0  0.8100000000000001 0 0  0.82 0 0  0.83 0 0  0.84 0 0  0.85 0 0  0.86 0 0  0.87 0 0  0.88 0 0  0.89 0 0  0.9 0 0  0.91 0 0  0.92 0 0  0.93 0 0  0.9399999999999999 0 0  0.95 0 0  0.96 0 0  0.97 0 0  0.98 0 0  0.99 0 0  1 0 0  0 0.01 0  0.01 0.01 0  0.02 0.01 0  0.03 0.01 0  0.04 0.01 0  0.05 0.01 0  0.06 0.01 0  0.07000000000000001 0.01 0  0.08 0.01 0  0.09 0.01 0  0.1 0.01 0  0.11 0.01 0  0.12 0.01 0  0.13 0.01 0  0.14 0.01 0  0.15 0.01 0  0.16 0.01 0  0.17 0.01 0  0.18 0.01 0  0.19 0.01 0  0.2 0.01 0  0.21 0.01 0  0.22 0.01 0  0.23 0.01 0  0.24 0.01 0  0.25 0.01 0  0.26 0.01 0  0.27 0.01 0  0.28 0.01 0  0.29 0.01 0  0.3 0.01 0  0.31 0.01 0  0.32 0.01 0  0.33 0.01 0  0.34 0.01 0  0.35 0.01 0  0.36 0.01 0  0.37 0.01 0  0.38 0.01 0  0.39 0.01 0  0.4 0.01 0  0.41 0.01 0  0.42 0.01 0  0.43 0.01 0  0.44 0.01 0  0.45 0.01 0  0.46 0.01 0  0.47 0.01 0  0.48 0.01 0  0.49 0.01 0  0.5 0.01 0  0.51 0.01 0  0.52 0.01 0  0.53 0.01 0  0.54 0.01 0  0.55 0.01 0  0.5600000000000001 0.01 0  0.57 0.01 0  0.58 0.01 0  0.59 0.01 0  0.6 0.01 0  0.61 0.01 0  0.62 0.01 0  0.63 0.01 0  0.64 0.01 0  0.65 0.01 0  0.66 0.01 0  0.67 0.01 0  0.68 0.01 0  0.6899999999999999 0.01 0  0.7 0.01 0  0.71 0.01 0  0.72 0.01 0  0.73 0.01 0  0.74 0.01 0  0.75 0.01 0  0.76 0.01 0  0.77 0.01 0  0.78 0.01 0  0.79 0.01 0  0.8 0.01 0  0.8100000000000001 0.01 0  0.82 0.01 0  0.83 0.01 0  0.84 0.01 0  0.85 0.01 0  0.86 0.01 0  0.87 0.01 0  0.88 0.01 0  0.89 0.01 0  0.9 0.01 0  0.91 0.01 0  0.92 0.01 0  0.93 0.01 0  0.9399999999999999 0.01 0  0.95 0.01 0  0.96 0.01 0  0.97 0.01 0  0.98 0.01 0  0.99 0.01 0  1 0.01 0  0 0.02 0  0.01 0.02 0  0.02 0.02 0  0.03 0.02 0  0.04 0.02 0  0.05 0.02 0  0.06 0.02 0  0.07000000000000001 0.02 0  0.08 0.02 0  0.09 0.02 0  0.1 0.02 0  0.11 0.02 0  0.12 0.02 0  0.13 0.02 0  0.14 0.02 0  0.15 0.02 0  0.16 0.02 0  0.17 0.02 0  0.18 0.02 0  0.19 0.02 0  0.2 0.02 0  0.21 0.02 0  0.22 0.02 0  0.23 0.02 0  0.24 0.02 0  0.25 0.02 0  0.26 0.02 0  0.27 0.02 0  0.28 0.02 0  0.29 0.02 0  0.3 0.02 0  0.31 0.02 0  0.32 0.02 0  0.33 0.02 0  0.34 0.02 0  0.35 0.02 0  0.36 0.02 0  0.37 0.02 0  0.38 0.02 0  0.39 0.02 0  0.4 0.02 0  0.41 0.02 0  0.42 0.02 0  0.43 0.02 0  0.44 0.02 0  0.45 0.02 0  0.46 0.02 0  0.47 0.02 0  0.48 0.02 0  0.49 0.02 0  0.5 0.02 0  0.51 0.02 0  0.52 0.02 0  0.53 0.02 0  0.54 0.02 0  0.55 0.02 0  0.5600000000000001 0.02 0  0.57 0.02 0  0.58 0.02 0  0.59 0.02 0  0.6 0.02 0  0.61 0.02 0  0.62 0.02 0  0.63 0.02 0  0.64 0.02 0  0.65 0.02 0  0.66 0.02 0  0.67 0.02 0  0.68 0.02 0  0.6899999999999999 0.02 0  0.7 0.02 0  0.71 0.02 0  0.72 0.02 0  0.73 0.02 0  0.74 0.02 0  0.75 0.02 0  0.76 0.02 0  0.77 0.02 0  0.78 0.02 0  0.79 0.02 0  0.8 0.02 0  0.8100000000000001 0.02 0  0.82 0.02 0  0.83 0.02 0  0.84 0.02 0  0.85 0.02 0  0.86 0.02 0  0.87 0.02 0  0.88 0.02 0  0.89 0.02 0  0.9 0.02 0  0.91 0.02 0  0.92 0.02 0  0.93 0.02 0  0.9399999999999999 0.02 0  0.95 0.02 0  0.96 0.02 0  0.97 0.02 0  0.98 0.02 0  0.99 0.02 0  1 0.02 0  0 0.03 0  0.01 0.03 0  0.02 0.03 0  0.03 0.03 0  0.04 0.03 0  0.05 0.03 0  0.06 0.03 0  0.07000000000000001 0.03 0  0.08 0.03 0  0.09 0.03 0  0.1 0.03 0  0.11 0.03 0  0.12 0.03 0  0.13 0.03 0  0.14 0.03 0  0.15 0.03 0  0.16 0.03 0  0.17 0.03 0  0.18 0.03 0  0.19 0.03 0  0.2 0.03 0  0.21 0.03 0  0.22 0.03 0  0.23 0.03 0  0.24 0.03 0  0.25 0.03 0  0.26 0.03 0  0.27 0.03 0  0.28 0.03 0  0.29 0.03 0  0.3 0.03 0  0.31 0.03 0  0.32 0.03 0  0.33 0.03 0  0.34 0.03 0  0.35 0.03 0  0.36 0.03 0  0.37 0.03 0  0.38 0.03 0  0.39 0.03 0  0.4 0.03 0  0.41 0.03 0  0.42 0.03 0  0.43 0.03 0  0.44 0.03 0  0.45 0.03 0  0.46 0.03 0  0.47 0.03 0  0.48 0.03 0  0.49 0.03 0  0.5 0.03 0  0.51 0.03 0  0.52 0.03 0  0.53 0.03 0  0.54 0.03 0  0.55 0.03 0  0.5600000000000001 0.03 0  0.57 0.03 0  0.58 0.03 0  0.59 0.03 0  0.6 0.03 0  0.61 0.03 0  0.62 0.03 0  0.63 0.03 0  0.64 0.03 0  0.65 0.03 0  0.66 0.03 0  0.67 0.03 0  0.68 0.03 0  0.6899999999999999 0.03 0  0.7 0.03 0  0.71 0.03 0  0.72 0.03 0  0.73 0.03 0  0.74 0.03 0  0.75 0.03 0  0.76 0.03 0  0.77 0.03 0  0.78 0.03 0  0.79 0.03 0  0.8 0.03 0  0.8100000000000001 0.03 0  0.82 0.03 0  0.83 0.03 0  0.84 0.03 0  0.85 0.03 0  0.86 0.03 0  0.87 0.03 0  0.88 0.03 0  0.89 0.03 0  0.9 0.03 0  0.91 0.03 0  0.92 0.03 0  0.93 0.03 0  0.9399999999999999 0.03 0  0.95 0.03 0  0.96 0.03 0  0.97 0.03 0  0.98 0.03 0  0.99 0.03 0  1 0.03 0  0 0.04 0  0.01 0.04 0  0.02 0.04 0  0.03 0.04 0  0.04 0.04 0  0.05 0.04 0  0.06 0.04 0  0.07000000000000001 0.04 0  0.08 0.04 0  0.09 0.04 0  0.1 0.04 0  0.11 0.04 0  0.12 0.04 0  0.13 0.04 0  0.14 0.04 0  0.15 0.04 0  0.16 0.04 0  0.17 0.04 0  0.18 0.04 0  0.19 0.04 0  0.2 0.04 0  0.21 0.04 0  0.22 0.04 0  0.23 0.04 0  0.24 0.04 0  0.25 0.04 0  0.26 0.04 0  0.27 0.04 0  0.28 0.04 0  0.29 0.04 0  0.3 0.04 0  0.31 0.04 0  0.32 0.04 0  0.33 0.04 0  0.34 0.04 0  0.35 0.04 0  0.36 0.04 0  0.37 0.04 0  0.38 0.04 0  0.39 0.04 0  0.4 0.04 0  0.41 0.04 0  0.42 0.04 0  0.43 0.04 0  0.44 0.04 0  0.45 0.04 0  0.46 0.04 0  0.47 0.04 0  0.48 0.04 0  0.49 0.04 0  0.5 0.04 0  0.51 0.04 0  0.52 0.04 0  0.53 0.04 0  0.54 0.04 0  0.55 0.04 0  0.5600000000000001 0.04 0  0.57 0.04 0  0.58 0.04 0  0.59 0.04 0  0.6 0.04 0  0.61 0.04 0  0.62 0.04 0  0.63 0.04 0  0.64 0.04 0  0.65 0.04 0  0.66 0.04 0  0.67 0.04 0  0.68 0.04 0  0.6899999999999999 0.04 0  0.7 0.04 0  0.71 0.04 0  0.72 0.04 0  0.73 0.04 0  0.74 0.04 0  0.75 0.04 0  0.76 0.04 0  0.77 0.04 0  0.78 0.04 0  0.79 0.04 0  0.8 0.04 0  0.8100000000000001 0.04 0  0.82 0.04 0  0.83 0.04 0  0.84 0.04 0  0.85 0.04 0  0.86 0.04 0  0.87 0.04 0  0.88 0.04 0  0.89 0.04 0  0.9 0.04 0  0.91 0.04 0  0.92 0.04 0  0.93 0.04 0  0.9399999999999999 0.04 0  0.95 0.04 0  0.96 0.04 0  0.97 0.04 0  0.98 0.04 0  0.99 0.04 0  1 0.04 0  0 0.05 0  0.01 0.05 0  0.02 0.05 0  0.03 0.05 0  0.04 0.05 0  0.05 0.05 0  0.06 0.05 0  0.07000000000000001 0.05 0  0.08 0.05 0  0.09 0.05 0  0.1 0.05 0  0.11 0.05 0  0.12 0.05 0  0.13 0.05 0  0.14 0.05 0  0.15 0.05 0  0.16 0.05 0  0.17 0.05 0  0.18 0.05 0  0.19 0.05 0  0.2 0.05 0  0.21 0.05 0  0.22 0.05 0  0.23 0.05 0  0.24 0.05 0  0.25 0.05 0  0.26 0.05 0  0.27 0.05 0  0.28 0.05 0  0.29 0.05 0  0.3 0.05 0  0.31 0.05 0  0.32 0.05 0  0.33 0.05 0  0.34 0.05 0  0.35 0.05 0  0.36 0.05 0  0.37 0.05 0  0.38 0.05 0  0.39 0.05 0  0.4 0.05 0  0.41 0.05 0  0.42 0.05 0  0.43 0.05 0  0.44 0.05 0  0.45 0.05 0  0.46 0.05 0  0.47 0.05 0  0.48 0.05 0  0.49 0.05 0  0.5 0.05 0  0.51 0.05 0  0.52 0.05 0  0.53 0.05 0  0.54 0.05 0  0.55 0.05 0  0.5600000000000001 0.05 0  0.57 0.05 0  0.58 0.05 0  0.59 0.05 0  0.6 0.05 0  0.61 0.05 0  0.62 0.05 0  0.63 0.05 0  0.64 0.05 0  0.65 0.05 0  0.66 0.05 0  0.67 0.05 0  0.68 0.05 0  0.6899999999999999 0.05 0  0.7 0.05 0  0.71 0.05 0  0.72 0.05 0  0.73 0.05 0  0.74 0.05 0  0.75 0.05 0  0.76 0.05 0  0.77 0.05 0  0.78 0.05 0  0.79 0.05 0  0.8 0.05 0  0.8100000000000001 0.05 0  0.82 0.05 0  0.83 0.05 0  0.84 0.05 0  0.85 0.05 0  0.86 0.05 0  0.87 0.05 0  0.88 0.05 0  0.89 0.05 0  0.9 0.05 0  0.91 0.05 0  0.92 0.05 0  0.93 0.05 0  0.9399999999999999 0.05 0  0.95 0.05 0  0.96 0.05 0  0.97 0.05 0  0.98 0.05 0  0.99 0.05 0  1 0.05 0  0 0.06 0  0.01 0.06 0  0.02 0.06 0  0.03 0.06 0  0.04 0.06 0  0.05 0.06 0  0.06 0.06 0  0.07000000000000001 0.06 0  0.08 0.06 0  0.09 0.06 0  0.1 0.06 0  0.11 0.06 0  0.12 0.06 0  0.13 0.06 0  0.14 0.06 0  0.15 0.06 0  0.16 0.06 0  0.17 0.06 0  0.18 0.06 0  0.19 0.06 0  0.2 0.06 0  0.21 0.06 0  0.22 0.06 0  0.23 0.06 0  0.24 0.06 0  0.25 0.06 0  0.26 0.06 0  0.27 0.06 0  0.28 0.06 0  0.29 0.06 0  0.3 0.06 0  0.31 0.06 0  0.32 0.06 0  0.33 0.06 0  0.34 0.06 0  0.35 0.06 0  0.36 0.06 0  0.37 0.06 0  0.38 0.06 0  0.39 0.06 0  0.4 0.06 0  0.41 0.06 0  0.42 0.06 0  0.43 0.06 0  0.44 0.06 0  0.45 0.06 0  0.46 0.06 0  0.47 0.06 0  0.48 0.06 0  0.49 0.06 0  0.5 0.06 0  0.51 0.06 0  0.52 0.06 0  0.53 0.06 0  0.54 0.06 0  0.55 0.06 0  0.5600000000000001 0.06 0  0.57 0.06 0  0.58 0.06 0  0.59 0.06 0  0.6 0.06 0  0.61 0.06 0  0.62 0.06 0  0.63 0.06 0  0.64 0.06 0  0.65 0.06 0  0.66 0.06 0  0.67 0.06 0  0.68 0.06 0  0.6899999999999999 0.06 0  0.7 0.06 0  0.71 0.06 0  0.72 0.06 0  0.73 0.06 0  0.74 0.06 0  0.75 0.06 0  0.76 0.06 0  0.77 0.06 0  0.78 0.06 0  0.79 0.06 0  0.8 0.06 0  0.8100000000000001 0.06 0  0.82 0.06 0  0.83 0.06 0  0.84 0.06 0  0.85 0.06 0  0.86 0.06 0  0.87 0.06 0  0.88 0.06 0  0.89 0.06 0  0.9 0.06 0  0.91 0.06 0  0.92 0.06 0  0.93 0.06 0  0.9399999999999999 0.06 0  0.95 0.06 0  0.96 0.06 0  0.97 0.06 0  0.98 0.06 0  0.99 0.06 0  1 0.06 0  0 0.07000000000000001 0  0.01 0.07000000000000001 0  0.02 0.07000000000000001 0  0.03 0.07000000000000001 0  0.04 0.07000000000000001 0  0.05 0.07000000000000001 0  0.06 0.07000000000000001 0  0.07000000000000001 0.07000000000000001 0  0.08 0.07000000000000001 0  0.09 0.07000000000000001 0  0.1 0.07000000000000001 0  0.11 0.07000000000000001 0  0.12 0.07000000000000001 0  0.13 0.07000000000000001 0  0.14 0.07000000000000001 0  0.15 0.07000000000000001 0  0.16 0.07000000000000001 0  0.17 0.0700
[...]
<PointData  Scalars="Indicator Function"> 
<DataArray  type="Float64"  Name="Indicator Function"  format="ascii">-2.4074124304840448e-35  -6.1343936312381404e-20  2.9355282915180296e-20  1.9559153300926130e-19  3.3683002607731775e-19  -3.3014413950784459e-20  -2.8472404567989038e-20  6.5499705911905672e-19  8.7249273423416939e-19  0.0000000000000000e+00  4.5693915078317333e-18  2.1208710915832632e-18  -3.6501991231906764e-20  -3.4708233538578643e-20  8.1452330396843023e-18  -9.0002353108670454e-21  -1.8602973040836340e-21  2.0591873136716949e-18  -3.5203318324630005e-20  -3.0092655381050560e-35  6.1597209077451825e-18  0.0000000000000000e+00  -3.7477833299456716e-20  1.1484012988497166e-17  -5.0113275142226043e-20  -2.5056637571113024e-20  -1.8815040832485166e-20  -4.4052448617508840e-20  4.1271255498865201e-17  -1.7018337662482184e-20  -7.8086179481669883e-20  -2.8229374814877175e-20  -4.6506959570081746e-20  -2.1075614933044506e-20  1.3560080869990997e-17  -8.6227452165588095e-20  -1.1789255863556883e-19  -1.3540454965934515e-19  -1.4110514391173413e-19  -1.3799189116916483e-19  9.0768601420459516e-18  -7.4780080519145605e-20  -2.4422574632055580e-20  -3.1504587510639685e-20  -2.3657669657145516e-20  -2.1531526137733242e-20  2.4364853640470313e-17  -1.4930147101913627e-20  -9.3420076630631075e-21  -4.6761375587071843e-21  -2.3147239133765130e-20  -1.1573619566882573e-20  -8.5845242686625951e-21  -1.1035073457724314e-20  -9.2843317132957922e-21  -3.7234159660757594e-21  2.9361569361550480e-19  1.8807909613156600e-37  -4.7019774032891500e-38  0.0000000000000000e+00  -4.7019774032891500e-38  -6.1345885077382015e-22  -2.6030065800077798e-22  -1.0366772962543033e-21  -1.7598427256446510e-21  -8.3073422467070154e-22  -2.4246690638455341e-22  -1.4402815320671449e-23  4.3029032955444529e-19  -7.0093053310485996e-23  -1.0878657607395280e-22  7.0529661049337250e-38  -3.6463823912153738e-23  -8.1757929370013567e-23  -1.9862692294642017e-23  -4.6353171524481094e-23  -1.1909758268856678e-23  -1.1754943508222875e-38  -3.5867620071222623e-22  -6.0094706749316112e-22  -7.9393312996364041e-22  4.7481197128079920e-20  -1.8264924590610628e-22  -1.7249009784543760e-22  -3.6494257280469633e-22  -2.5818833397462408e-22  -6.9189877817779756e-23  -1.1963823743874851e-22  -2.2886198379468986e-22  -6.4586141413631120e-23  -3.1777239941871985e-22  -3.7026732346067138e-22  -2.6552793732611117e-22  1.5403522955319776e-19  -2.5273949631123876e-23  1.1754943508222875e-38  -3.1480353978794720e-26  -1.4922835722124224e-23  -7.4535477725674173e-24  -9.9621616656546850e-25  4.4081038155835782e-39  -3.2173993568618465e-20  5.1267272717129566e-04  2.2503879038150853e-04  1.3843201757047989e-04  3.4673087541234245e-04  2.6039853128527381e-04  4.6453554382379575e-04  2.8064547049905264e-04  6.8052398864897512e-04  7.7174351230982344e-05  1.1550643726294820e-05  4.2351284194332102e-04  7.1715218685060647e-04  2.9898532301588236e-04  4.7575528901618069e-04  2.2365092586652506e-04  5.0308362635807993e-05  7.4360159269230115e-04  1.3053983232887983e-04  6.3416660515603458e-04  1.6839403272513227e-04  3.1839938127454652e-04  1.9968655565848247e-04  5.7529734649911044e-04  2.2948971834307538e-04  9.0276050902737728e-04  6.7788328705712633e-04  8.6707190710882129e-04  3.6004241115986969e-04  6.1315023324176013e-04  7.7921028017654658e-04  1.0170704151774635e-03  6.3896354726703235e-04  5.1831312952630327e-04  1.2050796147309644e-04  7.2884441038554399e-04  1.1889134805754271e-03  1.5293067922758949e-03  1.6745781214224386e-03  1.7046352334525643e-03  1.6335233018721206e-03  1.2981360466377361e-03  6.9805014772417108e-04  4.3995799204941439e-04  3.4755719826880509e-04  7.7575498472494408e-04  6.0952183123675870e-04  5.3791523939811898e-04  3.3658129784210658e-04  8.5488895381119148e-05  8.4237805467707370e-05  4.1698359014992155e-04  7.3358066158535977e-05  1.1796600811073940e-04  1.3980720679348334e-04  9.7348047980790352e-05  6.8957296225016234e-05  4.0813689941789027e-05  1.9594499114481078e-05  1.0198106658089690e-05  8.4478463414404530e-06  5.9213455873233479e-06  8.0904194133467622e-06  6.4395007883301239e-07  1.8675117940457330e-05  2.2364949203547046e-05  9.1024777868886987e-06  3.5269307322378879e-08  2.9924792831424837e-06  2.5253683901629165e-06  3.9194494677565267e-06  2.1673247740944631e-06  1.3137477102662276e-06  1.5143820240954133e-06  7.1562890893380016e-07  3.1687676376901166e-07  8.3502450402037549e-07  4.5271276439555322e-07  3.2022595768894487e-06  4.8602062270522639e-06  8.3955968434002368e-06  1.0104429371345267e-05  6.5806326064179337e-06  7.8282537865202639e-08  3.0681640925946496e-06  5.0401388932821160e-06  2.1310380920770458e-06  4.3104217723872847e-06  8.2456219594963037e-06  8.2641720685890897e-07  3.2617865273463257e-06  4.0935853747699366e-06  4.6233504324748342e-06  2.9998569651058939e-06  1.7036531635142364e-06  1.0050640259028066e-06  3.4486992986630665e-07  5.6709964179345421e-10  2.6854235976898238e-07  3.5892470052197577e-08  -2.7639409921828940e-24  -1.3637142606202177e-20  5.7959514178660321e-04  1.4945994013441886e-04  1.0093805242116535e-04  2.8695703247992379e-07  3.6798067288306910e-04  5.1425994294560851e-04  6.2948114419583484e-04  7.4974952405251446e-04  1.4968272127309645e-05  2.8437288120121749e-04  4.3899044147540874e-04  5.7869399646818750e-04  9.8451199450049387e-04  8.2898390504029405e-04  5.6332396817155423e-04  1.1992207946859357e-03  2.7677257070846949e-07  5.2203786943011453e-04  9.0502525231597362e-04  4.2694751789343246e-04  1.5385073909029386e-03  1.0011870942608679e-03  1.6649991510863506e-03  9.3558916457201662e-04  1.1774263746198122e-03  1.9587535230733849e-05  3.5034567050754885e-04  1.6767783532213704e-03  1.1661680736581013e-03  1.1493646899032560e-04  1.6584524827299358e-03  1.6483797316963649e-04  1.1623813750110470e-03  6.1178252571238807e-04  8.3751670335166365e-04  1.4861115982362659e-03  1.9776713473180752e-03  2.3091557241440132e-03  2.4190612296157957e-03  2.3559106504059384e-03  2.1455237839086328e-03  1.5818693186812614e-03  2.9854453949560496e-04  1.0422268102280787e-03  9.0871715465162871e-04  8.0350143855227260e-04  1.1672019704553704e-03  9.5952271953474969e-04  2.5948178185741013e-04  3.9249640304568411e-04  5.7416027797093912e-04  3.0974705900187503e-04  3.4112512397897277e-04  1.5745026332548593e-04  1.4544201602421046e-04  8.6777768508875718e-05  7.7004133880485728e-05  4.1228101818229831e-05  2.1967674187830825e-05  1.0795707505206479e-05  7.3331256388875569e-06  1.2912918652876106e-05  8.0053385980588255e-06  1.8979515797846338e-05  3.0137439763002939e-05  1.9954832734845769e-05  1.0680859128971257e-05  1.1620341736844871e-06  4.6549573386990397e-06  6.0858783215397998e-06  1.1276683411453636e-06  4.5581782124175423e-06  2.9279397460801818e-06  3.0735721493947485e-06  6.5649979536048153e-07  5.3375173252537569e-06  1.7818937724198762e-06  2.6819671966040936e-06  9.6674653209266648e-06  1.0651032827358867e-05  1.1792407708994566e-05  1.2853720144607384e-05  4.3448030993280607e-06  4.5584361463593680e-06  5.6825973474737026e-06  2.9629663409368232e-06  3.9140151370347336e-07  5.2527384573749364e-06  1.3761275213837279e-05  6.7128456762280793e-06  7.3616538792368400e-06  5.5495209638392079e-06  4.0016723961512186e-06  3.4115510354781446e-06  1.7925979183102712e-06  1.1158798782022592e-06  8.8272279138861630e-07  1.7873559463336696e-07  4.2695139942980399e-07  1.0665253665965306e-22  -2.2879520695756563e-20  2.4566492143876252e-04  4.5106094834781253e-04  6.2283281956064006e-05  4.8337262412961131e-04  6.9935207767434914e-04  6.0616117952539490e-04  8.2200530731036151e-04  2.0057919825822591e-04  1.3277692766404067e-03  4.8673846127326363e-04  3.7554522771078848e-06  1.0356302256734455e-03  1.1666780211971885e-03  1.7029569875168495e-04  1.0685081616878410e-03  2.7124452020970389e-04  4.1268029636006866e-04  1.4241554042153232e-03  7.7564218048542283e-04  1.7170596271430618e-03  4.9801518700351042e-04  1.1394549667983597e-03  3.7773155060092067e-04  1.6870395245505813e-03  1.4371613916180862e-03  2.3743527341604327e-03  1.9810060267243176e-03  1.8626303830180445e-03  8.1571552745623294e-04  2.0664438661625465e-03  1.7866347003481415e-03  2.0348348536470165e-03  2.0893309911563522e-03  9.7287502718922494e-04  3.4218218793958791e-05  1.7673455624994286e-03  2.0794968966132052e-03  2.5183678640109822e-03  2.7390547325971842e-03  2.7910719864069188e-03  2.6369052957990148e-03  1.9786538433599335e-03  1.0511202107939190e-03  1.2478469380349923e-03  6.6320858360655337e-04  2.2281648197092184e-03  1.4195103050302518e-03  9.0633000214105340e-04  6.2366797198891509e-04  3.9103788054408275e-04  3.8343430646232523e-04  1.0490930437749401e-03  3.4835340891682648e-04  3.2548403875074780e-04  1.4881908676769471e-04  7.2568806541010791e-05  7.7744289736057025e-05  6.7261711052617616e-05  3.3997755218488956e-05  2.0558679810580589e-05  1.4004164578569165e-05  6.6290448348273718e-06  1.6189083708580005e-05  1.2988347880364999e-06  3.6164716201898787e-05  3.3537066658108382e-05  1.2379183385368729e-05  3.1561420798696064e-06  4.8907109337141896e-06  1.8636610230699791e-06  1.8449619361467221e-06  4.4762555889604728e-06  5.0185195436172386e-06  4.9688807942987654e-07  3.3138648150149629e-06  1.6127071115438759e-06  5.0131170848562995e-06  1.6480414898513782e-06  8.6212164340309580e-06  1.3669916058153729e-05  1.3734543573612021e-05  1.4983430355179658e-05  1.0363511298138703e-05  2.2962164833097154e-06  5.6684762264941149e-06  5.2347131162330482e-06  6.6203154889622254e-07  8.4736822244686275e-06  1.0157543367590378e-05  4.6166010684952526e-06  1.1433780419968455e-05  7.8304716359824027e-06  6.4792960090111006e-06  4.8537417040727181e-06  2.9288189650337419e-06  2.0720065610802070e-06  5.0973692807908237e-07  4.2453062330856827e-07  3.3519065103465630e-07  -2.2334392665623463e-37  -1.8866350732743694e-20  4.1216080351929994e-04  5.6147254297296936e-04  4.0506841314574005e-05  1.4573737256263700e-04  4.8343423285374039e-04  7.1355755977825627e-04  1.1290866284803091e-03  1.0194385838655940e-03  6.3925948580643435e-04  1.6136199328198919e-04  1.7228479689362263e-04  3.5874481479766893e-04  9.0596371602879244e-04  1.5116245923691215e-03  5.6733008349680659e-04  7.9712376374608369e-04  1.6760659525679202e-03  4.0534889607614632e-04  1.2148443899295711e-03  5.7341494991254083e-04  3.2512340927689517e-04  1.9736321452811820e-03  1.5590979628289437e-03  2.3384426789935537e-03  1.1737917643170211e-03  1.1882421939153867e-03  6.0028717541555201e-04  1.4746030273231345e-03  3.1570133080070476e-03  1.8255118358948212e-03  8.0164263351394636e-04  3.0631342917978050e-03  4.5442760287549148e-04  2.5959689907191497e-03  7.4074457879877399e-04  1.4243533929025303e-03  2.2958062194915348e-03  2.5843798340922110e-03  2.9286879505039877e-03  3.0415461524073389e-03  2.9647822900802511e-03  2.7079021503507617e-03  1.8420104620482372e-03  6.9063009671897855e-04  1.8392905954062208e-03  1.4904476157091523e-03  1.8718043789435438e-03  2.6593064740468787e-03  2.0908064028021113e-03  9.0871371295430606e-04  3.3204358723998311e-04  7.6064597805272454e-04  6.4938448957085990e-04  7.6992277653042561e-04  2.1785697936143494e-04  1.0255875778109367e-04  2.3544012564575963e-05  7.6106012650505947e-05  4.9637583682606445e-05  2.6515712460302054e-05  1.7121371560705541e-05  1.1485873066342354e-05  1.3831654170862887e-05  1.5753524499961075e-05  2.4944308205756429e-05  4.4388009941822311e-05  2.2627491002969005e-05  7.9287572181483280e-06  2.4553583614750998e-06  2.2649306738734181e-07  1.9684316310737428e-06  1.6343078156357442e-06  1.9302704800935260e-06  2.4917001263926722e-06  2.9837542308280220e-06  1.9291697339392120e-06  6.8037802041888339e-06  9.3550635050291219e-07  2.6191661337864628e-07  1.3034677265864040e-05  1.6670710946465017e-05  1.4144494280913305e-05  1.3859142415176903e-05  3.7066142934555748e-06  6.9685471339633094e-06  5.7520353727078181e-06  7.6783502848848760e-07  4.0684326728650297e-06  8.4670240334586292e-06  1.7656268287170998e-05  5.1736886552667927e-06  1.3530097152647905e-05  7.8642194009688567e-06  4.7810648018347471e-06  4.5211430901419958e-06  2.8689741033341826e-06  1.6131359625148718e-06  1.4721916783674179e-06  3.9008334719792902e-07  -9.0018425473492921e-23  -2.0519297175508166e-20  3.3986596051930186e-04  5.7151320684050431e-04  9.1090509464833197e-04  1.2471666018846643e-04  5.0902845248876848e-04  6.3883705135236969e-04  6.0539831691230059e-04  1.2614880366426319e-03  3.9945299134913333e-04  1.6588623154468261e-03  9.1683247303663690e-04  1.0120078092495931e-04  1.3396329245625273e-03  1.3092844438995549e-03  3.1877065343384958e-04  1.2868146526097458e-03  9.8455238738944699e-04  1.1075143734008859e-03  1.3212541670457442e-03  8.5336605569907105e-04  2.2167264693280630e-03  1.1468204791652043e-03  2.0240758718254037e-03  1.2093022903297164e-03  2.7510150428713036e-03  2.4675106269282303e-03  3.3967333709245301e-03  2.5876106580849578e-03  1.9311032974889029e-03  1.7201681725795268e-03  3.3905076274357618e-03  2.1808764859506283e-03  3.3372403373024798e-03  2.8258889318322645e-03  1.7790771911777531e-03  1.2499919556078215e-04  2.5918723641686881e-03  2.7152638216538061e-03  3.0455492055167163e-03  3.2614143471865840e-03  3.3079199382148069e-03  3.1116550989182582e-03  2.3288513133943168e-03  1.1954921003767894e-03  2.0429349591584811e-03  1.1979965575867606e-03  3.4482192374775539e-03  1.4350553072642156e-03  2.5437098963696669e-04  1.0003532993321154e-04  2.3689333849089163e-04  6.8018979538320287e-04  1.5351017516164324e-03  3.6294100707440517e-04  6.5509065024945518e-04  1.4234120350972517e-04  1.7058643319474042e-05  3.4168544027789176e-05  7.1744915650208605e-05  3.6451834761475628e-05  2.0563569804760256e-05  1.5129884413602705e-05  1.0096542153589280e-05  1.9662989742866019e-05  1.4138116127404842e-07  4.2813311457406217e-05  4.2186162839966391e-05  1.4538243013470431e-05  2.8999557676062243e-07  2.2367453831900086e-06  3.6105033817894587e-06  1.7705260390054373e-06  9.4605494158968968e-07  1.0766081731098556e-06  5.8259493103824647e-07  5.9275434292716463e-06  2.1361122320420811e-06  5.6706553061058512e-06  1.4196973015401590e-06  7.2486808979885673e-06  1.6262301976670643e-05  1.5733510264692197e-05  1.5107392690930779e-05  1.0265210234329527e-05  5.5843425910249443e-06  8.9595521749311434e-06  4.4112065237168781e-06  2.4753454394260656e-06  1.1451378723774293e-05  7.8273844509259924e-06  9.8775065459371422e-06  1.2747123057911937e-05  1.1634924157437645e-05  6.8897353503925710e-06  4.4237811417458836e-06  3.5287715562838773e-06  2.2848795764627696e-06  7.7537360928038019e-07  5.8015872107636166e-07  2.3509887016445750e-38  -1.0025944870427010e-20  3.6964279645409234e-04  6.2071582592082596e-04  5.1134851923670204e-04  6.0971536100081045e-04  2.2933153318625065e-04  5.7297617149463121e-04  1.0553787307311096e-03  1.4636720114429859e-03  1.3188069301370774e-03  5.7037574753467904e-04  5.1434501336471334e-04  2.2710044172206389e-04  3.2206455717104725e-04  1.3756252929827948e-03  1.8315885975924292e-03  3.1843919515112796e-04  6.2471432825582189e-04  1.3611639275956139e-03  1.9155100663422665e-04  1.6277255399655770e-03  1.1457162243511353e-04  2.1001884156630248e-04  1.6142587556647124e-03  1.3400469341621904e-03  2.2034267166108428e-03  7.0965238385769483e-04  6.0408595757382999e-04  1.4574876377229265e-03  2.4156679342450813e-03  4.1900730994532606e-03  1.8938186040539280e-03  1.8877621905337126e-03  4.1707244238072243e-03  1.0399291516768967e-03  3.8763605322142780e-03  1.0463877841956732e-03  1.7801388334742552e-03  3.1795474928929461e-03  3.1829446950914441e-03  3.4668641422210909e-03  3.5717954260648110e-03  3.4904557429543425e-03  3.1711137329669824e-03  2.0122850343737252e-03  8.8842957686804838e-04  2.7692116720137313e-03  1.7378162819276723e-03  3.0505852473483187e-03  3.4724194100570920e-03  2.3915109095708326e-03  1.1381602785690346e-03  1.6287669736111157e-04  6.1999646812969131e-04  1.0833822009404656e-03  1.0240113227606164e-03  3.7851250675477769e-04  5.5742652688054261e-05  4.2916381020764236e-05  5.9782618703660541e-05  5.9592034190155360e-05  3.1291132107418770e-05  1.9471786391589719e-05  1.0202749837718995e-05  1.5218861185531280e-05  2.2557414153758018e-05  3.1875943659265823e-05  5.1312812092043086e-05  2.4329144308499771e-05  9.3422348643168288e-06  1.9486950977905938e-06  1.9584132541500673e-06  2.2639170514096245e-06  2.6919268531289056e-06  3.5545387745395493e-06  2.3624990957848023e-07  7.5806769411849410e-07  3.3977227299662815e-06  2.7385074949885645e-06  2.1791269272966017e-06  6.5925485101935152e-07  1.2724060907858168e-05  1.9962405419019922e-05  1.5605459838822619e-05  1.3331164830280728e-05  2.4071323701482948e-06  1.1014613397672565e-05  8.6575025567517274e-06  1.2036757100005103e-06  7.5586878340332713e-06  6.7637192267113351e-06  1.4386014820203474e-05  1.0973507352294129e-06  1.5646875874561856e-05  9.3095970668348161e-06  5.1384804971026518e-06  3.9441020513976676e-06  3.1545172133300567e-06  2.2865743412973444e-06  7.5196185484735309e-07  2.3509887016445750e-38  -1.9870068732483330e-20  1.8061136632996889e-04  4.8547815741354787e-04  8.0988474703943853e-04  8.4921473453952289e-04  6.0495044121099890e-05  6.4320862183549362e-04  3.9724471697565809e-04  3.1680942654811262e-04  1.6694138819733969e-03  6.3266837364373430e-04  1.6131276383198362e-03  8.9823650431950972e-04  1.4993367162473444e-05  1.3866059511550199e-03  1.6190370614966162e-03  6.3174000959243469e-04  1.0875297178006946e-03  1.1248557867224453e-03  1.3599259026429657e-03  1.1522631291461360e-03  4.1808026965381147e-04  1.9832072250033973e-03  9.4688074678152083e-04  2.2289207576537619e-03  1.4021485379906427e-03  3.0994316921538192e-03  2.6231590012477679e-03  3.5227987336143383e-03  2.4201108266641118e-03  1.5100987502721596e-03  2.6851130592476730e-03  4.1191403431483069e-03  2.1066405731212478e-03  4.7240217000345617e-03  3.1224663409277812e-03  2.9872774803862833e-03  1.7790568429649098e-04  3.2256181459443113e-03  3.5629922835789620e-03  3.6833788539347230e-03  3.8541741060995351e-03  3.8871329432100758e-03  3.6551356246855488e-03  2.7215990770146632e-03  1.2274361029381978e-03  2.6326071231473065e-03  1.8580540208351869e-03  4.2491938552366845e-03  1.0351669636855184e-03  5.6291596363373692e-04  5.7130937813885398e-04  2.4775880650794484e-04  5.8300626656494086e-04  1.6952785460765808e-03  1.4923069106727451e-04  1.0090604708852529e-03  1.8187720784606216e-04  4.5398750264753402e-05  3.4407339467763650e-05  6.8228433477845549e-05  4.2827210317368903e-05  2.4834710436849835e-05  2.0916943262155393e-05  1.0888827247354866e-05  2.1614087571943766e-05  5.1059714204651295e-06  5.4566987501040682e-05  4.7545821428251014e-05  1.2360023309237348e-05  1.6218798487606515e-06  1.6876991285363937e-06  3.5361486998679852e-06  1.9862931922765455e-06  2.8320784650344260e-06  1.9156859304519210e-06  1.6385675367889674e-06  4.5609071198143229e-08  4.4290108537098650e-06  2.5302879802597873e-06  8.6279039893542213e-07  4.7461341780237494e-06  1.7823309030739487e-05  1.9550649820165997e-05  1.5041696577430555e-05  9.2277804805016149e-06  7.1223306462360952e-06  1.2598768356452209e-05  5.4864881034432774e-06  5.1277453671228570e-06  1.4932239150475714e-05  9.4253312810734357e-06  7.2084127009326614e-06  8.0928257273562990e-06  1.4825573064645653e-05  7.2608989867539090e-06  4.0921422283993155e-06  3.3379470327005697e-06  1.6555818390729070e-06  1.3293127154655894e-06  4.2670515294503381e-23  -1.0995704279534156e-20  3.5794733655775335e-04  5.9164374048356009e-04  6.6555738765331851e-04  6.1252239894722064e-04  9.4553542259187898e-04  1.1112755445094187e-04  4.6519581471298995e-04  9.6771122864334114e-04  1.4970408786472032e-03  1.6847245656988980e-03  7.2879222068591033e-04  5.4327915950736665e-04  5.0158237620533694e-04  3.7043105309402397e-04  1.6569359107283810e-03  2.0435108668783310e-03  4