<?xml version="1.0"?>
<VTKFile type="UnstructuredGrid"  version="0.1"  >
<UnstructuredGrid>
<Piece  NumberOfPoints="10201" NumberOfCells="20000">
<Points>
<DataArray  type="Float64"  NumberOfComponents="3"  format="ascii">0 0 0  0.01 0 0  0.02 0 0  0.03 0 0  0.04 0 0  0.05 0 0  0.06 0 0  0.07000000000000001 0 0  0.08 0 0  0.09 0 0  0.1 0 0  0.11 0 0  0.12 0 0  0.13 0 0  0.14 0 0  0.15 0 0  0.16 0 0  0.17 0 0  0.18 0 0  0.19 0 0  0.2 0 0  0.21 0 0  0.22 0 0  0.23 0 0  0.24 0 0  0.25 0 0  0.26 0 0  0.27 0 0  0.28 0 0  0.29 0 0  0.3 0 0  0.31 0 0  0.32 0 0  0.33 0 0  0.34 0 0  0.35 0 0  0.36 0 0  0.37 0 0  0.38 0 0  0.39 0 0  0.4 0 0  0.41 0 0  0.42 0 0  0.43 0 0  0.44 0 0  0.45 0 0  0.46 0 0  0.47 0 0  0.48 0 0  0.49 0 0  0.5 0 0  0.51 0 0  0.52 0 0  0.53 0 0  0.54 0 0  0.55 0 0  0.5600000000000001 0 0  0.57 0 0  0.58 0 0  0.59 0 0  0.6 0 0  0.61 0 0  0.62 0 0  0.63 0 0  0.64 0 0  0.65 0 0  0.66 0 0  0.67 0 0  0.68 0 0  0.6899999999999999 0 0  0.7 0 0  0.71 0 0  0.72 0 0  0.73 0 0  0.74 0 0  0.75 0 0  0.76 0 0  0.77 0 0  0.78 0 0  0.79 0 0  0.8 0 0  0.8100000000000001 0 0  0.82 0 0  0.83 0 0  0.84 0 0  0.85 0 0  0.86 0 0  0.87 0 0  0.88 0 0  0.89 0 0  0.9 0 0  0.91 0 0  0.92 0 0  0.93 0 0  0.9399999999999999 0 0  0.95 0 0  0.96 0 0  0.97 0 0  0.98 0 0  0.99 0 0  1 0 0  0 0.01 0  0.01 0.01 0  0.02 0.01 0  0.03 0.01 0  0.04 0.01 0  0.05 0.01 0  0.06 0.01 0  0.07000000000000001 0.01 0  0.08 0.01 0  0.09 0.01 0  0.1 0.01 0  0.11 0.01 0  0.12 0.01 0  0.13 0.01 0  0.14 0.01 0  0.15 0.01 0  0.16 0.01 0  0.17 0.01 0  0.18 0.01 0  0.19 0.01 0  0.2 0.01 0  0.21 0.01 0  0.22 0.01 0  0.23 0.01 0  0.24 0.01 0  0.25 0.01 0  0.26 0.01 0  0.27 0.01 0  0.28 0.01 0  0.29 0.01 0  0.3 0.01 0  0.31 0.01 0  0.32 0.01 0  0.33 0.01 0  0.34 0.01 0  0.35 0.01 0  0.36 0.01 0  0.37 0.01 0  0.38 0.01 0  0.39 0.01 0  0.4 0.01 0  0.41 0.01 0  0.42 0.01 0  0.43 0.01 0  0.44 0.01 0  0.45 0.01 0  0.46 0.01 0  0.47 0.01 0  0.48 0.01 0  0.49 0.01 0  0.5 0.01 0  0.51 0.01 0  0.52 0.01 0  0.53 0.01 0  0.54 0.01 0  0.55 0.01 0  0.5600000000000001 0.01 0  0.57 0.01 0  0.58 0.01 0  0.59 0.01 0  0.6 0.01 0  0.61 0.01 0  0.62 0.01 0  0.63 0.01 0  0.64 0.01 0  0.65 0.01 0  0.66 0.01 0  0.67 0.01 0  0.68 0.01 0  0.6899999999999999 0.01 0  0.7 0.01 0  0.71 0.01 0  0.72 0.01 0  0.73 0.01 0  0.74 0.01 0  0.75 0.01 0  0.76 0.01 0  0.77 0.01 0  0.78 0.01 0  0.79 0.01 0  0.8 0.01 0  0.8100000000000001 0.01 0  0.82 0.01 0  0.83 0.01 0  0.84 0.01 0  0.85 0.01 0  0.86 0.01 0  0.87 0.01 0  0.88 0.01 0  0.89 0.01 0  0.9 0.01 0  0.91 0.01 0  0.92 0.01 0  0.93 0.01 0  0.9399999999999999 0.01 0  0.95 0.01 0  0.96 0.01 0  0.97 0.01 0  0.98 0.01 0  0.99 0.01 0  1 0.01 0  0 0.02 0  0.01 0.02 0  0.02 0.02 0  0.03 0.02 0  0.04 0.02 0  0.05 0.02 0  0.06 0.02 0  0.07000000000000001 0.02 0  0.08 0.02 0  0.09 0.02 0  0.1 0.02 0  0.11 0.02 0  0.12 0.02 0  0.13 0.02 0  0.14 0.02 0  0.15 0.02 0  0.16 0.02 0  0.17 0.02 0  0.18 0.02 0  0.19 0.02 0  0.2 0.02 0  0.21 0.02 0  0.22 0.02 0  0.23 0.02 0  0.24 0.02 0  0.25 0.02 0  0.26 0.02 0  0.27 0.02 0  0.28 0.02 0  0.29 0.02 0  0.3 0.02 0  0.31 0.02 0  0.32 0.02 0  0.33 0.02 0  0.34 0.02 0  0.35 0.02 0  0.36 0.02 0  0.37 0.02 0  0.38 0.02 0  0.39 0.02 0  0.4 0.02 0  0.41 0.02 0  0.42 0.02 0  0.43 0.02 0  0.44 0.02 0  0.45 0.02 0  0.46 0.02 0  0.47 0.02 0  0.48 0.02 0  0.49 0.02 0  0.5 0.02 0  0.51 0.02 0  0.52 0.02 0  0.53 0.02 0  0.54 0.02 0  0.55 0.02 0  0.5600000000000001 0.02 0  0.57 0.02 0  0.58 0.02 0  0.59 0.02 0  0.6 0.02 0  0.61 0.02 0  0.62 0.02 0  0.63 0.02 0  0.64 0.02 0  0.65 0.02 0  0.66 0.02 0  0.67 0.02 0  0.68 0.02 0  0.6899999999999999 0.02 0  0.7 0.02 0  0.71 0.02 0  0.72 0.02 0  0.73 0.02 0  0.74 0.02 0  0.75 0.02 0  0.76 0.02 0  0.77 0.02 0  0.78 0.02 0  0.79 0.02 0  0.8 0.02 0  0.8100000000000001 0.02 0  0.82 0.02 0  0.83 0.02 0  0.84 0.02 0  0.85 0.02 0  0.86 0.02 0  0.87 0.02 0  0.88 0.02 0  0.89 0.02 0  0.9 0.02 0  0.91 0.02 0  0.92 0.02 0  0.93 0.02 0  0.9399999999999999 0.02 0  0.95 0.02 0  0.96 0.02 0  0.97 0.02 0  0.98 0.02 0  0.99 0.02 0  1 0.02 0  0 0.03 0  0.01 0.03 0  0.02 0.03 0  0.03 0.03 0  0.04 0.03 0  0.05 0.03 0  0.06 0.03 0  0.07000000000000001 0.03 0  0.08 0.03 0  0.09 0.03 0  0.1 0.03 0  0.11 0.03 0  0.12 0.03 0  0.13 0.03 0  0.14 0.03 0  0.15 0.03 0  0.16 0.03 0  0.17 0.03 0  0.18 0.03 0  0.19 0.03 0  0.2 0.03 0  0.21 0.03 0  0.22 0.03 0  0.23 0.03 0  0.24 0.03 0  0.25 0.03 0  0.26 0.03 0  0.27 0.03 0  0.28 0.03 0  0.29 0.03 0  0.3 0.03 0  0.31 0.03 0  0.32 0.03 0  0.33 0.03 0  0.34 0.03 0  0.35 0.03 0  0.36 0.03 0  0.37 0.03 0  0.38 0.03 0  0.39 0.03 0  0.4 0.03 0  0.41 0.03 0  0.42 0.03 0  0.43 0.03 0  0.44 0.03 0  0.45 0.03 0  0.46 0.03 0  0.47 0.03 0  0.48 0.03 0  0.49 0.03 0  0.5 0.03 0  0.51 0.03 0  0.52 0.03 0  0.53 0.03 0  0.54 0.03 0  0.55 0.03 0  0.5600000000000001 0.03 0  0.57 0.03 0  0.58 0.03 0  0.59 0.03 0  0.6 0.03 0  0.61 0.03 0  0.62 0.03 0  0.63 0.03 0  0.64 0.03 0  0.65 0.03 0  0.66 0.03 0  0.67 0.03 0  0.68 0.03 0  0.6899999999999999 0.03 0  0.7 0.03 0  0.71 0.03 0  0.72 0.03 0  0.73 0.03 0  0.74 0.03 0  0.75 0.03 0  0.76 0.03 0  0.77 0.03 0  0.78 0.03 0  0.79 0.03 0  0.8 0.03 0  0.8100000000000001 0.03 0  0.82 0.03 0  0.83 0.03 0  0.84 0.03 0  0.85 0.03 0  0.86 0.03 0  0.87 0.03 0  0.88 0.03 0  0.89 0.03 0  0.9 0.03 0  0.91 0.03 0  0.92 0.03 0  0.93 0.03 0  0.9399999999999999 0.03 0  0.95 0.03 0  0.96 0.03 0  0.97 0.03 0  0.98 0.03 0  0.99 0.03 0  1 0.03 0  0 0.04 0  0.01 0.04 0  0.02 0.04 0  0.03 0.04 0  0.04 0.04 0  0.05 0.04 0  0.06 0.04 0  0.07000000000000001 0.04 0  0.08 0.04 0  0.09 0.04 0  0.1 0.04 0  0.11 0.04 0  0.12 0.04 0  0.13 0.04 0  0.14 0.04 0  0.15 0.04 0  0.16 0.04 0  0.17 0.04 0  0.18 0.04 0  0.19 0.04 0  0.2 0.04 0  0.21 0.04 0  0.22 0.04 0  0.23 0.04 0  0.24 0.04 0  0.25 0.04 0  0.26 0.04 0  0.27 0.04 0  0.28 0.04 0  0.29 0.04 0  0.3 0.04 0  0.31 0.04 0  0.32 0.04 0  0.33 0.04 0  0.34 0.04 0  0.35 0.04 0  0.36 0.04 0  0.37 0.04 0  0.38 0.04 0  0.39 0.04 0  0.4 0.04 0  0.41 0.04 0  0.42 0.04 0  0.43 0.04 0  0.44 0.04 0  0.45 0.04 0  0.46 0.04 0  0.47 0.04 0  0.48 0.04 0  0.49 0.04 0  0.5 0.04 0  0.51 0.04 0  0.52 0.04 0  0.53 0.04 0  0.54 0.04 0  0.55 0.04 0  0.5600000000000001 0.04 0  0.57 0.04 0  0.58 0.04 0  0.59 0.04 0  0.6 0.04 0  0.61 0.04 0  0.62 0.04 0  0.63 0.04 0  0.64 0.04 0  0.65 0.04 0  0.66 0.04 0  0.67 0.04 0  0.68 0.04 0  0.6899999999999999 0.04 0  0.7 0.04 0  0.71 0.04 0  0.72 0.04 0  0.73 0.04 0  0.74 0.04 0  0.75 0.04 0  0.76 0.04 0  0.77 0.04 0  0.78 0.04 0  0.79 0.04 0  0.8 0.04 0  0.8100000000000001 0.04 0  0.82 0.04 0  0.83 0.04 0  0.84 0.04 0  0.85 0.04 0  0.86 0.04 0  0.87 0.04 0  0.88 0.04 0  0.89 0.04 0  0.9 0.04 0  0.91 0.04 0  0.92 0.04 0  0.93 0.04 0  0.9399999999999999 0.04 0  0.95 0.04 0  0.96 0.04 0  0.97 0.04 0  0.98 0.04 0  0.99 0.04 0  1 0.04 0  0 0.05 0  0.01 0.05 0  0.02 0.05 0  0.03 0.05 0  0.04 0.05 0  0.05 0.05 0  0.06 0.05 0  0.07000000000000001 0.05 0  0.08 0.05 0  0.09 0.05 0  0.1 0.05 0  0.11 0.05 0  0.12 0.05 0  0.13 0.05 0  0.14 0.05 0  0.15 0.05 0  0.16 0.05 0  0.17 0.05 0  0.18 0.05 0  0.19 0.05 0  0.2 0.05 0  0.21 0.05 0  0.22 0.05 0  0.23 0.05 0  0.24 0.05 0  0.25 0.05 0  0.26 0.05 0  0.27 0.05 0  0.28 0.05 0  0.29 0.05 0  0.3 0.05 0  0.31 0.05 0  0.32 0.05 0  0.33 0.05 0  0.34 0.05 0  0.35 0.05 0  0.36 0.05 0  0.37 0.05 0  0.38 0.05 0  0.39 0.05 0  0.4 0.05 0  0.41 0.05 0  0.42 0.05 0  0.43 0.05 0  0.44 0.05 0  0.45 0.05 0  0.46 0.05 0  0.47 0.05 0  0.48 0.05 0  0.49 0.05 0  0.5 0.05 0  0.51 0.05 0  0.52 0.05 0  0.53 0.05 0  0.54 0.05 0  0.55 0.05 0  0.5600000000000001 0.05 0  0.57 0.05 0  0.58 0.05 0  0.59 0.05 0  0.6 0.05 0  0.61 0.05 0  0.62 0.05 0  0.63 0.05 0  0.64 0.05 0  0.65 0.05 0  0.66 0.05 0  0.67 0.05 0  0.68 0.05 0  0.6899999999999999 0.05 0  0.7 0.05 0  0.71 0.05 0  0.72 0.05 0  0.73 0.05 0  0.74 0.05 0  0.75 0.05 0  0.76 0.05 0  0.77 0.05 0  0.78 0.05 0  0.79 0.05 0  0.8 0.05 0  0.8100000000000001 0.05 0  0.82 0.05 0  0.83 0.05 0  0.84 0.05 0  0.85 0.05 0  0.86 0.05 0  0.87 0.05 0  0.88 0.05 0  0.89 0.05 0  0.9 0.05 0  0.91 0.05 0  0.92 0.05 0  0.93 0.05 0  0.9399999999999999 0.05 0  0.95 0.05 0  0.96 0.05 0  0.97 0.05 0  0.98 0.05 0  0.99 0.05 0  1 0.05 0  0 0.06 0  0.01 0.06 0  0.02 0.06 0  0.03 0.06 0  0.04 0.06 0  0.05 0.06 0  0.06 0.06 0  0.07000000000000001 0.06 0  0.08 0.06 0  0.09 0.06 0  0.1 0.06 0  0.11 0.06 0  0.12 0.06 0  0.13 0.06 0  0.14 0.06 0  0.15 0.06 0  0.16 0.06 0  0.17 0.06 0  0.18 0.06 0  0.19 0.06 0  0.2 0.06 0  0.21 0.06 0  0.22 0.06 0  0.23 0.06 0  0.24 0.06 0  0.25 0.06 0  0.26 0.06 0  0.27 0.06 0  0.28 0.06 0  0.29 0.06 0  0.3 0.06 0  0.31 0.06 0  0.32 0.06 0  0.33 0.06 0  0.34 0.06 0  0.35 0.06 0  0.36 0.06 0  0.37 0.06 0  0.38 0.06 0  0.39 0.06 0  0.4 0.06 0  0.41 0.06 0  0.42 0.06 0  0.43 0.06 0  0.44 0.06 0  0.45 0.06 0  0.46 0.06 0  0.47 0.06 0  0.48 0.06 0  0.49 0.06 0  0.5 0.06 0  0.51 0.06 0  0.52 0.06 0  0.53 0.06 0  0.54 0.06 0  0.55 0.06 0  0.5600000000000001 0.06 0  0.57 0.06 0  0.58 0.06 0  0.59 0.06 0  0.6 0.06 0  0.61 0.06 0  0.62 0.06 0  0.63 0.06 0  0.64 0.06 0  0.65 0.06 0  0.66 0.06 0  0.67 0.06 0  0.68 0.06 0  0.6899999999999999 0.06 0  0.7 0.06 0  0.71 0.06 0  0.72 0.06 0  0.73 0.06 0  0.74 0.06 0  0.75 0.06 0  0.76 0.06 0  0.77 0.06 0  0.78 0.06 0  0.79 0.06 0  0.8 0.06 0  0.8100000000000001 0.06 0  0.82 0.06 0  0.83 0.06 0  0.84 0.06 0  0.85 0.06 0  0.86 0.06 0  0.87 0.06 0  0.88 0.06 0  0.89 0.06 0  0.9 0.06 0  0.91 0.06 0  0.92 0.06 0  0.93 0.06 0  0.9399999999999999 0.06 0  0.95 0.06 0  0.96 0.06 0  0.97 0.06 0  0.98 0.06 0  0.99 0.06 0  1 0.06 0  0 0.07000000000000001 0  0.01 0.07000000000000001 0  0.02 0.07000000000000001 0  0.03 0.07000000000000001 0  0.04 0.07000000000000001 0  0.05 0.07000000000000001 0  0.06 0.07000000000000001 0  0.07000000000000001 0.07000000000000001 0  0.08 0.07000000000000001 0  0.09 0.07000000000000001 0  0.1 0.07000000000000001 0  0.11 0.07000000000000001 0  0.12 0.07000000000000001 0  0.13 0.07000000000000001 0  0.14 0.07000000000000001 0  0.15 0.07000000000000001 0  0.16 0.07000000000000001 0  0.17 0.0700
[...]
<PointData  Scalars="u"> 
<DataArray  type="Float64"  Name="u"  format="ascii">0.0000000000000000e+00  0.0000000000000000e+00  0.0000000000000000e+00  0.0000000000000000e+00  0.0000000000000000e+00  0.0000000000000000e+00  0.0000000000000000e+00  0.0000000000000000e+00  0.0000000000000000e+00  0.0000000000000000e+00  0.0000000000000000e+00  0.0000000000000000e+00  0.0000000000000000e+00  0.0000000000000000e+00  0.0000000000000000e+00  0.0000000000000000e+00  0.0000000000000000e+00  0.0000000000000000e+00  0.0000000000000000e+00  0.0000000000000000e+00  0.0000000000000000e+00  0.0000000000000000e+00  0.0000000000000000e+00  0.0000000000000000e+00  0.0000000000000000e+00  0.0000000000000000e+00  0.0000000000000000e+00  0.0000000000000000e+00  0.0000000000000000e+00  0.0000000000000000e+00  0.0000000000000000e+00  0.0000000000000000e+00  0.0000000000000000e+00  0.0000000000000000e+00  0.0000000000000000e+00  0.0000000000000000e+00  0.0000000000000000e+00  0.0000000000000000e+00  0.0000000000000000e+00  0.0000000000000000e+00  0.0000000000000000e+00  0.0000000000000000e+00  0.0000000000000000e+00  0.0000000000000000e+00  0.0000000000000000e+00  0.0000000000000000e+00  0.0000000000000000e+00  0.0000000000000000e+00  0.0000000000000000e+00  0.0000000000000000e+00  0.0000000000000000e+00  0.0000000000000000e+00  0.0000000000000000e+00  0.0000000000000000e+00  0.0000000000000000e+00  0.0000000000000000e+00  0.0000000000000000e+00  0.0000000000000000e+00  0.0000000000000000e+00  0.0000000000000000e+00  0.0000000000000000e+00  0.0000000000000000e+00  0.0000000000000000e+00  0.0000000000000000e+00  0.0000000000000000e+00  0.0000000000000000e+00  0.0000000000000000e+00  0.0000000000000000e+00  0.0000000000000000e+00  0.0000000000000000e+00  0.0000000000000000e+00  0.0000000000000000e+00  0.0000000000000000e+00  0.0000000000000000e+00  0.0000000000000000e+00  0.0000000000000000e+00  0.0000000000000000e+00  0.0000000000000000e+00  0.0000000000000000e+00  0.0000000000000000e+00  0.0000000000000000e+00  0.0000000000000000e+00  0.0000000000000000e+00  0.0000000000000000e+00  0.0000000000000000e+00  0.0000000000000000e+00  0.0000000000000000e+00  0.0000000000000000e+00  0.0000000000000000e+00  0.0000000000000000e+00  0.0000000000000000e+00  0.0000000000000000e+00  0.0000000000000000e+00  0.0000000000000000e+00  0.0000000000000000e+00  0.0000000000000000e+00  0.0000000000000000e+00  0.0000000000000000e+00  0.0000000000000000e+00  0.0000000000000000e+00  0.0000000000000000e+00  0.0000000000000000e+00  -7.7080574563872736e-04  -4.9973432941460881e-04  -1.0295240323519427e-04  -5.2084203145407511e-04  1.8063318709685383e-04  1.6737860457761170e-04  -1.5873867074886152e-04  1.9480861680068438e-04  -2.3789310592436068e-04  -4.5950841256687920e-05  2.6515205499541181e-04  3.1627265020766065e-04  -1.5746787849359466e-04  6.4608951274855134e-06  1.3248391405409877e-04  -1.4264139317085584e-04  5.5524425227082986e-04  -3.7186010180860691e-04  3.5272352079705727e-04  4.6068790591851425e-05  4.4935728917633693e-05  1.8806611230324968e-04  3.0281333721594709e-04  -2.3166635458462875e-04  7.5136755615102136e-04  -7.5010220477373128e-04  9.4699239110401920e-04  4.2167498045544901e-05  -4.5846980236505133e-04  9.7935584264977754e-04  5.8816119182798299e-04  -8.0242149264991521e-04  2.9737700824315352e-05  5.8203279148307766e-04  6.8767413134757116e-04  3.8640590729172790e-04  2.7712375149119983e-04  1.9356833262936963e-04  1.4409424752284978e-04  9.7153776105429783e-05  -5.7816064743271010e-05  -1.3658849208599458e-04  -6.3989766060928727e-04  4.5194068402999798e-05  8.1845432301564823e-04  -8.0035470526138778e-04  5.7532079268131700e-04  -3.2601180055321651e-04  5.4349249501995708e-05  8.8176865194397711e-05  2.9102100984344369e-04  -2.5056789390928388e-04  -2.8705739353238894e-05  4.3220155549033828e-05  6.0100548480890911e-05  4.6416196618484661e-05  3.7577515896658383e-05  3.6683084998035114e-05  3.3592595519999483e-05  3.0996546662686858e-05  3.1748684242321075e-05  2.8664092763089557e-05  2.8372045630155086e-05  2.4559264602147142e-05  2.0008607626777509e-05  3.2693425230566640e-05  5.6073864398874937e-05  2.4699741556840102e-05  9.5735714670914686e-06  1.8276858386710008e-05  2.0273593527476540e-05  2.0979128223721907e-05  1.7301242982712082e-05  2.1760333378988408e-05  2.3785317739649326e-05  1.2853475489750354e-05  1.3250376274748213e-05  1.4641716554299819e-05  1.6161966074108179e-05  1.3445105513804378e-05  1.1754517959869937e-05  1.3948274240291774e-05  1.0726721497943139e-05  1.3949689123159471e-05  8.3543202064883370e-06  8.5050015778126188e-06  6.6601372345162752e-06  1.3067826743677152e-05  4.5905750514662264e-06  3.7758020004978368e-06  7.6878926161604526e-06  8.0355640115675491e-06  3.4319790121101202e-06  4.7355026666227191e-06  6.4855979915814087e-06  4.2971090632323270e-06  4.0488711308778781e-06  2.8722977059240351e-06  -2.5163239380633947e-06  0.0000000000000000e+00  0.0000000000000000e+00  4.9645696884509198e-04  -5.1652404970515663e-04  -4.4634748032400002e-04  -3.3727347801664501e-04  -5.1066160570393344e-04  2.7275377690925848e-04  9.6559908536777937e-05  1.4911541182583305e-04  -4.9746651698605662e-04  -9.2068004871148678e-05  3.4541396556067057e-04  2.9026130564768700e-04  3.1134234124322946e-04  3.0143483380291571e-04  -1.0810304009622631e-03  1.0483576570846575e-03  -1.3389045493523326e-04  1.2440640304784361e-04  7.0710256107216077e-04  -8.4324304454748357e-04  1.3707468323434732e-03  -1.3331935954151801e-03  1.6019411975065538e-03  -1.2861888506865635e-03  1.2644993809110571e-03  -3.0284868212760092e-04  -2.5858018802262520e-04  1.5366158750654956e-03  -1.4771796474071376e-03  2.4783472536090551e-04  1.5695708400685863e-03  -3.9181520966550160e-04  -8.7796173819477573e-04  1.2179499550652946e-04  1.5072380331454947e-03  8.8961302450542941e-04  6.0623421561657948e-04  4.7796226971316572e-04  3.7997512779336482e-04  2.9742224647417233e-04  2.4700559362984240e-04  1.0130993185170024e-04  -1.0949110609714476e-03  -8.8919755300843179e-04  1.3701386753534185e-03  7.1538092164058281e-04  -1.3248252116215180e-03  1.1349248360501298e-03  -3.7150741395728379e-04  -2.3098368034105813e-04  7.3860830911145949e-04  2.8396410373449300e-05  -3.1753885587427870e-04  6.6068975517626766e-05  1.1664361117883893e-04  1.1095990425931979e-04  8.1960361410353489e-05  7.3112594701835697e-05  7.1230337531896917e-05  6.7425885874504204e-05  6.3627506540371489e-05  6.2821316630495234e-05  6.1249021535105007e-05  5.0587578115002669e-05  5.5844784376050523e-05  3.7666419398745782e-05  9.8836207068643875e-05  8.6661811306286478e-05  2.7113290280720748e-05  3.0893248643596317e-05  4.2262992101363264e-05  4.2872831970985057e-05  4.0677507822577572e-05  3.5077320261737286e-05  4.9572721875131800e-05  3.8113911361651902e-05  2.6011748726273525e-05  3.0169623034513153e-05  2.6913561323525236e-05  2.8297634382934930e-05  3.0789583597359240e-05  2.1503117963033161e-05  2.4948642825037611e-05  2.2893615559007940e-05  2.1755513416628436e-05  1.9488981318589892e-05  1.3931534660033558e-05  1.4422857369746539e-05  1.6309312660817188e-05  1.0425886640354218e-05  7.1101603457775895e-06  1.8320675031339054e-05  -5.1495815531275828e-06  1.9519181757211360e-05  1.8385104844900072e-07  9.0419811854769666e-06  7.2630213220943347e-06  8.1291231068126802e-06  8.6906689080785546e-06  0.0000000000000000e+00  0.0000000000000000e+00  8.2084586462019310e-05  1.6628761843532074e-04  -3.1999747265205436e-04  1.7108080445065669e-04  -1.0665543871023770e-03  4.6928064546247587e-04  4.5901288989469479e-04  -4.2293871556563451e-04  6.5500869630980723e-04  -1.0160681862950462e-03  -2.0408527193158598e-04  8.2123123960229120e-04  7.2076630997502315e-04  -4.5082017235515499e-04  3.6325722631624371e-04  -5.0192750072090820e-04  8.3804693088862140e-05  1.2935799493715610e-03  -1.2127351792963772e-03  1.4164027337707488e-03  -7.2862904157106544e-04  8.0964108816244159e-04  -4.7082741547769727e-04  1.4046193414259177e-03  -1.5698527176552768e-03  2.3677478760052318e-03  -2.2692293106964809e-03  2.1032432908411501e-03  4.8667320109872927e-04  -2.1122192184355069e-03  2.2310888359534002e-03  1.7366950384133093e-03  -2.4872918599052208e-03  -4.0660463262233350e-04  1.0191565083900326e-03  1.9063087215018923e-03  1.0490611885222330e-03  8.2947907995188446e-04  6.7786644406054382e-04  5.9555145042163601e-04  4.8550756444832698e-04  1.2168583356956336e-04  -1.9223665043054869e-05  -1.8882464646364141e-03  -2.9832005801469909e-04  2.6102512922118689e-03  -1.5631865455259970e-03  8.7691371622484549e-04  -3.9692108952268056e-04  2.0945437314971759e-04  1.9826428361248290e-05  1.0347868396856008e-03  -6.0283603791309480e-04  -1.1077274886958733e-04  1.6487177506429592e-04  2.0278936067492280e-04  1.5560590183324660e-04  1.2046134904801617e-04  1.1480328881655336e-04  1.0602505766182840e-04  9.9888730132594578e-05  1.0078325695180686e-04  9.2634274358772051e-05  9.2945347432834305e-05  7.7885556452284618e-05  7.4096438540092725e-05  9.1141581616576204e-05  1.6700358595639952e-04  8.3695858795088026e-05  3.2104702191438055e-05  5.9330048984257659e-05  6.6573771092191767e-05  6.7073689005723406e-05  5.7222507859734453e-05  6.3584144628882458e-05  7.2066875204954297e-05  4.4437864798276421e-05  4.2589998055707844e-05  4.6595470006585447e-05  4.4989605658499270e-05  3.8323616759466482e-05  3.9676814162423702e-05  3.8680088833855056e-05  3.1850954377066161e-05  3.8613773109317942e-05  2.3297170595075857e-05  2.7320943607883510e-05  1.9117544147928956e-05  3.2193350916700058e-05  1.0344395810405276e-05  9.2252900482034327e-06  1.6782111855360894e-05  2.2067464593086445e-05  -6.1305530086248249e-06  1.3764955994676460e-05  6.7003405967095260e-06  3.8749172397602404e-06  4.9328149012127198e-06  5.7838964510359910e-06  0.0000000000000000e+00  0.0000000000000000e+00  3.0515796942484212e-04  4.0005657639051874e-04  -3.7556450371568158e-04  -2.4648755517136660e-04  1.1603522320740470e-04  -9.6690924807295373e-04  9.2443381380569634e-04  5.2536933365596953e-04  8.0644644640040322e-06  -4.3582448445893425e-04  -4.2848357607516225e-04  3.0790391122911289e-04  6.9305401376225644e-04  8.4026429823436523e-04  6.7437523279538893e-05  -1.5591369599811692e-03  1.5674352899845245e-03  -5.8360962287471504e-04  8.5239375981226032e-04  3.7589632752657755e-04  -7.9878635850037056e-04  1.8999903586551319e-03  -2.0039489540424971e-03  2.4071934113518408e-03  -1.6078881324459674e-03  1.3456227963122929e-03  3.3003634898966049e-04  -1.4767943976146656e-03  3.2704802265509161e-03  -2.2627255942298322e-03  -4.6132081636635069e-04  3.2927170043209933e-03  -4.4325337182987138e-05  -2.5478020021166186e-03  -8.1532700739577791e-05  2.5864745988109315e-03  1.9028745996693790e-03  1.2817944052980488e-03  1.0688471610933255e-03  9.0082929029466929e-04  7.8037205530857010e-04  6.7648613073262038e-04  2.1068397160372348e-04  -1.6568574169312394e-03  -2.0335946226899227e-03  2.0608546920714886e-03  2.1205108704138833e-03  -2.9290255312361575e-03  2.4343090390435518e-03  -9.7433917532577371e-04  -1.9710034398252976e-04  1.1991861305866783e-03  4.1284234852510940e-04  -7.4652151804608735e-04  9.6506075268647950e-05  2.5564841231613677e-04  2.5972499229224449e-04  1.9310444563551811e-04  1.6415821172022354e-04  1.5782200566486811e-04  1.4598490100365221e-04  1.3616392202912066e-04  1.3632296898722989e-04  1.2946618484032508e-04  1.1385466041078065e-04  1.1596485548510572e-04  8.6084093720335147e-05  1.8787323011900861e-04  1.9125553983263084e-04  6.7290620641913257e-05  5.8865383756227777e-05  8.7102831523892961e-05  9.0217153518825236e-05  8.6298911440791228e-05  7.6292744461871917e-05  9.9014025448136394e-05  8.1379026778685370e-05  5.4210865746181000e-05  6.0935897791093515e-05  5.8337349312871496e-05  6.0292350879065167e-05  5.7696100932792748e-05  4.4443213018907602e-05  5.1347105757371585e-05  4.3371343872005593e-05  4.6583211970623980e-05  3.2556604690787397e-05  2.7791551305212123e-05  2.6494750850840549e-05  3.8071842404169433e-05  1.5533836171111249e-05  9.2400778909395593e-06  2.8456171434371026e-05  -1.5018877136763302e-06  2.3074077644047187e-05  -3.7792639435341743e-06  9.9733711622299460e-06  2.0765874503419995e-06  1.2986598135868723e-06  0.0000000000000000e+00  0.0000000000000000e+00  2.1057342668663359e-04  3.9172819224532072e-04  6.9242523072063843e-04  -5.3921199250996847e-04  1.7512000396094319e-04  -1.0887923387212241e-03  4.6753853679411608e-04  9.9286195881517205e-04  -1.9377701869429279e-04  9.8971111044768604e-04  -1.5083127683356160e-03  -2.7044412266710174e-04  1.2242970747124537e-03  1.0381695008433462e-03  -2.9881642837204501e-04  5.7731240269050862e-04  -1.3908178808613046e-03  8.3206911460308522e-04  1.3172705963467981e-03  -1.3315911857341011e-03  2.0254885497327114e-03  -1.4433822910464200e-03  1.8070088255610788e-03  -1.3906058062972894e-03  2.6268814977299980e-03  -2.7024705270798045e-03  3.5973415485999866e-03  -2.9564191886110114e-03  2.2649637296249837e-03  1.5583116133225895e-03  -3.6177255396121254e-03  2.8159582187432682e-03  3.3380862529057758e-03  -3.3922022312919070e-03  -1.3963826186571822e-03  1.2133176710735741e-03  3.3102093418698238e-03  1.9794811283637293e-03  1.5664342141135576e-03  1.3245792907853483e-03  1.1721865241476508e-03  9.8198034868699066e-04  4.7027308774970085e-04  9.3231048321305171e-05  -3.0028406857110224e-03  -1.0323908875383672e-03  4.1251770931895783e-03  -1.3220182639007549e-03  1.0339721801107721e-04  3.7215124121086046e-04  -2.6194172250558012e-05  -1.1367921294713805e-04  1.7588707766015101e-03  -6.2401560595731884e-04  -3.6894079073006368e-04  2.5169695432917724e-04  3.4358210078845608e-04  2.8901023686703908e-04  2.2559435747710615e-04  2.1047192057671430e-04  1.9656524138600610e-04  1.8439446308209589e-04  1.7964987532764263e-04  1.6845174672507589e-04  1.6642952466800539e-04  1.4027833171234043e-04  1.3870888830463756e-04  1.4646410951890448e-04  2.7548841185946976e-04  1.6607837360280565e-04  6.4815148315540508e-05  9.8355060659861197e-05  1.1435242045269376e-04  1.1506708096628721e-04  9.9946698554602463e-05  1.0718904862541676e-04  1.2215002972538162e-04  8.2893561593007145e-05  7.2043848012154937e-05  7.7479314007000450e-05  7.2830897235485147e-05  6.8499655523613157e-05  6.9974102621304891e-05  6.0629409135739521e-05  5.6897573706534855e-05  5.9917896481382634e-05  4.4422525879163542e-05  4.4015170139130464e-05  2.9173444307850931e-05  4.3502394818342792e-05  2.4805101278847204e-05  1.5736157187993355e-05  2.3956496182624236e-05  3.3421886138820122e-05  -1.4142680095350232e-05  2.5679621614479552e-05  1.7355790604038007e-06  3.8230465668896669e-06  1.6844366036543078e-06  0.0000000000000000e+00  0.0000000000000000e+00  2.9472525116011356e-04  4.7366434116614107e-04  3.4051430188974832e-04  2.8241818424260218e-04  -1.5769591230186376e-04  2.2735322678714374e-04  -1.3969065794605287e-03  1.3287798045014941e-03  9.4893883662845561e-04  -3.5701222166379934e-05  -1.1348047510376058e-04  -9.2278448258045287e-04  2.6026873988533195e-04  1.2748531250000024e-03  1.3102570434857042e-03  -1.3609449205862812e-04  -1.4976791101742443e-03  1.2185988881652943e-03  -3.6219654302686291e-04  1.4177525253759775e-03  -1.0865182441898688e-04  -1.8839916820937938e-04  1.5727457636378313e-03  -1.7538761929226294e-03  2.3109325025272368e-03  -1.0766013865911718e-03  7.5703875925133164e-04  1.3718297457330987e-03  -2.5124222613839217e-03  4.5344767910212008e-03  -2.2964391134542720e-03  -1.6617518952666205e-03  4.7038345621843967e-03  7.3218442213917483e-04  -4.0638715944544442e-03  -5.0418059375892355e-04  3.3134465265206919e-03  3.2829533344558336e-03  2.2090030774226397e-03  1.8630613281693370e-03  1.6055227755909611e-03  1.4197583816457813e-03  1.1942690088689043e-03  3.8702896713982589e-04  -1.9438803467121853e-03  -3.3279538653524302e-03  2.3084675710578757e-03  3.7117836773194685e-03  -3.6724192504098358e-03  2.7642620453230829e-03  -9.9210381103192135e-04  -1.2750095908033372e-04  1.3247773564201207e-03  1.0011277219706982e-03  -1.0204069255689823e-03  4.0566946086282637e-05  3.9340038611507928e-04  4.1356437780087717e-04  3.1669480664800280e-04  2.6431134879470355e-04  2.5493025309267827e-04  2.3657749482266174e-04  2.2213867710430495e-04  2.2065788968513462e-04  2.0691528972157573e-04  1.8897411905237634e-04  1.8024479718128700e-04  1.4990182567287716e-04  2.6542983563037400e-04  3.0265974840051663e-04  1.2555563190520938e-04  9.0829574157656132e-05  1.3331961776248317e-04  1.4039546452187173e-04  1.3457440406243774e-04  1.1998603537371085e-04  1.4602907561559646e-04  1.2500518230116762e-04  8.7659850844040889e-05  9.2571923876776167e-05  9.0557642082967612e-05  8.7133153595941800e-05  8.2251457135564898e-05  7.2264887366865885e-05  7.3721393621151252e-05  6.5645711353344148e-05  6.9640298029746949e-05  4.6768374008905304e-05  4.6297553350614713e-05  3.7721607121311931e-05  5.3271288416053171e-05  2.0375763169449423e-05  1.0724389696455192e-05  3.6652669657051688e-05  1.1097602398791469e-05  1.6024769407609715e-05  3.4449499559058724e-06  9.2927575070222019e-06  8.1025802816838898e-07  0.0000000000000000e+00  0.0000000000000000e+00  1.1316536799215756e-04  3.5823155917832683e-04  6.7275522722304304e-04  6.7147804924943123e-04  -4.3233234142866264e-04  3.1918822217166760e-04  -8.4310597658930294e-04  1.4611750959445534e-04  1.5152297918778796e-03  1.4638025936790591e-04  9.9771374002025418e-04  -1.5294295261082352e-03  -5.4862147341791111e-04  1.3801392057703726e-03  1.5121704317028878e-03  9.5693658814130332e-05  4.3305675599616706e-04  -1.6924447308503926e-03  1.1496346646000986e-03  1.1829040306247382e-03  -7.9948110660258277e-04  1.8538479495148496e-03  -1.2165149772372440e-03  2.1043459314480928e-03  -1.6062175399040872e-03  3.0996087852356254e-03  -2.8789292245767666e-03  3.8275734775932314e-03  -2.7156925104271723e-03  1.8474152641919633e-03  2.7699766531731540e-03  -4.4110392003479893e-03  2.8190506998933156e-03  5.0659719686457806e-03  -3.6730180401162212e-03  -2.8172530799045687e-03  1.3261077460332113e-03  4.5279488465695353e-03  3.2506454939200532e-03  2.5362594582425285e-03  2.1757806298786809e-03  1.9320978695147634e-03  1.6524670486136425e-03  9.5017266336829334e-04  1.5093557466851247e-04  -3.7488898727650773e-03  -2.0256444046071647e-03  5.1040976747149750e-03  -5.8606398620370144e-04  -7.3537960238951195e-04  1.2023989199673930e-03  -3.9621381236954785e-04  1.9123805840842920e-05  2.2130412986675935e-03  -3.1658053899611836e-04  -7.1208616830102699e-04  3.1196173622700019e-04  5.0514019182320213e-04  4.5306113334663071e-04  3.5123645935088979e-04  3.1539675854068910e-04  2.9689636238384857e-04  2.7738201430873156e-04  2.6630050462990489e-04  2.5503386224426567e-04  2.4677059485905166e-04  2.1348192874546130e-04  2.0658196451936607e-04  2.0940526018913908e-04  3.7436025785901844e-04  2.6527879283593929e-04  1.0869374892053449e-04  1.3506318019663438e-04  1.6304518365397943e-04  1.6502962759693663e-04  1.4552482925702975e-04  1.5371172664747332e-04  1.7118771916050870e-04  1.2139571155043492e-04  1.0218586200172439e-04  1.0832158813006292e-04  1.0370655052510176e-04  9.7803973754124546e-05  9.3472499583677665e-05  8.3067746295008548e-05  7.8910542081063023e-05  7.6736958856793897e-05  6.6971746195252730e-05  5.3384068727267247e-05  4.2766832141372455e-05  5.4406220734428369e-05  4.4538197908500948e-05  1.9326427827795940e-05  2.5714359809950994e-05  3.6598625442655272e-05  -1.2080143032536867e-05  2.6988651183913127e-05  1.2257289249527838e-06  5.9291069333035869e-06  0.0000000000000000e+00  0.0000000000000000e+00  2.5771460622787452e-04  4.7823996978001729e-04  5.2137817431200252e-04  4.8877968842888980e-04  7.1817248951736154e-04  -2.5715167600345271e-04  1.4139886751020277e-04  -1.3439683494233790e-03  1.3978330289992711e-03  1.4494611460895766e-03  1.9407969556995639e-04  -6.1806996620364331e-05  -1.2137857812726479e-03  1.8818155816979692e-04  1.6908