<?xml version="1.0"?>
<VTKFile type="UnstructuredGrid"  version="0.1"  >
<UnstructuredGrid>
<Piece  NumberOfPoints="10201" NumberOfCells="20000">
<Points>
<DataArray  type="Float64"  NumberOfComponents="3"  format="ascii">0 0 0  0.01 0 0  0.02 0 0  0.03 0 0  0.04 0 0  0.05 0 0  0.06 0 0  0.07000000000000001 0 0  0.08 0 0  0.09 0 0  0.1 0 0  0.11 0 0  0.12 0 0  0.13 0 0  0.14 0 0  0.15 0 0  0.16 0 0  0.17 0 0  0.18 0 0  0.19 0 0  0.2 0 0  0.21 0 0  0.22 0 0  0.23 0 0  0.24 0 0  0.25 0 0  0.26 0 0  0.27 0 0  0.28 0 0  0.29 0 0  0.3 0 0  0.31 0 0  0.32 0 0  0.33 0 0  0.34 0 0  0.35 0 0  0.36 0 0  0.37 0 0  0.38 0 0  0.39 0 0  0.4 0 0  0.41 0 0  0.42 0 0  0.43 0 0  0.44 0 0  0.45 0 0  0.46 0 0  0.47 0 0  0.48 0 0  0.49 0 0  0.5 0 0  0.51 0 0  0.52 0 0  0.53 0 0  0.54 0 0  0.55 0 0  0.5600000000000001 0 0  0.57 0 0  0.58 0 0  0.59 0 0  0.6 0 0  0.61 0 0  0.62 0 0  0.63 0 0  0.64 0 0  0.65 0 0  0.66 0 0  0.67 0 0  0.68 0 0  0.6899999999999999 0 0  0.7 0 0  0.71 0 0  0.72 0 0  0.73 0 0  0.74 0 0  0.75 0 0  0.76 0 0  0.77 0 0  0.78 0 0  0.79 0 0  0.8 0 0  0.8100000000000001 0 0  0.82 0 0  0.83 0 0  0.84 0 0  0.85 0 0  0.86 0 0  0.87 0 0  0.88 0 0  0.89 0 0  0.9 0 0  0.91 0 0  0.92 0 0  0.93 0 0  0.9399999999999999 0 0  0.95 0 0  0.96 0 0  0.97 0 0  0.98 0 0  0.99 0 0  1 0 0  0 0.01 0  0.01 0.01 0  0.02 0.01 0  0.03 0.01 0  0.04 0.01 0  0.05 0.01 0  0.06 0.01 0  0.07000000000000001 0.01 0  0.08 0.01 0  0.09 0.01 0  0.1 0.01 0  0.11 0.01 0  0.12 0.01 0  0.13 0.01 0  0.14 0.01 0  0.15 0.01 0  0.16 0.01 0  0.17 0.01 0  0.18 0.01 0  0.19 0.01 0  0.2 0.01 0  0.21 0.01 0  0.22 0.01 0  0.23 0.01 0  0.24 0.01 0  0.25 0.01 0  0.26 0.01 0  0.27 0.01 0  0.28 0.01 0  0.29 0.01 0  0.3 0.01 0  0.31 0.01 0  0.32 0.01 0  0.33 0.01 0  0.34 0.01 0  0.35 0.01 0  0.36 0.01 0  0.37 0.01 0  0.38 0.01 0  0.39 0.01 0  0.4 0.01 0  0.41 0.01 0  0.42 0.01 0  0.43 0.01 0  0.44 0.01 0  0.45 0.01 0  0.46 0.01 0  0.47 0.01 0  0.48 0.01 0  0.49 0.01 0  0.5 0.01 0  0.51 0.01 0  0.52 0.01 0  0.53 0.01 0  0.54 0.01 0  0.55 0.01 0  0.5600000000000001 0.01 0  0.57 0.01 0  0.58 0.01 0  0.59 0.01 0  0.6 0.01 0  0.61 0.01 0  0.62 0.01 0  0.63 0.01 0  0.64 0.01 0  0.65 0.01 0  0.66 0.01 0  0.67 0.01 0  0.68 0.01 0  0.6899999999999999 0.01 0  0.7 0.01 0  0.71 0.01 0  0.72 0.01 0  0.73 0.01 0  0.74 0.01 0  0.75 0.01 0  0.76 0.01 0  0.77 0.01 0  0.78 0.01 0  0.79 0.01 0  0.8 0.01 0  0.8100000000000001 0.01 0  0.82 0.01 0  0.83 0.01 0  0.84 0.01 0  0.85 0.01 0  0.86 0.01 0  0.87 0.01 0  0.88 0.01 0  0.89 0.01 0  0.9 0.01 0  0.91 0.01 0  0.92 0.01 0  0.93 0.01 0  0.9399999999999999 0.01 0  0.95 0.01 0  0.96 0.01 0  0.97 0.01 0  0.98 0.01 0  0.99 0.01 0  1 0.01 0  0 0.02 0  0.01 0.02 0  0.02 0.02 0  0.03 0.02 0  0.04 0.02 0  0.05 0.02 0  0.06 0.02 0  0.07000000000000001 0.02 0  0.08 0.02 0  0.09 0.02 0  0.1 0.02 0  0.11 0.02 0  0.12 0.02 0  0.13 0.02 0  0.14 0.02 0  0.15 0.02 0  0.16 0.02 0  0.17 0.02 0  0.18 0.02 0  0.19 0.02 0  0.2 0.02 0  0.21 0.02 0  0.22 0.02 0  0.23 0.02 0  0.24 0.02 0  0.25 0.02 0  0.26 0.02 0  0.27 0.02 0  0.28 0.02 0  0.29 0.02 0  0.3 0.02 0  0.31 0.02 0  0.32 0.02 0  0.33 0.02 0  0.34 0.02 0  0.35 0.02 0  0.36 0.02 0  0.37 0.02 0  0.38 0.02 0  0.39 0.02 0  0.4 0.02 0  0.41 0.02 0  0.42 0.02 0  0.43 0.02 0  0.44 0.02 0  0.45 0.02 0  0.46 0.02 0  0.47 0.02 0  0.48 0.02 0  0.49 0.02 0  0.5 0.02 0  0.51 0.02 0  0.52 0.02 0  0.53 0.02 0  0.54 0.02 0  0.55 0.02 0  0.5600000000000001 0.02 0  0.57 0.02 0  0.58 0.02 0  0.59 0.02 0  0.6 0.02 0  0.61 0.02 0  0.62 0.02 0  0.63 0.02 0  0.64 0.02 0  0.65 0.02 0  0.66 0.02 0  0.67 0.02 0  0.68 0.02 0  0.6899999999999999 0.02 0  0.7 0.02 0  0.71 0.02 0  0.72 0.02 0  0.73 0.02 0  0.74 0.02 0  0.75 0.02 0  0.76 0.02 0  0.77 0.02 0  0.78 0.02 0  0.79 0.02 0  0.8 0.02 0  0.8100000000000001 0.02 0  0.82 0.02 0  0.83 0.02 0  0.84 0.02 0  0.85 0.02 0  0.86 0.02 0  0.87 0.02 0  0.88 0.02 0  0.89 0.02 0  0.9 0.02 0  0.91 0.02 0  0.92 0.02 0  0.93 0.02 0  0.9399999999999999 0.02 0  0.95 0.02 0  0.96 0.02 0  0.97 0.02 0  0.98 0.02 0  0.99 0.02 0  1 0.02 0  0 0.03 0  0.01 0.03 0  0.02 0.03 0  0.03 0.03 0  0.04 0.03 0  0.05 0.03 0  0.06 0.03 0  0.07000000000000001 0.03 0  0.08 0.03 0  0.09 0.03 0  0.1 0.03 0  0.11 0.03 0  0.12 0.03 0  0.13 0.03 0  0.14 0.03 0  0.15 0.03 0  0.16 0.03 0  0.17 0.03 0  0.18 0.03 0  0.19 0.03 0  0.2 0.03 0  0.21 0.03 0  0.22 0.03 0  0.23 0.03 0  0.24 0.03 0  0.25 0.03 0  0.26 0.03 0  0.27 0.03 0  0.28 0.03 0  0.29 0.03 0  0.3 0.03 0  0.31 0.03 0  0.32 0.03 0  0.33 0.03 0  0.34 0.03 0  0.35 0.03 0  0.36 0.03 0  0.37 0.03 0  0.38 0.03 0  0.39 0.03 0  0.4 0.03 0  0.41 0.03 0  0.42 0.03 0  0.43 0.03 0  0.44 0.03 0  0.45 0.03 0  0.46 0.03 0  0.47 0.03 0  0.48 0.03 0  0.49 0.03 0  0.5 0.03 0  0.51 0.03 0  0.52 0.03 0  0.53 0.03 0  0.54 0.03 0  0.55 0.03 0  0.5600000000000001 0.03 0  0.57 0.03 0  0.58 0.03 0  0.59 0.03 0  0.6 0.03 0  0.61 0.03 0  0.62 0.03 0  0.63 0.03 0  0.64 0.03 0  0.65 0.03 0  0.66 0.03 0  0.67 0.03 0  0.68 0.03 0  0.6899999999999999 0.03 0  0.7 0.03 0  0.71 0.03 0  0.72 0.03 0  0.73 0.03 0  0.74 0.03 0  0.75 0.03 0  0.76 0.03 0  0.77 0.03 0  0.78 0.03 0  0.79 0.03 0  0.8 0.03 0  0.8100000000000001 0.03 0  0.82 0.03 0  0.83 0.03 0  0.84 0.03 0  0.85 0.03 0  0.86 0.03 0  0.87 0.03 0  0.88 0.03 0  0.89 0.03 0  0.9 0.03 0  0.91 0.03 0  0.92 0.03 0  0.93 0.03 0  0.9399999999999999 0.03 0  0.95 0.03 0  0.96 0.03 0  0.97 0.03 0  0.98 0.03 0  0.99 0.03 0  1 0.03 0  0 0.04 0  0.01 0.04 0  0.02 0.04 0  0.03 0.04 0  0.04 0.04 0  0.05 0.04 0  0.06 0.04 0  0.07000000000000001 0.04 0  0.08 0.04 0  0.09 0.04 0  0.1 0.04 0  0.11 0.04 0  0.12 0.04 0  0.13 0.04 0  0.14 0.04 0  0.15 0.04 0  0.16 0.04 0  0.17 0.04 0  0.18 0.04 0  0.19 0.04 0  0.2 0.04 0  0.21 0.04 0  0.22 0.04 0  0.23 0.04 0  0.24 0.04 0  0.25 0.04 0  0.26 0.04 0  0.27 0.04 0  0.28 0.04 0  0.29 0.04 0  0.3 0.04 0  0.31 0.04 0  0.32 0.04 0  0.33 0.04 0  0.34 0.04 0  0.35 0.04 0  0.36 0.04 0  0.37 0.04 0  0.38 0.04 0  0.39 0.04 0  0.4 0.04 0  0.41 0.04 0  0.42 0.04 0  0.43 0.04 0  0.44 0.04 0  0.45 0.04 0  0.46 0.04 0  0.47 0.04 0  0.48 0.04 0  0.49 0.04 0  0.5 0.04 0  0.51 0.04 0  0.52 0.04 0  0.53 0.04 0  0.54 0.04 0  0.55 0.04 0  0.5600000000000001 0.04 0  0.57 0.04 0  0.58 0.04 0  0.59 0.04 0  0.6 0.04 0  0.61 0.04 0  0.62 0.04 0  0.63 0.04 0  0.64 0.04 0  0.65 0.04 0  0.66 0.04 0  0.67 0.04 0  0.68 0.04 0  0.6899999999999999 0.04 0  0.7 0.04 0  0.71 0.04 0  0.72 0.04 0  0.73 0.04 0  0.74 0.04 0  0.75 0.04 0  0.76 0.04 0  0.77 0.04 0  0.78 0.04 0  0.79 0.04 0  0.8 0.04 0  0.8100000000000001 0.04 0  0.82 0.04 0  0.83 0.04 0  0.84 0.04 0  0.85 0.04 0  0.86 0.04 0  0.87 0.04 0  0.88 0.04 0  0.89 0.04 0  0.9 0.04 0  0.91 0.04 0  0.92 0.04 0  0.93 0.04 0  0.9399999999999999 0.04 0  0.95 0.04 0  0.96 0.04 0  0.97 0.04 0  0.98 0.04 0  0.99 0.04 0  1 0.04 0  0 0.05 0  0.01 0.05 0  0.02 0.05 0  0.03 0.05 0  0.04 0.05 0  0.05 0.05 0  0.06 0.05 0  0.07000000000000001 0.05 0  0.08 0.05 0  0.09 0.05 0  0.1 0.05 0  0.11 0.05 0  0.12 0.05 0  0.13 0.05 0  0.14 0.05 0  0.15 0.05 0  0.16 0.05 0  0.17 0.05 0  0.18 0.05 0  0.19 0.05 0  0.2 0.05 0  0.21 0.05 0  0.22 0.05 0  0.23 0.05 0  0.24 0.05 0  0.25 0.05 0  0.26 0.05 0  0.27 0.05 0  0.28 0.05 0  0.29 0.05 0  0.3 0.05 0  0.31 0.05 0  0.32 0.05 0  0.33 0.05 0  0.34 0.05 0  0.35 0.05 0  0.36 0.05 0  0.37 0.05 0  0.38 0.05 0  0.39 0.05 0  0.4 0.05 0  0.41 0.05 0  0.42 0.05 0  0.43 0.05 0  0.44 0.05 0  0.45 0.05 0  0.46 0.05 0  0.47 0.05 0  0.48 0.05 0  0.49 0.05 0  0.5 0.05 0  0.51 0.05 0  0.52 0.05 0  0.53 0.05 0  0.54 0.05 0  0.55 0.05 0  0.5600000000000001 0.05 0  0.57 0.05 0  0.58 0.05 0  0.59 0.05 0  0.6 0.05 0  0.61 0.05 0  0.62 0.05 0  0.63 0.05 0  0.64 0.05 0  0.65 0.05 0  0.66 0.05 0  0.67 0.05 0  0.68 0.05 0  0.6899999999999999 0.05 0  0.7 0.05 0  0.71 0.05 0  0.72 0.05 0  0.73 0.05 0  0.74 0.05 0  0.75 0.05 0  0.76 0.05 0  0.77 0.05 0  0.78 0.05 0  0.79 0.05 0  0.8 0.05 0  0.8100000000000001 0.05 0  0.82 0.05 0  0.83 0.05 0  0.84 0.05 0  0.85 0.05 0  0.86 0.05 0  0.87 0.05 0  0.88 0.05 0  0.89 0.05 0  0.9 0.05 0  0.91 0.05 0  0.92 0.05 0  0.93 0.05 0  0.9399999999999999 0.05 0  0.95 0.05 0  0.96 0.05 0  0.97 0.05 0  0.98 0.05 0  0.99 0.05 0  1 0.05 0  0 0.06 0  0.01 0.06 0  0.02 0.06 0  0.03 0.06 0  0.04 0.06 0  0.05 0.06 0  0.06 0.06 0  0.07000000000000001 0.06 0  0.08 0.06 0  0.09 0.06 0  0.1 0.06 0  0.11 0.06 0  0.12 0.06 0  0.13 0.06 0  0.14 0.06 0  0.15 0.06 0  0.16 0.06 0  0.17 0.06 0  0.18 0.06 0  0.19 0.06 0  0.2 0.06 0  0.21 0.06 0  0.22 0.06 0  0.23 0.06 0  0.24 0.06 0  0.25 0.06 0  0.26 0.06 0  0.27 0.06 0  0.28 0.06 0  0.29 0.06 0  0.3 0.06 0  0.31 0.06 0  0.32 0.06 0  0.33 0.06 0  0.34 0.06 0  0.35 0.06 0  0.36 0.06 0  0.37 0.06 0  0.38 0.06 0  0.39 0.06 0  0.4 0.06 0  0.41 0.06 0  0.42 0.06 0  0.43 0.06 0  0.44 0.06 0  0.45 0.06 0  0.46 0.06 0  0.47 0.06 0  0.48 0.06 0  0.49 0.06 0  0.5 0.06 0  0.51 0.06 0  0.52 0.06 0  0.53 0.06 0  0.54 0.06 0  0.55 0.06 0  0.5600000000000001 0.06 0  0.57 0.06 0  0.58 0.06 0  0.59 0.06 0  0.6 0.06 0  0.61 0.06 0  0.62 0.06 0  0.63 0.06 0  0.64 0.06 0  0.65 0.06 0  0.66 0.06 0  0.67 0.06 0  0.68 0.06 0  0.6899999999999999 0.06 0  0.7 0.06 0  0.71 0.06 0  0.72 0.06 0  0.73 0.06 0  0.74 0.06 0  0.75 0.06 0  0.76 0.06 0  0.77 0.06 0  0.78 0.06 0  0.79 0.06 0  0.8 0.06 0  0.8100000000000001 0.06 0  0.82 0.06 0  0.83 0.06 0  0.84 0.06 0  0.85 0.06 0  0.86 0.06 0  0.87 0.06 0  0.88 0.06 0  0.89 0.06 0  0.9 0.06 0  0.91 0.06 0  0.92 0.06 0  0.93 0.06 0  0.9399999999999999 0.06 0  0.95 0.06 0  0.96 0.06 0  0.97 0.06 0  0.98 0.06 0  0.99 0.06 0  1 0.06 0  0 0.07000000000000001 0  0.01 0.07000000000000001 0  0.02 0.07000000000000001 0  0.03 0.07000000000000001 0  0.04 0.07000000000000001 0  0.05 0.07000000000000001 0  0.06 0.07000000000000001 0  0.07000000000000001 0.07000000000000001 0  0.08 0.07000000000000001 0  0.09 0.07000000000000001 0  0.1 0.07000000000000001 0  0.11 0.07000000000000001 0  0.12 0.07000000000000001 0  0.13 0.07000000000000001 0  0.14 0.07000000000000001 0  0.15 0.07000000000000001 0  0.16 0.07000000000000001 0  0.17 0.0700
[...]
<PointData  Scalars="Indicator Function"> 
<DataArray  type="Float64"  Name="Indicator Function"  format="ascii">-6.0185310762101120e-36  -4.9701245099698689e-20  -2.2009092612896328e-20  -2.6064949307637168e-20  3.1451761101049980e-19  -2.9152648923293066e-20  -2.3649707568277041e-20  6.6667229214012377e-19  8.0765378283806292e-19  -2.4577296936353699e-21  3.8795976524774640e-18  7.3788263440218887e-19  -2.8000674049514140e-20  -3.1421170579250095e-20  8.0973750486728408e-18  -7.7399793494836432e-21  2.4299819220198327e-34  1.8986850688304907e-18  -3.4017416134777328e-20  4.5138983071575840e-36  7.2001046947623674e-18  6.0185310762101120e-36  -3.4983579785373546e-20  9.2023976703293014e-18  -3.9886902779691402e-20  -2.2952712678187124e-20  -1.7458660093171700e-20  -4.0970526049191282e-20  4.0602124488127272e-17  -1.6282784433251152e-20  -6.8664421244740033e-20  -2.5375865976603850e-20  -4.2985335418706904e-20  -2.9276293996964092e-20  1.5735311105757644e-18  -7.1350562390183498e-20  -1.0205784192843652e-19  -1.1955246736974429e-19  -1.2597638943366027e-19  -1.2375508533161792e-19  8.6133915605124394e-18  -5.8223913621853532e-20  -2.2626184308839999e-20  -2.8992633700887106e-20  -2.6611737916556030e-20  -1.9711211193110730e-20  1.6094374961733742e-17  -1.4933962287711772e-20  -1.0140687176876448e-20  -9.3120023147960644e-21  -1.3076271800055447e-20  -1.1144424208640683e-20  -8.3178570147726207e-21  -1.1887708224372233e-20  -7.8972593966732680e-21  -1.1660903960157092e-35  4.0444528832131953e-33  0.0000000000000000e+00  2.3509887016445750e-38  -3.5264830524668625e-38  -1.1113076840468131e-23  1.7632415262334313e-38  -1.1754943508222875e-38  1.5281426560689738e-37  -1.7613068976761009e-23  -6.8438212363788025e-23  -2.0470743083922927e-22  -1.3343047497980810e-22  1.2630799130022955e-20  -7.5768988562714550e-22  -3.7884494281357299e-22  -1.2426613559383973e-21  -5.1272675777853191e-22  -3.0662624485708719e-22  -1.3399858012376851e-21  -1.2294042017633955e-21  -6.4454181507193591e-22  -9.4039548065783001e-38  9.4039548065783001e-38  -3.5264830524668625e-38  3.2561193517777364e-36  7.5375123424663396e-19  -3.7311245683432349e-22  -6.2689977734178113e-22  -2.3132840816975705e-22  -8.9089767580122571e-22  -5.5440281700769094e-22  -9.0672528690303690e-23  -1.0945461135940292e-22  -1.0710920477202716e-22  -8.0233672599265907e-23  -3.3412609080030674e-23  -9.7646721760314589e-24  4.1755794827087218e-21  -3.6734198463196485e-40  -5.9013381302925534e-25  -1.1967083845254744e-24  -9.7751733442876654e-25  -2.6334829771167359e-25  -1.1566255637015268e-25  -1.4693679385278594e-39  -2.4782081215002751e-20  4.0769694169817043e-04  2.1468433244214215e-04  1.1768168199990954e-04  3.2376260474247794e-04  2.2603405086739936e-04  4.1215040987752246e-04  2.1996005182889431e-04  6.3914462229491841e-04  8.8549044259468901e-05  6.3551139567988907e-06  4.1003291541916116e-04  6.5286930090546584e-04  1.7798065040932519e-04  4.7704316324435718e-04  1.4497883717813504e-04  6.6941653867691879e-05  6.8301272321682994e-04  1.4493303444018286e-04  6.1280329051476110e-04  9.0533034505738634e-05  3.2135717329558679e-04  1.1728459568197710e-04  5.7156584970099328e-04  2.5815490166318359e-04  8.2695862611700420e-04  6.2901452071996986e-04  7.6178819819576655e-04  3.5716528429535771e-04  5.8664913524915168e-04  6.4537264654838792e-04  9.1426192445149363e-04  5.7433405251854173e-04  4.8718793603706593e-04  2.8380085892353095e-04  5.4377689979790745e-04  1.0134490148734690e-03  1.3317861280798397e-03  1.4877727259504949e-03  1.5255025190684035e-03  1.4666221652045116e-03  1.1714110951007045e-03  4.6316323521537371e-04  4.0759710088843188e-04  3.1848630688300196e-04  7.1017122707455024e-04  6.1180825604241441e-04  5.3805269595283011e-04  3.6535675992849221e-04  1.8427884986692590e-04  1.6775012061995498e-04  4.0152019770634353e-04  2.4979459899401999e-06  1.4859221801403403e-04  1.3985380431127077e-04  7.2337475748788084e-05  5.7010720574887883e-05  2.8353047882130438e-05  1.2027295255487757e-05  4.5844252372119366e-06  7.7060224217453194e-07  2.0019539487068650e-07  5.2705146054959733e-07  8.5352784044840277e-07  1.3365330112545334e-06  2.3787145476409351e-06  3.5219365544807411e-06  5.9905694145735346e-06  1.8715990785317552e-07  1.3114765216584751e-06  1.3649327546291225e-05  7.8257371920265516e-06  1.8472928282194245e-05  1.1047374736643140e-05  6.0607553490290975e-06  2.1108660546028626e-05  1.1592646946783085e-05  5.8147096393391481e-06  1.1234663528684703e-05  4.2663351403512269e-07  3.2596695618820742e-06  1.5812132474749526e-06  1.3442792972530784e-05  2.1787647718276451e-05  3.9939855540214010e-07  3.9675428536330369e-06  1.6700357072485172e-05  1.7229649864451938e-06  1.6334110656895692e-06  1.1550534548839726e-06  1.3519811713550200e-06  7.6937076640497104e-07  4.8065064635092778e-07  1.8005935168582613e-07  7.3444202613899871e-08  7.0840103774443604e-09  1.0630905681829157e-08  1.6242528897565822e-08  9.4881223635435527e-09  4.1671827661547056e-09  -2.5588218990031304e-24  -1.5484696972477947e-20  4.4643428690140682e-04  1.3890862483239568e-04  8.8334999883883520e-05  5.2501786601674405e-05  4.3241018106398394e-04  4.8480358185842804e-04  5.7596879230691501e-04  6.9526166270564163e-04  6.5071567838392668e-05  4.1826880047141014e-04  3.7382687918139111e-04  4.3440675533984875e-04  9.6891144896180093e-04  6.1029263810630544e-04  4.5623668483273550e-04  1.1001278361724835e-03  9.7137618103464626e-05  5.4947831582789547e-04  7.4906934451072387e-04  3.6516569656635617e-04  1.3794617709394343e-03  9.0883101721566544e-04  1.5004417318636759e-03  8.1382738916934837e-04  9.9989104323177920e-04  9.3756203962964439e-05  4.0545871256387263e-04  1.5678860438403986e-03  1.0001147768768403e-03  2.5811873330524140e-04  1.5496242577854806e-03  2.0290212850400185e-04  1.1241490943482875e-03  4.7389467415283711e-04  2.7234505492512804e-04  1.3170180093092048e-03  1.7047511110849128e-03  2.0273433580900975e-03  2.1631485323762721e-03  2.1173650354064824e-03  1.8850317362641407e-03  1.2993437156472204e-03  3.0245471266967681e-04  9.7081116640158568e-04  8.2382565971921354e-04  6.6550546000984916e-04  9.7430185288180046e-04  7.3337163853600816e-04  8.5406541163508945e-05  3.7549020488086870e-04  4.1682119525319241e-04  4.2438656627025487e-04  3.6277959190416476e-04  2.0202845400916372e-04  1.0628308929302432e-04  6.3259974600132231e-05  6.6035329650452701e-05  2.6608158090875192e-05  1.1469052378492297e-05  3.3883896523245138e-06  5.8465938086554826e-07  2.9908731351543115e-08  4.0399907851536873e-07  1.0174140910847863e-06  1.3865073430391482e-06  1.9482306694926844e-06  4.2536216283130747e-06  4.3579722280515005e-06  9.0896856358628861e-06  6.9952939399625715e-06  1.0834795768273674e-05  3.8663118316590092e-05  1.5719648381742946e-05  1.1746842557357587e-05  2.5318265125353692e-05  2.5931954984931354e-05  5.0996560952753621e-06  1.0038904931659161e-05  1.3408599033944864e-05  8.9703415804556800e-06  5.2492791457067413e-06  1.2272732637627586e-05  6.7251622459410864e-06  3.9379020601350870e-05  8.8109005719842500e-06  8.1482041964771698e-06  1.5655861608485898e-05  6.3839519628691392e-07  2.1127799245470282e-06  1.6475408571376051e-06  1.2080271933967835e-06  6.6766503771710444e-07  3.0136296689072058e-07  8.0708297837296134e-08  4.1289030188621654e-09  3.1793751403249665e-08  3.6753795197714011e-08  2.7081152746733812e-08  8.9391230848386804e-09  -3.9884718541116155e-24  -1.8262320847957174e-20  2.7894750206078746e-04  4.3360459192206847e-04  3.9018166347167132e-06  4.3300134120265545e-04  5.9563953359434722e-04  4.9609888939802706e-04  7.4369469538152898e-04  1.3810929749683457e-04  1.3055972476441944e-03  4.8227569861052820e-04  1.3843772707455022e-05  1.0044644266264512e-03  9.8332586209571161e-04  2.0653688633947700e-05  1.1076434138247132e-03  3.7087405019618319e-04  4.7387894646562235e-04  1.2397903775602148e-03  7.2092307790635384e-04  1.6285135846768899e-03  5.9573606014422264e-04  1.1430914959556007e-03  4.8894794146578900e-04  1.6729698720913655e-03  1.4173860731672948e-03  2.1701089514674725e-03  1.7717767317801108e-03  1.6004426566032573e-03  8.4154153166134474e-04  1.9148086094238263e-03  1.4373980090526012e-03  1.9082901568006699e-03  1.8441647024387507e-03  9.6010689898310515e-04  2.0314796752792612e-04  1.3327546490668810e-03  1.8721067171757124e-03  2.1765674093170580e-03  2.4054739506006399e-03  2.4780951159262066e-03  2.3585516131532686e-03  1.7722724434912241e-03  5.5460934658138194e-04  1.0011713491947518e-03  5.8528155600277572e-04  2.0085170943469075e-03  1.4476861106958712e-03  1.0175935352449157e-03  7.8545121968275251e-04  6.6679739624874205e-04  6.1192551463790947e-04  9.9879872285904038e-04  1.3480063800482483e-04  4.4772251513835836e-04  1.5909261704330995e-04  7.2671965115234742e-06  7.3695297047417634e-05  5.5451753000611329e-05  2.2836653148413853e-05  9.6787611479943737e-06  2.7157167294096850e-06  2.5158829465107293e-07  9.8885144259694012e-07  1.7065313255490013e-06  1.9673390711432766e-06  2.6022471892428560e-06  4.1241834783220053e-06  8.7931250027815552e-06  1.5325865664771804e-06  6.3894410697836444e-06  2.1634754348131431e-05  1.4220397589231519e-05  4.7204775842656380e-05  7.3447724432519826e-06  7.7407503585005340e-06  3.9788895449912745e-05  1.4883474874485617e-05  1.7821678717864328e-05  1.2189079518597856e-05  1.9142484709634264e-05  1.3052846153359780e-05  4.5184191146428670e-06  1.8549481898920543e-05  4.0361931728744270e-05  3.0709482479825468e-05  6.9690691649842924e-06  7.8840264183345739e-06  6.9477309689470448e-06  1.4563996500934616e-06  2.0452382212120797e-06  1.4340158822927987e-06  7.4485400567811009e-07  3.7944011684352079e-07  8.2542788693712597e-08  5.7387468218175666e-09  4.2360519538347711e-08  3.9074719423591069e-08  3.0830403724526617e-08  1.5603255983703572e-08  -2.1653867565284776e-24  -1.9344259507207526e-20  3.2898472546312202e-04  4.4697799163614715e-04  8.8921183390703771e-05  1.4165079394849400e-04  5.1213663753691915e-04  7.7586759657097585e-04  1.0800170442842828e-03  9.3777875500549379e-04  5.6176607494031632e-04  9.6892652691443109e-05  4.0000532668754002e-04  2.1428427326031850e-04  7.3564393788003992e-04  1.5083409091707508e-03  2.0801318174772074e-04  5.1248867867866802e-04  1.4663684801851406e-03  4.6267945047772524e-04  1.2328518577723478e-03  3.7321553303430982e-04  1.9566473924449395e-04  1.6925149105095365e-03  1.3456886612586690e-03  2.0291899513704809e-03  9.3699771004916873e-04  9.1859456201997072e-04  6.8962473690717418e-04  1.4641581822471123e-03  2.9165533691459808e-03  1.5300064349553467e-03  9.8187284924012718e-04  2.8013796581216051e-03  5.1765336519310609e-04  2.4455836024987357e-03  5.5154421625618305e-04  5.3133934938973473e-04  2.1496203886279971e-03  2.2868516405890817e-03  2.5436403825627764e-03  2.6849507337713087e-03  2.6254322260185689e-03  2.3480647019572219e-03  1.5160131625001465e-03  7.3574982321249855e-04  1.6004723503750856e-03  1.3620237937571706e-03  1.5946481046413901e-03  2.3367866327064237e-03  1.7453733761420324e-03  6.7047994009237545e-04  2.4064658900765682e-04  4.2903978345414312e-04  8.3256730647342291e-04  7.2365419809786613e-04  3.2970615006773057e-04  4.3004623908188558e-05  2.0471423039462060e-05  7.8966323616269079e-05  3.7350117397373073e-05  1.6912409841345066e-05  6.7370770716303676e-06  2.2889428818360798e-06  3.0257681161379059e-07  3.6030624250959874e-07  1.2166738296084671e-06  2.1586929060547396e-06  3.3344496927542850e-06  7.0059695859099942e-06  6.9354914005465828e-06  1.2367892440130175e-05  8.2789151793577280e-06  1.5832733910467694e-05  4.3790247335785905e-05  2.4064221463322980e-05  9.0330639957610810e-06  3.1950960083710718e-05  4.2535757482263700e-05  5.8259403950369845e-06  1.7993562685840967e-05  6.2537985175470518e-06  2.7077861693898759e-05  2.6404017045276867e-06  1.1434109320943466e-05  6.1470744036455835e-06  5.1429154167813801e-05  2.3097334391297363e-05  1.3801309414186787e-06  4.3129602304035310e-07  6.1590189864086243e-08  2.2398328611644305e-06  2.4696813438556943e-06  1.2320752605945094e-06  6.6673534045140068e-07  2.1451915275316074e-07  6.6137679527745645e-08  7.8942888791956190e-09  1.3820803947926377e-08  1.5526095521799189e-08  8.1501313645297615e-09  2.0359042862896536e-24  -1.4582746779081500e-20  3.4847519963367168e-04  5.3690318164886439e-04  7.7636391591638968e-04  1.7363055047632081e-04  4.9298204699369235e-04  4.7114027503718979e-04  4.1560723121418541e-04  1.1692507449509097e-03  3.4553603696459010e-04  1.6218606796691668e-03  9.4064699170065644e-04  2.4821859611609716e-04  1.2358282472123326e-03  1.0172592862455806e-03  2.4629550295479744e-04  1.2482090998504984e-03  9.7435407565952929e-04  1.1250523360920848e-03  1.0559381785291047e-03  7.1624086866167605e-04  2.0322690615669332e-03  1.1781306367933677e-03  1.9552005384036414e-03  1.2550005279766058e-03  2.6511208923558132e-03  2.3480814098066701e-03  3.0366829156673303e-03  2.2382350070202298e-03  1.5720017431306052e-03  1.7301862169005623e-03  3.0613821418759616e-03  1.6613341252940711e-03  3.1415179132262077e-03  2.4368369855437065e-03  1.7312007390866751e-03  7.4892304720895029e-05  1.7631959182389861e-03  2.5788631904705207e-03  2.6422698432433211e-03  2.8301561329185290e-03  2.9106141296155906e-03  2.7608677170835308e-03  2.0419142816582524e-03  5.4774348601689649e-04  1.6322583591961432e-03  1.0204224109872564e-03  3.0915039313713795e-03  1.5145011427017689e-03  5.1871217491858532e-04  4.3723243241839419e-04  6.6627852336422562e-04  9.4849567186649488e-04  1.3749255185170665e-03  3.9876557153337866e-05  8.0635946548780941e-04  1.8403274440875769e-04  8.6698237668080748e-05  3.1158826088758226e-05  6.7829177724528932e-05  2.4411538564708459e-05  1.0495861980215909e-05  3.0096233088361560e-06  5.2541443512978137e-07  2.6939787696263229e-07  1.2228527286816616e-06  2.0625667365671212e-06  2.9763223884853733e-06  4.6010476731880262e-06  1.0478661750749543e-05  5.0800236801922782e-06  1.0586086882342177e-05  2.2784358829686959e-05  1.5162661671870447e-05  4.5505653241766919e-05  5.6291796286076450e-06  1.2684859051162554e-05  4.7231541404174160e-05  3.2035936511962483e-05  1.4756254050167267e-05  1.8052835277367895e-05  8.8938290422173203e-06  2.0813057256268010e-05  4.5804585706483036e-06  1.5574189078258998e-05  3.5098018735314693e-05  4.1186398963304283e-05  2.5040353641137225e-05  3.7524203292131565e-06  4.9322751963647133e-06  2.5454350257060783e-06  2.8995069165866724e-06  2.2367845022594197e-06  1.1543950301307007e-06  5.5690375774524964e-07  2.0285911041180739e-07  7.8587687559110651e-08  3.1470811730844300e-08  1.5960528378176386e-08  8.8788990811705690e-09  2.9387358770557188e-38  -6.2196276547374008e-21  2.6269941184123898e-04  5.3031793939887898e-04  4.2880397364977057e-04  5.7678822372296621e-04  1.7424940257187218e-04  5.8483770687624542e-04  1.0446653130622928e-03  1.3470166228785822e-03  1.2026864043817862e-03  4.8450877019232130e-04  4.8572605279733092e-04  1.2618363874169426e-05  2.0036967343139484e-04  1.1960603809653238e-03  1.7392640305555472e-03  6.1159072166423989e-05  2.3504314616321014e-04  1.1297872653815511e-03  2.0786268169592856e-04  1.5626245939971794e-03  4.1078203073009548e-05  3.3366291928860393e-04  1.2970368486066365e-03  1.0722981037379438e-03  1.8286679667058258e-03  4.2845661643811303e-04  3.2223341645105116e-04  1.4810722913283548e-03  2.2986074765610253e-03  3.7830971427916657e-03  1.5203018534510947e-03  2.0053570510910994e-03  3.7013257515008313e-03  1.1398826318469665e-03  3.5573999643565683e-03  8.4026130765381412e-04  7.7042111147235617e-04  2.8253269967463768e-03  2.8928999435985027e-03  2.9787925149515736e-03  3.1040193752404559e-03  3.0503372808764859e-03  2.7374974710319311e-03  1.6460635109696348e-03  1.0257966200845345e-03  2.2816696923937192e-03  1.5730262741056706e-03  2.6088875577370378e-03  3.1221539666126596e-03  2.1017832225538589e-03  9.8365570359179567e-04  5.5110216863517167e-05  1.7407220019628665e-04  1.2548039588269294e-03  8.7779217387156630e-04  5.6766546000407104e-04  3.8898790171169170e-06  1.1995298970173304e-04  7.6734200353784332e-05  4.9988368355691655e-05  1.8728327163706917e-05  6.5669555345843492e-06  1.1335267033697246e-06  8.9512375253259186e-07  1.6061057094336764e-06  2.1437639117206058e-06  2.9661090990940011e-06  3.9574519283597670e-06  8.4361562795205307e-06  6.1613742092777446e-06  1.8574622625740528e-05  6.7606975143988411e-06  1.1721484363491329e-05  4.1958078819517062e-05  1.2888096934619051e-05  5.4212773593899035e-06  3.5063553209710063e-05  5.0422750219104361e-05  1.1717494373215733e-05  1.5417369557284244e-05  1.8067473701675628e-05  1.7056268885441714e-05  6.9353769614648367e-06  2.1087308329674411e-05  9.6875445790854877e-06  3.9205466591651853e-05  3.5214123330345840e-05  2.3753820499877633e-05  9.7331457923167718e-07  6.3512761339629937e-06  3.5403942357312316e-06  3.0166240346442950e-06  1.7184080007900892e-06  9.8712842839444401e-07  3.6188893981532981e-07  1.8264751394742966e-07  7.4522710053234623e-08  5.0024380774996045e-08  2.6234691332449219e-08  0.0000000000000000e+00  -1.9289588971033475e-20  1.1204285115303433e-04  3.9733792165909528e-04  6.8231437603499063e-04  6.9350685730610001e-04  9.5034877094226877e-05  6.1881066431630348e-04  2.4040973834380298e-04  1.1259507541407020e-04  1.5399991313014786e-03  5.6784667837436612e-04  1.5300810971370126e-03  8.9858821876928586e-04  2.1273909519637545e-04  1.1938821013944660e-03  1.2952428758567687e-03  5.9191733562003119e-04  9.3992288841684339e-04  9.5420475450615986e-04  1.3073409046607371e-03  9.0838591258847424e-04  2.7191806424533633e-04  1.7525545017332441e-03  9.3875072916632782e-04  2.0802687842872698e-03  1.3701884116376721e-03  2.9129351350807194e-03  2.4083494657107644e-03  3.0579784697157288e-03  2.0047219535840408e-03  1.1354965768777586e-03  2.6315938122749311e-03  3.6418658542786224e-03  1.4719268359933420e-03  4.3526755442801924e-03  2.6078800921060974e-03  2.8149540168381942e-03  4.4310547267427448e-05  2.0899004297797179e-03  3.4123042114577130e-03  3.2258464096667772e-03  3.2956011526527880e-03  3.3726514853342276e-03  3.1953422143486858e-03  2.3348329960797606e-03  5.1314568502195356e-04  2.1996563838659177e-03  1.4654212426610295e-03  3.7809646388087354e-03  1.1678566838355434e-03  2.5314625683326260e-04  1.7788569050465055e-04  2.1050910055420654e-04  8.1073122099519163e-04  1.4029594526838000e-03  2.2388276054900069e-04  1.0941486200004005e-03  2.8602191944991461e-04  1.6049162708653666e-04  5.2385650534973493e-05  7.9861159384075518e-05  3.3416019294453472e-05  1.3999941103066961e-05  5.1738431730486867e-06  9.9116910005792029e-08  1.9922239538339697e-06  2.6737072952003197e-06  3.1164436422405672e-06  3.9639907562282157e-06  5.5165614889046929e-06  1.2250895708404336e-05  9.6854477688319322e-06  1.4558063792753222e-05  2.0073332688132000e-05  1.9170472386153846e-05  3.3468902227175029e-05  1.3003565820934522e-05  1.7236096310074979e-05  4.6572349775520634e-05  3.6244014245010005e-05  3.6257002365281187e-07  1.9386015975657992e-05  5.1254775910505306e-06  9.4372614648087270e-06  1.1930490465976742e-05  1.7113860525053077e-05  3.1051592659295437e-05  3.2757114236585501e-05  3.3854620400613490e-05  1.4935601668761905e-05  4.1956036499478486e-06  5.8478066503516325e-06  4.2328305969806837e-06  2.5141916355212880e-06  1.4808802435281300e-06  6.2940075714239667e-07  2.9643838239010344e-07  1.2524262172102619e-07  7.9882909229633175e-08  3.8387274968926831e-08  1.3586609395996570e-25  -4.2646630521402510e-21  3.4749034280830642e-04  5.1106159700896000e-04  5.8088852463652780e-04  4.8554181677236695e-04  8.0323574310698753e-04  5.2329358424538042e-05  4.9688490787148454e-04  9.0928884038245477e-04  1.3022273917778025e-03  1.5391602064800938e-03  6.4131597254024240e-04  5.2577302016627219e-04  3.2367065827988597e-04  3.5862139160944409e-04  1.3871635964866672e-03  1.8385945717793914e-03  1