<?xml version="1.0"?>
<VTKFile type="UnstructuredGrid"  version="0.1"  >
<UnstructuredGrid>
<Piece  NumberOfPoints="10201" NumberOfCells="20000">
<Points>
<DataArray  type="Float64"  NumberOfComponents="3"  format="ascii">0 0 0  0.01 0 0  0.02 0 0  0.03 0 0  0.04 0 0  0.05 0 0  0.06 0 0  0.07000000000000001 0 0  0.08 0 0  0.09 0 0  0.1 0 0  0.11 0 0  0.12 0 0  0.13 0 0  0.14 0 0  0.15 0 0  0.16 0 0  0.17 0 0  0.18 0 0  0.19 0 0  0.2 0 0  0.21 0 0  0.22 0 0  0.23 0 0  0.24 0 0  0.25 0 0  0.26 0 0  0.27 0 0  0.28 0 0  0.29 0 0  0.3 0 0  0.31 0 0  0.32 0 0  0.33 0 0  0.34 0 0  0.35 0 0  0.36 0 0  0.37 0 0  0.38 0 0  0.39 0 0  0.4 0 0  0.41 0 0  0.42 0 0  0.43 0 0  0.44 0 0  0.45 0 0  0.46 0 0  0.47 0 0  0.48 0 0  0.49 0 0  0.5 0 0  0.51 0 0  0.52 0 0  0.53 0 0  0.54 0 0  0.55 0 0  0.5600000000000001 0 0  0.57 0 0  0.58 0 0  0.59 0 0  0.6 0 0  0.61 0 0  0.62 0 0  0.63 0 0  0.64 0 0  0.65 0 0  0.66 0 0  0.67 0 0  0.68 0 0  0.6899999999999999 0 0  0.7 0 0  0.71 0 0  0.72 0 0  0.73 0 0  0.74 0 0  0.75 0 0  0.76 0 0  0.77 0 0  0.78 0 0  0.79 0 0  0.8 0 0  0.8100000000000001 0 0  0.82 0 0  0.83 0 0  0.84 0 0  0.85 0 0  0.86 0 0  0.87 0 0  0.88 0 0  0.89 0 0  0.9 0 0  0.91 0 0  0.92 0 0  0.93 0 0  0.9399999999999999 0 0  0.95 0 0  0.96 0 0  0.97 0 0  0.98 0 0  0.99 0 0  1 0 0  0 0.01 0  0.01 0.01 0  0.02 0.01 0  0.03 0.01 0  0.04 0.01 0  0.05 0.01 0  0.06 0.01 0  0.07000000000000001 0.01 0  0.08 0.01 0  0.09 0.01 0  0.1 0.01 0  0.11 0.01 0  0.12 0.01 0  0.13 0.01 0  0.14 0.01 0  0.15 0.01 0  0.16 0.01 0  0.17 0.01 0  0.18 0.01 0  0.19 0.01 0  0.2 0.01 0  0.21 0.01 0  0.22 0.01 0  0.23 0.01 0  0.24 0.01 0  0.25 0.01 0  0.26 0.01 0  0.27 0.01 0  0.28 0.01 0  0.29 0.01 0  0.3 0.01 0  0.31 0.01 0  0.32 0.01 0  0.33 0.01 0  0.34 0.01 0  0.35 0.01 0  0.36 0.01 0  0.37 0.01 0  0.38 0.01 0  0.39 0.01 0  0.4 0.01 0  0.41 0.01 0  0.42 0.01 0  0.43 0.01 0  0.44 0.01 0  0.45 0.01 0  0.46 0.01 0  0.47 0.01 0  0.48 0.01 0  0.49 0.01 0  0.5 0.01 0  0.51 0.01 0  0.52 0.01 0  0.53 0.01 0  0.54 0.01 0  0.55 0.01 0  0.5600000000000001 0.01 0  0.57 0.01 0  0.58 0.01 0  0.59 0.01 0  0.6 0.01 0  0.61 0.01 0  0.62 0.01 0  0.63 0.01 0  0.64 0.01 0  0.65 0.01 0  0.66 0.01 0  0.67 0.01 0  0.68 0.01 0  0.6899999999999999 0.01 0  0.7 0.01 0  0.71 0.01 0  0.72 0.01 0  0.73 0.01 0  0.74 0.01 0  0.75 0.01 0  0.76 0.01 0  0.77 0.01 0  0.78 0.01 0  0.79 0.01 0  0.8 0.01 0  0.8100000000000001 0.01 0  0.82 0.01 0  0.83 0.01 0  0.84 0.01 0  0.85 0.01 0  0.86 0.01 0  0.87 0.01 0  0.88 0.01 0  0.89 0.01 0  0.9 0.01 0  0.91 0.01 0  0.92 0.01 0  0.93 0.01 0  0.9399999999999999 0.01 0  0.95 0.01 0  0.96 0.01 0  0.97 0.01 0  0.98 0.01 0  0.99 0.01 0  1 0.01 0  0 0.02 0  0.01 0.02 0  0.02 0.02 0  0.03 0.02 0  0.04 0.02 0  0.05 0.02 0  0.06 0.02 0  0.07000000000000001 0.02 0  0.08 0.02 0  0.09 0.02 0  0.1 0.02 0  0.11 0.02 0  0.12 0.02 0  0.13 0.02 0  0.14 0.02 0  0.15 0.02 0  0.16 0.02 0  0.17 0.02 0  0.18 0.02 0  0.19 0.02 0  0.2 0.02 0  0.21 0.02 0  0.22 0.02 0  0.23 0.02 0  0.24 0.02 0  0.25 0.02 0  0.26 0.02 0  0.27 0.02 0  0.28 0.02 0  0.29 0.02 0  0.3 0.02 0  0.31 0.02 0  0.32 0.02 0  0.33 0.02 0  0.34 0.02 0  0.35 0.02 0  0.36 0.02 0  0.37 0.02 0  0.38 0.02 0  0.39 0.02 0  0.4 0.02 0  0.41 0.02 0  0.42 0.02 0  0.43 0.02 0  0.44 0.02 0  0.45 0.02 0  0.46 0.02 0  0.47 0.02 0  0.48 0.02 0  0.49 0.02 0  0.5 0.02 0  0.51 0.02 0  0.52 0.02 0  0.53 0.02 0  0.54 0.02 0  0.55 0.02 0  0.5600000000000001 0.02 0  0.57 0.02 0  0.58 0.02 0  0.59 0.02 0  0.6 0.02 0  0.61 0.02 0  0.62 0.02 0  0.63 0.02 0  0.64 0.02 0  0.65 0.02 0  0.66 0.02 0  0.67 0.02 0  0.68 0.02 0  0.6899999999999999 0.02 0  0.7 0.02 0  0.71 0.02 0  0.72 0.02 0  0.73 0.02 0  0.74 0.02 0  0.75 0.02 0  0.76 0.02 0  0.77 0.02 0  0.78 0.02 0  0.79 0.02 0  0.8 0.02 0  0.8100000000000001 0.02 0  0.82 0.02 0  0.83 0.02 0  0.84 0.02 0  0.85 0.02 0  0.86 0.02 0  0.87 0.02 0  0.88 0.02 0  0.89 0.02 0  0.9 0.02 0  0.91 0.02 0  0.92 0.02 0  0.93 0.02 0  0.9399999999999999 0.02 0  0.95 0.02 0  0.96 0.02 0  0.97 0.02 0  0.98 0.02 0  0.99 0.02 0  1 0.02 0  0 0.03 0  0.01 0.03 0  0.02 0.03 0  0.03 0.03 0  0.04 0.03 0  0.05 0.03 0  0.06 0.03 0  0.07000000000000001 0.03 0  0.08 0.03 0  0.09 0.03 0  0.1 0.03 0  0.11 0.03 0  0.12 0.03 0  0.13 0.03 0  0.14 0.03 0  0.15 0.03 0  0.16 0.03 0  0.17 0.03 0  0.18 0.03 0  0.19 0.03 0  0.2 0.03 0  0.21 0.03 0  0.22 0.03 0  0.23 0.03 0  0.24 0.03 0  0.25 0.03 0  0.26 0.03 0  0.27 0.03 0  0.28 0.03 0  0.29 0.03 0  0.3 0.03 0  0.31 0.03 0  0.32 0.03 0  0.33 0.03 0  0.34 0.03 0  0.35 0.03 0  0.36 0.03 0  0.37 0.03 0  0.38 0.03 0  0.39 0.03 0  0.4 0.03 0  0.41 0.03 0  0.42 0.03 0  0.43 0.03 0  0.44 0.03 0  0.45 0.03 0  0.46 0.03 0  0.47 0.03 0  0.48 0.03 0  0.49 0.03 0  0.5 0.03 0  0.51 0.03 0  0.52 0.03 0  0.53 0.03 0  0.54 0.03 0  0.55 0.03 0  0.5600000000000001 0.03 0  0.57 0.03 0  0.58 0.03 0  0.59 0.03 0  0.6 0.03 0  0.61 0.03 0  0.62 0.03 0  0.63 0.03 0  0.64 0.03 0  0.65 0.03 0  0.66 0.03 0  0.67 0.03 0  0.68 0.03 0  0.6899999999999999 0.03 0  0.7 0.03 0  0.71 0.03 0  0.72 0.03 0  0.73 0.03 0  0.74 0.03 0  0.75 0.03 0  0.76 0.03 0  0.77 0.03 0  0.78 0.03 0  0.79 0.03 0  0.8 0.03 0  0.8100000000000001 0.03 0  0.82 0.03 0  0.83 0.03 0  0.84 0.03 0  0.85 0.03 0  0.86 0.03 0  0.87 0.03 0  0.88 0.03 0  0.89 0.03 0  0.9 0.03 0  0.91 0.03 0  0.92 0.03 0  0.93 0.03 0  0.9399999999999999 0.03 0  0.95 0.03 0  0.96 0.03 0  0.97 0.03 0  0.98 0.03 0  0.99 0.03 0  1 0.03 0  0 0.04 0  0.01 0.04 0  0.02 0.04 0  0.03 0.04 0  0.04 0.04 0  0.05 0.04 0  0.06 0.04 0  0.07000000000000001 0.04 0  0.08 0.04 0  0.09 0.04 0  0.1 0.04 0  0.11 0.04 0  0.12 0.04 0  0.13 0.04 0  0.14 0.04 0  0.15 0.04 0  0.16 0.04 0  0.17 0.04 0  0.18 0.04 0  0.19 0.04 0  0.2 0.04 0  0.21 0.04 0  0.22 0.04 0  0.23 0.04 0  0.24 0.04 0  0.25 0.04 0  0.26 0.04 0  0.27 0.04 0  0.28 0.04 0  0.29 0.04 0  0.3 0.04 0  0.31 0.04 0  0.32 0.04 0  0.33 0.04 0  0.34 0.04 0  0.35 0.04 0  0.36 0.04 0  0.37 0.04 0  0.38 0.04 0  0.39 0.04 0  0.4 0.04 0  0.41 0.04 0  0.42 0.04 0  0.43 0.04 0  0.44 0.04 0  0.45 0.04 0  0.46 0.04 0  0.47 0.04 0  0.48 0.04 0  0.49 0.04 0  0.5 0.04 0  0.51 0.04 0  0.52 0.04 0  0.53 0.04 0  0.54 0.04 0  0.55 0.04 0  0.5600000000000001 0.04 0  0.57 0.04 0  0.58 0.04 0  0.59 0.04 0  0.6 0.04 0  0.61 0.04 0  0.62 0.04 0  0.63 0.04 0  0.64 0.04 0  0.65 0.04 0  0.66 0.04 0  0.67 0.04 0  0.68 0.04 0  0.6899999999999999 0.04 0  0.7 0.04 0  0.71 0.04 0  0.72 0.04 0  0.73 0.04 0  0.74 0.04 0  0.75 0.04 0  0.76 0.04 0  0.77 0.04 0  0.78 0.04 0  0.79 0.04 0  0.8 0.04 0  0.8100000000000001 0.04 0  0.82 0.04 0  0.83 0.04 0  0.84 0.04 0  0.85 0.04 0  0.86 0.04 0  0.87 0.04 0  0.88 0.04 0  0.89 0.04 0  0.9 0.04 0  0.91 0.04 0  0.92 0.04 0  0.93 0.04 0  0.9399999999999999 0.04 0  0.95 0.04 0  0.96 0.04 0  0.97 0.04 0  0.98 0.04 0  0.99 0.04 0  1 0.04 0  0 0.05 0  0.01 0.05 0  0.02 0.05 0  0.03 0.05 0  0.04 0.05 0  0.05 0.05 0  0.06 0.05 0  0.07000000000000001 0.05 0  0.08 0.05 0  0.09 0.05 0  0.1 0.05 0  0.11 0.05 0  0.12 0.05 0  0.13 0.05 0  0.14 0.05 0  0.15 0.05 0  0.16 0.05 0  0.17 0.05 0  0.18 0.05 0  0.19 0.05 0  0.2 0.05 0  0.21 0.05 0  0.22 0.05 0  0.23 0.05 0  0.24 0.05 0  0.25 0.05 0  0.26 0.05 0  0.27 0.05 0  0.28 0.05 0  0.29 0.05 0  0.3 0.05 0  0.31 0.05 0  0.32 0.05 0  0.33 0.05 0  0.34 0.05 0  0.35 0.05 0  0.36 0.05 0  0.37 0.05 0  0.38 0.05 0  0.39 0.05 0  0.4 0.05 0  0.41 0.05 0  0.42 0.05 0  0.43 0.05 0  0.44 0.05 0  0.45 0.05 0  0.46 0.05 0  0.47 0.05 0  0.48 0.05 0  0.49 0.05 0  0.5 0.05 0  0.51 0.05 0  0.52 0.05 0  0.53 0.05 0  0.54 0.05 0  0.55 0.05 0  0.5600000000000001 0.05 0  0.57 0.05 0  0.58 0.05 0  0.59 0.05 0  0.6 0.05 0  0.61 0.05 0  0.62 0.05 0  0.63 0.05 0  0.64 0.05 0  0.65 0.05 0  0.66 0.05 0  0.67 0.05 0  0.68 0.05 0  0.6899999999999999 0.05 0  0.7 0.05 0  0.71 0.05 0  0.72 0.05 0  0.73 0.05 0  0.74 0.05 0  0.75 0.05 0  0.76 0.05 0  0.77 0.05 0  0.78 0.05 0  0.79 0.05 0  0.8 0.05 0  0.8100000000000001 0.05 0  0.82 0.05 0  0.83 0.05 0  0.84 0.05 0  0.85 0.05 0  0.86 0.05 0  0.87 0.05 0  0.88 0.05 0  0.89 0.05 0  0.9 0.05 0  0.91 0.05 0  0.92 0.05 0  0.93 0.05 0  0.9399999999999999 0.05 0  0.95 0.05 0  0.96 0.05 0  0.97 0.05 0  0.98 0.05 0  0.99 0.05 0  1 0.05 0  0 0.06 0  0.01 0.06 0  0.02 0.06 0  0.03 0.06 0  0.04 0.06 0  0.05 0.06 0  0.06 0.06 0  0.07000000000000001 0.06 0  0.08 0.06 0  0.09 0.06 0  0.1 0.06 0  0.11 0.06 0  0.12 0.06 0  0.13 0.06 0  0.14 0.06 0  0.15 0.06 0  0.16 0.06 0  0.17 0.06 0  0.18 0.06 0  0.19 0.06 0  0.2 0.06 0  0.21 0.06 0  0.22 0.06 0  0.23 0.06 0  0.24 0.06 0  0.25 0.06 0  0.26 0.06 0  0.27 0.06 0  0.28 0.06 0  0.29 0.06 0  0.3 0.06 0  0.31 0.06 0  0.32 0.06 0  0.33 0.06 0  0.34 0.06 0  0.35 0.06 0  0.36 0.06 0  0.37 0.06 0  0.38 0.06 0  0.39 0.06 0  0.4 0.06 0  0.41 0.06 0  0.42 0.06 0  0.43 0.06 0  0.44 0.06 0  0.45 0.06 0  0.46 0.06 0  0.47 0.06 0  0.48 0.06 0  0.49 0.06 0  0.5 0.06 0  0.51 0.06 0  0.52 0.06 0  0.53 0.06 0  0.54 0.06 0  0.55 0.06 0  0.5600000000000001 0.06 0  0.57 0.06 0  0.58 0.06 0  0.59 0.06 0  0.6 0.06 0  0.61 0.06 0  0.62 0.06 0  0.63 0.06 0  0.64 0.06 0  0.65 0.06 0  0.66 0.06 0  0.67 0.06 0  0.68 0.06 0  0.6899999999999999 0.06 0  0.7 0.06 0  0.71 0.06 0  0.72 0.06 0  0.73 0.06 0  0.74 0.06 0  0.75 0.06 0  0.76 0.06 0  0.77 0.06 0  0.78 0.06 0  0.79 0.06 0  0.8 0.06 0  0.8100000000000001 0.06 0  0.82 0.06 0  0.83 0.06 0  0.84 0.06 0  0.85 0.06 0  0.86 0.06 0  0.87 0.06 0  0.88 0.06 0  0.89 0.06 0  0.9 0.06 0  0.91 0.06 0  0.92 0.06 0  0.93 0.06 0  0.9399999999999999 0.06 0  0.95 0.06 0  0.96 0.06 0  0.97 0.06 0  0.98 0.06 0  0.99 0.06 0  1 0.06 0  0 0.07000000000000001 0  0.01 0.07000000000000001 0  0.02 0.07000000000000001 0  0.03 0.07000000000000001 0  0.04 0.07000000000000001 0  0.05 0.07000000000000001 0  0.06 0.07000000000000001 0  0.07000000000000001 0.07000000000000001 0  0.08 0.07000000000000001 0  0.09 0.07000000000000001 0  0.1 0.07000000000000001 0  0.11 0.07000000000000001 0  0.12 0.07000000000000001 0  0.13 0.07000000000000001 0  0.14 0.07000000000000001 0  0.15 0.07000000000000001 0  0.16 0.07000000000000001 0  0.17 0.0700
[...]
<PointData  Scalars="Indicator Function"> 
<DataArray  type="Float64"  Name="Indicator Function"  format="ascii">-9.0277966143151681e-36  -3.4234824682788008e-20  4.9104746097037447e-20  -6.7069525980378637e-21  2.5172304052545392e-19  -2.1935957154731207e-20  -1.6934516160406295e-20  6.6467876097604105e-19  8.0367542680305552e-19  -9.4609389029646031e-22  3.0901667201650186e-18  -1.6857203373384589e-19  -1.7020345437656862e-20  -2.6143372156725324e-20  7.5048440726232102e-18  -4.3023681053813217e-21  2.3773197751029943e-34  1.6965690370090153e-18  -3.3102124204046065e-20  -9.1009804935002862e-22  8.7412095189246931e-18  -3.5455536259520314e-22  -3.0864346523601658e-20  6.8310744386639214e-18  -2.6564667071653816e-20  -2.0947518959975792e-20  -1.6405840663754268e-20  -3.6268684478507769e-20  3.8827636682859603e-17  -1.5840595988771152e-20  -5.8282256880016521e-20  -2.2988733093229944e-20  -4.2013845198472036e-20  -3.4889624159302799e-20  2.1858622641264300e-18  -5.5646713071288965e-20  -8.6626081247217371e-20  -1.0449812672093606e-19  -1.1165107613066153e-19  -1.0830921192635696e-19  5.0057315680096094e-18  -3.8885724591783363e-20  -2.2831334532740369e-20  -2.9535651791969336e-20  -3.2888976543970530e-20  -1.7946606061466805e-20  7.9552072368829801e-18  -1.4269374314699601e-20  -1.0241855232040262e-20  -9.4508765539794586e-21  -7.6586660216534993e-21  -1.2178043840744633e-20  -8.7063805901102705e-21  -1.1417236907713027e-20  -5.6745445448350340e-21  9.7801129988414321e-36  1.9259299443872359e-33  -2.3509887016445750e-38  -1.4105932209867450e-37  -8.0486350005174845e-23  -1.9911164423335229e-22  -1.5490858247305684e-22  -1.1473398473171168e-22  -6.7574289283536361e-23  -2.4804597415256735e-23  5.2897245787002938e-38  5.5835981664058657e-38  -1.0926008221211073e-23  2.6283296433372127e-21  -3.0911672395818465e-23  -2.5043133363586814e-23  -1.8221066019190476e-23  -1.1759771349793892e-23  -6.3969932934002223e-24  -2.4073350145190820e-24  3.3795462586140766e-38  4.4081038155835782e-39  -7.3468396926392969e-39  -1.9101783200862172e-38  -1.9101783200862172e-38  -1.8367099231598242e-38  4.1125399361793194e-22  -1.8367099231598242e-38  -6.6121557233753672e-39  2.2775203047181820e-38  5.1427877848475078e-39  -6.2448137387434024e-39  5.5101297694794727e-39  -3.6734198463196485e-40  2.5713938924237539e-39  -3.6734198463196485e-40  -1.8367099231598242e-40  -1.6530389308438418e-39  5.0545252433094852e-23  2.7550648847397363e-39  -4.4999393117415694e-39  5.0509522886895166e-39  6.4284847310593848e-40  -4.5917748078995606e-41  -2.9703043288600282e-40  -4.7065691780970496e-40  -1.2849925288721645e-20  3.0169859445237522e-04  2.6002367748994523e-04  6.7873876100494647e-05  2.7433077230662987e-04  1.3654291479351863e-04  3.2689161647549120e-04  1.4161931444107683e-04  5.7720031714464794e-04  3.4086624734372556e-05  5.7357063069201005e-05  4.1879351768780575e-04  5.5288345744505568e-04  3.0169556760466346e-05  4.9388306581219920e-04  1.0446344475348255e-05  7.2281401347149858e-05  6.0857734291956775e-04  1.8990288449494101e-04  5.9631485692205493e-04  1.6394868943692150e-05  3.2913606951897402e-04  6.3871015954639659e-06  5.5600263801090972e-04  3.0125264345978004e-04  7.5471390865986660e-04  5.9108270319986763e-04  6.4490069939460951e-04  3.3090818591319362e-04  5.7071761753885099e-04  4.4332680625898868e-04  8.2825639833912132e-04  5.3516243862549980e-04  4.8927293100821151e-04  3.8387912794762271e-04  3.2154345450055404e-04  8.4167033775872267e-04  1.1396815800227764e-03  1.3126301082339012e-03  1.3550119253132977e-03  1.2736193432326846e-03  1.0119671317703439e-03  1.9451937324117713e-04  4.1129275877608261e-04  3.2642062222978967e-04  6.4659462696792756e-04  6.0097480192684957e-04  5.1410839077192978e-04  3.6900172325279255e-04  2.0457752260326909e-04  1.7025185650730579e-04  3.4814429272388945e-04  4.5307988451171619e-05  1.5684020952546533e-04  1.2725455076997559e-04  3.8596231405477518e-05  4.4705942815214639e-05  1.1438244870150118e-05  2.9080062385956784e-06  2.0107527945435312e-06  1.4499131835668666e-06  2.8619199153143733e-06  2.7974190502454248e-06  2.3268898653667383e-06  1.9413133407699068e-06  1.3787059738327462e-06  7.1305681623888272e-07  1.7199050170230671e-07  1.9682546621478240e-07  4.4105083112259012e-07  5.7568606484870542e-07  6.1232192200985147e-07  5.8094290433517381e-07  5.1272227864108346e-07  4.3074595303282597e-07  3.5056763925418364e-07  2.8103673194049184e-07  2.2507540851226424e-07  1.8119006038930013e-07  1.4642241362367740e-07  1.1997909181550866e-07  1.0246401680364420e-07  9.1753279099108924e-08  8.3557531020737609e-08  7.5455883027324962e-08  6.7545411236589705e-08  5.9770214947076836e-08  5.1865266808463593e-08  4.4925766873314745e-08  3.9539680118351407e-08  3.4848042486170715e-08  3.0370883649033378e-08  2.6277047495575181e-08  2.2704032987271255e-08  2.0112129661999106e-08  1.6544177015592417e-08  1.3316510198767141e-08  1.0794488985779305e-08  8.1869736191122353e-09  4.8285481310084523e-09  4.5917748078995606e-40  -1.7797516707247068e-20  2.3148367496810191e-04  1.4042489158478782e-04  1.1289086089751986e-04  7.0310166805863201e-06  5.4999602620684591e-04  4.4404485471046798e-04  4.4504256320501327e-04  5.3762199305375680e-04  1.5610111389259538e-04  5.7194698398173359e-04  2.2928452187816152e-04  3.6088469739513102e-04  9.9131331250858191e-04  2.9027150605602189e-04  3.2134269086101392e-04  9.9362578604640390e-04  2.6206678626439141e-04  6.1201583549082858e-04  5.3870868258853284e-04  2.8494490504803703e-04  1.1845662583904063e-03  8.1633202564473711e-04  1.3018855052833083e-03  7.0084719746362043e-04  7.6950961184813176e-04  2.0627715168149846e-04  5.5596431496448553e-04  1.5111556824763937e-03  8.4042049362615615e-04  4.6916129107827992e-04  1.4498959741177011e-03  2.1987832263747550e-04  1.0733649962672513e-03  4.1234644869327189e-04  3.0055893603752573e-04  1.2072576275016286e-03  1.4603140579685901e-03  1.7459821751450682e-03  1.8927659989498931e-03  1.8881443901505161e-03  1.6450607690822532e-03  8.0864234325442276e-04  1.9489564660212159e-04  9.3818087475712952e-04  7.2370977138281104e-04  5.4595382409760196e-04  7.7516472232633043e-04  4.9524776882675983e-04  8.0496371150911721e-06  3.0959598869333485e-04  3.1056329056014309e-04  4.2827314945942781e-04  3.0281788348677943e-04  2.2733613412664541e-04  6.4972863120702732e-05  2.9164666371029853e-05  4.9501613898425278e-05  1.0839406885781016e-05  2.7985717459588969e-06  2.6355521192218971e-06  4.5551054642338482e-06  4.8072969911930019e-06  4.5177035879875544e-06  3.7072069984061544e-06  2.5298866616237207e-06  1.3946804115189114e-06  5.0364311279777728e-07  1.7487690585042713e-07  6.5104902453211716e-07  9.1518015787432176e-07  1.0034612452737597e-06  9.7177049977553340e-07  8.6816905801106701e-07  7.3182241332561653e-07  5.9251942910240608e-07  4.6867749620446264e-07  3.6828176942877964e-07  2.9118945788016887e-07  2.3227038096653826e-07  1.8704550107364849e-07  1.5497524832897547e-07  1.3481415838467900e-07  1.2125653380502071e-07  1.0932911708498663e-07  9.7942969196014276e-08  8.7221558811032601e-08  7.6136342479381153e-08  6.5345591714695822e-08  5.6872975584200468e-08  5.0436143157952902e-08  4.4544211348662607e-08  3.8744168083219571e-08  3.3316076952963215e-08  2.8931861151634679e-08  2.5455161814665790e-08  2.0154981373273859e-08  1.6332774495366297e-08  1.2617321743824773e-08  8.2950062731145534e-09  -6.2448137387434024e-39  -1.1471472468956125e-20  3.2061155844351278e-04  2.8567335036706204e-04  1.5677041659914901e-04  3.8432222586309243e-04  4.5467055783231507e-04  2.3495053334916284e-04  6.1886758865163508e-04  8.7978912962091726e-05  1.2177468176859290e-03  5.9968766838368055e-04  1.0260876760996634e-04  1.0153198654074881e-03  7.4351294646774521e-04  7.3669510272244654e-05  1.1435011624174724e-03  6.0849345524808564e-04  5.6933261411196417e-04  1.0025211748964007e-03  6.9379829963427629e-04  1.5668083926771419e-03  7.2763464346636397e-04  1.2209069505083796e-03  6.7537252448808462e-04  1.6783930542242462e-03  1.3931957549126301e-03  1.9573852512855122e-03  1.5565279710013286e-03  1.2474515130397471e-03  8.7539319532419575e-04  1.7412309702206352e-03  9.3963404502919289e-04  1.8829285150039343e-03  1.6546506771553786e-03  9.8831088552510079e-04  3.1474653213965951e-04  7.3094041487144050e-04  1.7535499736469628e-03  1.8757248596955806e-03  2.0961596074062722e-03  2.1599623544109985e-03  2.0140575786803784e-03  1.5651722207964756e-03  4.9562250028753585e-05  7.1937543911283210e-04  5.8737961894570346e-04  1.7753307477942799e-03  1.4422956023876408e-03  1.0858459276580907e-03  8.6178804244573957e-04  7.2297218001758970e-04  6.1882613396803030e-04  8.4555494473477879e-04  1.8062814823534099e-05  4.6618467584200830e-04  1.7472579451987454e-04  5.1989426512554204e-05  5.7532677094048219e-05  4.0343348847035829e-05  6.2244293143913482e-06  9.8595870242165350e-07  2.7222932796307224e-06  4.7289824931610996e-06  5.1746732273142223e-06  4.1862892184399342e-06  2.9422986031170111e-06  1.8541574653428814e-06  8.3842678202649873e-07  6.8158006837754432e-08  7.1217437964460897e-07  1.0816076710687360e-06  1.2431331019562277e-06  1.2479676637287444e-06  1.1430459390778986e-06  9.7983611937650230e-07  8.0144213894406961e-07  6.3582008514479999e-07  4.9713584429913961e-07  3.8864853978978191e-07  3.0563557523090628e-07  2.4116931402539546e-07  1.9324019380416261e-07  1.6251794511715216e-07  1.4435866701088851e-07  1.3073821820075759e-07  1.1758994190412654e-07  1.0492597240176235e-07  9.1980662964033251e-08  7.8515660216972370e-08  6.7289284051907713e-08  5.9250804944401346e-08  5.2476598903566829e-08  4.5997997369639562e-08  3.9999759591248724e-08  3.4763966781610248e-08  3.0850299221424584e-08  2.5932471934407130e-08  2.0220544479291915e-08  1.5687518677546998e-08  1.0080710488123145e-08  1.4510008392962611e-38  -1.8980880949502233e-20  2.0665167654632723e-04  3.0632610163773278e-04  1.2910038560806706e-04  5.6786286452965455e-05  4.8716847434187899e-04  8.7564187217189506e-04  9.5539813555261816e-04  7.6791559055243148e-04  3.6496021792446575e-04  8.4699671908867910e-05  5.3920165714836600e-04  7.4335878790650993e-05  7.7813241850342902e-04  1.4608282573907352e-03  2.7988639051813944e-04  1.1249182552350874e-04  1.1345771345046302e-03  5.7320702002166223e-04  1.3054558668040657e-03  8.8965529186509648e-05  7.7434728541478899e-06  1.3209225404701747e-03  1.0557220219658075e-03  1.6299292992936181e-03  6.8432518132761151e-04  5.8843531963610892e-04  8.7042783343850452e-04  1.5960108441757639e-03  2.7194847631560552e-03  1.2396552984399868e-03  1.2474177039443206e-03  2.4998468333907501e-03  6.2872899868004291e-04  2.2783530401929747e-03  5.1468920820078846e-04  2.5546048409831856e-04  1.9694303465596892e-03  2.0623480730934587e-03  2.1838647976492468e-03  2.3353584472873123e-03  2.3227312048887719e-03  1.9863255159928675e-03  8.9063037964174632e-04  6.0027787367540424e-04  1.4055807319974364e-03  1.1842921029619397e-03  1.3261741840481271e-03  1.9944599856273450e-03  1.3587388970687940e-03  4.6718324071787291e-04  1.3676130157147959e-04  2.5850014252182648e-04  7.9931671898855760e-04  5.3545124241520048e-04  4.0058668519777659e-04  1.3531191542482814e-05  5.7634517667966955e-05  6.5463080234285056e-05  1.6954546472074925e-05  4.1852924952734044e-06  1.2301963655856567e-06  4.3162717819237247e-06  4.7278368227784942e-06  4.0685178164717232e-06  3.4162443415611905e-06  2.5145494209661333e-06  1.3436642488160468e-06  2.9861005221096301e-07  4.4912728816593069e-07  9.6423443336367835e-07  1.2703524233647657e-06  1.3717853699666252e-06  1.3169550164212866e-06  1.1700150092008156e-06  9.8361586731263653e-07  7.9522543054415731e-07  6.2801783143495190e-07  4.9220365847919656e-07  3.8691421048115970e-07  3.0444064873186951e-07  2.3994466713245065e-07  1.9541664676724866e-07  1.6935441002462071e-07  1.5239809655845588e-07  1.3687759762596861e-07  1.2199325042788346e-07  1.0775482162059769e-07  9.2287236339815861e-08  7.7774926031082089e-08  6.7569254585052058e-08  6.0104456100462892e-08  5.3032682011705069e-08  4.6295556236021844e-08  4.0245037207727891e-08  3.5489004813165436e-08  3.1193004692233270e-08  2.5587491536665312e-08  1.9248489337380937e-08  1.2169887152606003e-08  2.1602913752709388e-25  -8.6203866485816993e-21  3.4192915348536785e-04  4.9373061215133261e-04  4.1591753848199177e-04  1.8419515253637625e-04  4.9587217150230808e-04  2.6930374595126298e-04  8.6481559339842578e-05  1.0753227507113413e-03  2.3024694126873174e-04  1.4914076873765989e-03  1.0217561090036882e-03  4.8523274994910373e-04  9.7851222194645228e-04  7.7210535672591360e-04  3.0100534729947962e-04  1.0373403372763998e-03  1.0240668263928332e-03  1.1363206503276996e-03  6.6955041430332449e-04  5.4621771845531346e-04  1.8090746458430515e-03  1.1831586790056617e-03  1.9208248335206473e-03  1.3427040319323334e-03  2.5403084307052534e-03  2.1941305213568235e-03  2.6101585311448811e-03  1.7816419073785233e-03  1.0288929597173277e-03  1.8253486845611554e-03  2.6797268677472845e-03  9.2558059690940120e-04  3.0671134059712690e-03  2.0948559193791536e-03  1.7163365133076093e-03  2.2683809495675349e-04  7.7835754643200070e-04  2.5841963566606927e-03  2.3274543466879453e-03  2.4332904826264877e-03  2.5014703485290064e-03  2.3632862575265665e-03  1.8148742050956024e-03  2.9596119786265808e-04  1.0809728292636136e-03  9.5902218241439709e-04  2.7125624190211146e-03  1.5588513629877260e-03  7.5401131627440539e-04  7.0508853109661318e-04  7.8611230617144849e-04  8.5650076179686209e-04  1.1132749052702980e-03  1.6222075885270594e-04  7.4290596485539228e-04  2.5555108839602343e-04  1.4911539582915717e-04  6.2540285442399068e-06  5.2918956416687483e-05  5.5216316886350371e-06  2.2940732639834572e-06  4.5017584931605550e-06  4.8220458050710277e-06  5.0267744700857543e-06  4.5559392533139043e-06  3.3506921606804079e-06  2.0562318505923255e-06  1.0447624440398496e-06  1.6503273394126550e-07  5.9147720691817840e-07  1.0967534656891198e-06  1.3407682199559213e-06  1.3908958044529059e-06  1.3089846406388954e-06  1.1479877972227080e-06  9.5551363704183456e-07  7.6732687273983776e-07  6.0464418368593985e-07  4.7450587480904875e-07  3.7178981755201491e-07  2.8895578821861072e-07  2.2769012517626925e-07  1.9140872745181537e-07  1.7164535123391411e-07  1.5558215313562667e-07  1.3912572352800675e-07  1.2379448571716307e-07  1.0752062392420291e-07  8.9988961031943363e-08  7.6466261530115066e-08  6.7845745574731997e-08  6.0545295181139017e-08  5.3281050272301315e-08  4.6541659178271552e-08  4.0863736248278118e-08  3.6443593701548929e-08  3.0657003534513324e-08  2.4490486840412686e-08  1.5496090289230730e-08  1.3407982439066717e-38  -1.7667800144569934e-21  1.5529108039336850e-04  3.8639803185669896e-04  3.5793176191926767e-04  3.7463464127820989e-04  5.8260787866379614e-05  4.9840093836254942e-04  8.8947130093937734e-04  1.0156107988417810e-03  1.0753459631662892e-03  3.0446899906833003e-04  4.0029719685803712e-04  1.3335195623819345e-04  5.2012175769760037e-05  1.0481866700597041e-03  1.5958678175391941e-03  4.3717112681991924e-04  2.0757916722818811e-04  6.8152202817333915e-04  1.9670717196690527e-04  1.4352911506334558e-03  2.3535010038360003e-04  5.3984191959114227e-04  8.4934852551565442e-04  6.7007330771810217e-04  1.3431917195237512e-03  1.2263265382685213e-04  2.8300946187953346e-05  1.5430753054183500e-03  2.2525854892218736e-03  3.2976200859691327e-03  1.1015054337115929e-03  2.1407711804170867e-03  3.1053806398628906e-03  1.3499954087423569e-03  3.2175831853399886e-03  7.9682028673751812e-04  6.5811907156724384e-05  2.2778145115096224e-03  2.7899575152744295e-03  2.5751706979040873e-03  2.6723386084071166e-03  2.6550239649087530e-03  2.2746468221260048e-03  9.8411321704796099e-04  1.0302152747461741e-03  1.7997561485422443e-03  1.3217225221482084e-03  2.1480527785244946e-03  2.7205914300003804e-03  1.7596249908683574e-03  8.1058433785451589e-04  1.4353610241861852e-04  4.5194554557619465e-05  1.1047504365530446e-03  5.7730327507338739e-04  6.3605922671117578e-04  2.0283795990077466e-05  1.6724950724785899e-04  5.5508377535221318e-05  2.8118888605927617e-05  2.0496507407837071e-06  2.4188888847034144e-06  5.1810465996176405e-06  6.2211413047107567e-06  5.2135916645943170e-06  3.8817638020246440e-06  2.9552048313483829e-06  2.0285108928732980e-06  9.0385835899105033e-07  6.9079552665543654e-08  7.3186472824611092e-07  1.1479048405086086e-06  1.3581308152675803e-06  1.3869973727859665e-06  1.2854117045970349e-06  1.1131795756242960e-06  9.1934900410697181e-07  7.3705640213623004e-07  5.8313903277442994e-07  4.5871244735029243e-07  3.5572333256892347e-07  2.7350611538732043e-07  2.2098894897252278e-07  1.9540702942163926e-07  1.7943803328650181e-07  1.6153968531511987e-07  1.4275763592863045e-07  1.2368911365281587e-07  1.0217833793995259e-07  8.3952323888885166e-08  7.3749951455875941e-08  6.7073243537383301e-08  6.0027145514636938e-08  5.2781495336322945e-08  4.6128900952721990e-08  4.1084050714857971e-08  3.5557385360982168e-08  2.8349563882175827e-08  1.8627224702631393e-08  1.6530389308438418e-39  -1.8698276188537617e-20  3.1827479259016654e-05  3.1787645197426713e-04  5.3300491500639520e-04  3.9600632383149842e-04  7.4733529380018382e-05  5.0602432470791018e-04  1.7628899859105395e-04  4.1467238494564227e-05  1.1265056808565537e-03  4.9009690578262380e-04  1.4754245965580344e-03  8.9108825158020464e-04  2.8066147689271317e-04  9.9124495244434416e-04  1.0474046574953033e-03  4.7899338228647210e-04  7.0849639370642529e-04  8.5636348761332782e-04  1.0865765924185074e-03  6.3656611943181673e-04  1.2070986685057911e-04  1.3985246049802024e-03  7.8256592257825689e-04  1.7875017291548868e-03  1.3104715247219936e-03  2.6100998516616391e-03  2.1093587461387215e-03  2.4734023643963603e-03  1.4370098116054057e-03  5.7503500373295849e-04  2.6095315020520505e-03  3.0568703492513255e-03  6.4171435057722571e-04  4.0389495796811746e-03  2.0607694149524175e-03  2.6635702782735245e-03  2.7785195115387503e-04  9.6717829575504281e-04  3.2024402342391827e-03  2.9455225384777371e-03  2.8215141180554814e-03  2.8702417807288231e-03  2.7290842360418043e-03  2.0203048382705898e-03  3.7765610293509922e-04  1.5658619768050264e-03  1.2328382978153024e-03  3.2295005992039661e-03  1.2926720342244945e-03  9.6064100685533377e-05  2.1575683115425919e-04  4.2808545087502653e-04  7.0913478428385709e-04  1.1106054620567535e-03  3.4481930618125381e-04  8.9807307727389257e-04  3.7691351014727299e-04  1.6803322236011233e-04  6.9552473293057660e-05  4.3405431427369587e-05  1.1014554641360900e-05  5.2872580130265007e-07  5.0216758287310086e-06  5.7230192266240280e-06  4.9208650838956241e-06  4.4984281505320051e-06  3.9882059816518696e-06  2.8225903873760702e-06  1.5583387364931948e-06  6.0085771884923404e-07  1.8379665809105283e-07  8.2382569183009618e-07  1.2275876448821774e-06  1.3916167565676251e-06  1.3789944777471498e-06  1.2561299689370402e-06  1.0783661948937395e-06  8.8780501637438907e-07  7.1236373388161613e-07  5.6422435758727725e-07  4.3918111568817680e-07  3.3217493489634789e-07  2.5483394551323614e-07  2.1599901737297427e-07  1.9972607534277282e-07  1.8462587334244273e-07  1.6599607037934973e-07  1.4668206092347208e-07  1.2306118615566870e-07  9.8153559601059604e-08  8.2453793684802456e-08  7.4594593993877391e-08  6.7482549122342039e-08  5.9960648232406171e-08  5.2978256702918823e-08  4.6983112943052887e-08  4.1330772647019406e-08  3.3183965227352868e-08  2.1884048579755510e-08  6.4284847310593848e-39  -2.8588022611998032e-35  3.3683819870067506e-04  4.0660682685726083e-04  3.6756824213825094e-04  3.4740625422778669e-04  4.7302257742109919e-04  1.4572382485914922e-04  3.7474594977295397e-04  7.0289565727717251e-04  8.9955379807121478e-04  1.1455766563551030e-03  6.2755556116050003e-04  4.6161694294270583e-04  1.6045130024687439e-04  4.7118276501205516e-05  1.0416315035794983e-03  1.7772144788326168e-03  2.04764