<?xml version="1.0"?>
<VTKFile type="UnstructuredGrid"  version="0.1"  >
<UnstructuredGrid>
<Piece  NumberOfPoints="10201" NumberOfCells="20000">
<Points>
<DataArray  type="Float64"  NumberOfComponents="3"  format="ascii">0 0 0  0.01 0 0  0.02 0 0  0.03 0 0  0.04 0 0  0.05 0 0  0.06 0 0  0.07000000000000001 0 0  0.08 0 0  0.09 0 0  0.1 0 0  0.11 0 0  0.12 0 0  0.13 0 0  0.14 0 0  0.15 0 0  0.16 0 0  0.17 0 0  0.18 0 0  0.19 0 0  0.2 0 0  0.21 0 0  0.22 0 0  0.23 0 0  0.24 0 0  0.25 0 0  0.26 0 0  0.27 0 0  0.28 0 0  0.29 0 0  0.3 0 0  0.31 0 0  0.32 0 0  0.33 0 0  0.34 0 0  0.35 0 0  0.36 0 0  0.37 0 0  0.38 0 0  0.39 0 0  0.4 0 0  0.41 0 0  0.42 0 0  0.43 0 0  0.44 0 0  0.45 0 0  0.46 0 0  0.47 0 0  0.48 0 0  0.49 0 0  0.5 0 0  0.51 0 0  0.52 0 0  0.53 0 0  0.54 0 0  0.55 0 0  0.5600000000000001 0 0  0.57 0 0  0.58 0 0  0.59 0 0  0.6 0 0  0.61 0 0  0.62 0 0  0.63 0 0  0.64 0 0  0.65 0 0  0.66 0 0  0.67 0 0  0.68 0 0  0.6899999999999999 0 0  0.7 0 0  0.71 0 0  0.72 0 0  0.73 0 0  0.74 0 0  0.75 0 0  0.76 0 0  0.77 0 0  0.78 0 0  0.79 0 0  0.8 0 0  0.8100000000000001 0 0  0.82 0 0  0.83 0 0  0.84 0 0  0.85 0 0  0.86 0 0  0.87 0 0  0.88 0 0  0.89 0 0  0.9 0 0  0.91 0 0  0.92 0 0  0.93 0 0  0.9399999999999999 0 0  0.95 0 0  0.96 0 0  0.97 0 0  0.98 0 0  0.99 0 0  1 0 0  0 0.01 0  0.01 0.01 0  0.02 0.01 0  0.03 0.01 0  0.04 0.01 0  0.05 0.01 0  0.06 0.01 0  0.07000000000000001 0.01 0  0.08 0.01 0  0.09 0.01 0  0.1 0.01 0  0.11 0.01 0  0.12 0.01 0  0.13 0.01 0  0.14 0.01 0  0.15 0.01 0  0.16 0.01 0  0.17 0.01 0  0.18 0.01 0  0.19 0.01 0  0.2 0.01 0  0.21 0.01 0  0.22 0.01 0  0.23 0.01 0  0.24 0.01 0  0.25 0.01 0  0.26 0.01 0  0.27 0.01 0  0.28 0.01 0  0.29 0.01 0  0.3 0.01 0  0.31 0.01 0  0.32 0.01 0  0.33 0.01 0  0.34 0.01 0  0.35 0.01 0  0.36 0.01 0  0.37 0.01 0  0.38 0.01 0  0.39 0.01 0  0.4 0.01 0  0.41 0.01 0  0.42 0.01 0  0.43 0.01 0  0.44 0.01 0  0.45 0.01 0  0.46 0.01 0  0.47 0.01 0  0.48 0.01 0  0.49 0.01 0  0.5 0.01 0  0.51 0.01 0  0.52 0.01 0  0.53 0.01 0  0.54 0.01 0  0.55 0.01 0  0.5600000000000001 0.01 0  0.57 0.01 0  0.58 0.01 0  0.59 0.01 0  0.6 0.01 0  0.61 0.01 0  0.62 0.01 0  0.63 0.01 0  0.64 0.01 0  0.65 0.01 0  0.66 0.01 0  0.67 0.01 0  0.68 0.01 0  0.6899999999999999 0.01 0  0.7 0.01 0  0.71 0.01 0  0.72 0.01 0  0.73 0.01 0  0.74 0.01 0  0.75 0.01 0  0.76 0.01 0  0.77 0.01 0  0.78 0.01 0  0.79 0.01 0  0.8 0.01 0  0.8100000000000001 0.01 0  0.82 0.01 0  0.83 0.01 0  0.84 0.01 0  0.85 0.01 0  0.86 0.01 0  0.87 0.01 0  0.88 0.01 0  0.89 0.01 0  0.9 0.01 0  0.91 0.01 0  0.92 0.01 0  0.93 0.01 0  0.9399999999999999 0.01 0  0.95 0.01 0  0.96 0.01 0  0.97 0.01 0  0.98 0.01 0  0.99 0.01 0  1 0.01 0  0 0.02 0  0.01 0.02 0  0.02 0.02 0  0.03 0.02 0  0.04 0.02 0  0.05 0.02 0  0.06 0.02 0  0.07000000000000001 0.02 0  0.08 0.02 0  0.09 0.02 0  0.1 0.02 0  0.11 0.02 0  0.12 0.02 0  0.13 0.02 0  0.14 0.02 0  0.15 0.02 0  0.16 0.02 0  0.17 0.02 0  0.18 0.02 0  0.19 0.02 0  0.2 0.02 0  0.21 0.02 0  0.22 0.02 0  0.23 0.02 0  0.24 0.02 0  0.25 0.02 0  0.26 0.02 0  0.27 0.02 0  0.28 0.02 0  0.29 0.02 0  0.3 0.02 0  0.31 0.02 0  0.32 0.02 0  0.33 0.02 0  0.34 0.02 0  0.35 0.02 0  0.36 0.02 0  0.37 0.02 0  0.38 0.02 0  0.39 0.02 0  0.4 0.02 0  0.41 0.02 0  0.42 0.02 0  0.43 0.02 0  0.44 0.02 0  0.45 0.02 0  0.46 0.02 0  0.47 0.02 0  0.48 0.02 0  0.49 0.02 0  0.5 0.02 0  0.51 0.02 0  0.52 0.02 0  0.53 0.02 0  0.54 0.02 0  0.55 0.02 0  0.5600000000000001 0.02 0  0.57 0.02 0  0.58 0.02 0  0.59 0.02 0  0.6 0.02 0  0.61 0.02 0  0.62 0.02 0  0.63 0.02 0  0.64 0.02 0  0.65 0.02 0  0.66 0.02 0  0.67 0.02 0  0.68 0.02 0  0.6899999999999999 0.02 0  0.7 0.02 0  0.71 0.02 0  0.72 0.02 0  0.73 0.02 0  0.74 0.02 0  0.75 0.02 0  0.76 0.02 0  0.77 0.02 0  0.78 0.02 0  0.79 0.02 0  0.8 0.02 0  0.8100000000000001 0.02 0  0.82 0.02 0  0.83 0.02 0  0.84 0.02 0  0.85 0.02 0  0.86 0.02 0  0.87 0.02 0  0.88 0.02 0  0.89 0.02 0  0.9 0.02 0  0.91 0.02 0  0.92 0.02 0  0.93 0.02 0  0.9399999999999999 0.02 0  0.95 0.02 0  0.96 0.02 0  0.97 0.02 0  0.98 0.02 0  0.99 0.02 0  1 0.02 0  0 0.03 0  0.01 0.03 0  0.02 0.03 0  0.03 0.03 0  0.04 0.03 0  0.05 0.03 0  0.06 0.03 0  0.07000000000000001 0.03 0  0.08 0.03 0  0.09 0.03 0  0.1 0.03 0  0.11 0.03 0  0.12 0.03 0  0.13 0.03 0  0.14 0.03 0  0.15 0.03 0  0.16 0.03 0  0.17 0.03 0  0.18 0.03 0  0.19 0.03 0  0.2 0.03 0  0.21 0.03 0  0.22 0.03 0  0.23 0.03 0  0.24 0.03 0  0.25 0.03 0  0.26 0.03 0  0.27 0.03 0  0.28 0.03 0  0.29 0.03 0  0.3 0.03 0  0.31 0.03 0  0.32 0.03 0  0.33 0.03 0  0.34 0.03 0  0.35 0.03 0  0.36 0.03 0  0.37 0.03 0  0.38 0.03 0  0.39 0.03 0  0.4 0.03 0  0.41 0.03 0  0.42 0.03 0  0.43 0.03 0  0.44 0.03 0  0.45 0.03 0  0.46 0.03 0  0.47 0.03 0  0.48 0.03 0  0.49 0.03 0  0.5 0.03 0  0.51 0.03 0  0.52 0.03 0  0.53 0.03 0  0.54 0.03 0  0.55 0.03 0  0.5600000000000001 0.03 0  0.57 0.03 0  0.58 0.03 0  0.59 0.03 0  0.6 0.03 0  0.61 0.03 0  0.62 0.03 0  0.63 0.03 0  0.64 0.03 0  0.65 0.03 0  0.66 0.03 0  0.67 0.03 0  0.68 0.03 0  0.6899999999999999 0.03 0  0.7 0.03 0  0.71 0.03 0  0.72 0.03 0  0.73 0.03 0  0.74 0.03 0  0.75 0.03 0  0.76 0.03 0  0.77 0.03 0  0.78 0.03 0  0.79 0.03 0  0.8 0.03 0  0.8100000000000001 0.03 0  0.82 0.03 0  0.83 0.03 0  0.84 0.03 0  0.85 0.03 0  0.86 0.03 0  0.87 0.03 0  0.88 0.03 0  0.89 0.03 0  0.9 0.03 0  0.91 0.03 0  0.92 0.03 0  0.93 0.03 0  0.9399999999999999 0.03 0  0.95 0.03 0  0.96 0.03 0  0.97 0.03 0  0.98 0.03 0  0.99 0.03 0  1 0.03 0  0 0.04 0  0.01 0.04 0  0.02 0.04 0  0.03 0.04 0  0.04 0.04 0  0.05 0.04 0  0.06 0.04 0  0.07000000000000001 0.04 0  0.08 0.04 0  0.09 0.04 0  0.1 0.04 0  0.11 0.04 0  0.12 0.04 0  0.13 0.04 0  0.14 0.04 0  0.15 0.04 0  0.16 0.04 0  0.17 0.04 0  0.18 0.04 0  0.19 0.04 0  0.2 0.04 0  0.21 0.04 0  0.22 0.04 0  0.23 0.04 0  0.24 0.04 0  0.25 0.04 0  0.26 0.04 0  0.27 0.04 0  0.28 0.04 0  0.29 0.04 0  0.3 0.04 0  0.31 0.04 0  0.32 0.04 0  0.33 0.04 0  0.34 0.04 0  0.35 0.04 0  0.36 0.04 0  0.37 0.04 0  0.38 0.04 0  0.39 0.04 0  0.4 0.04 0  0.41 0.04 0  0.42 0.04 0  0.43 0.04 0  0.44 0.04 0  0.45 0.04 0  0.46 0.04 0  0.47 0.04 0  0.48 0.04 0  0.49 0.04 0  0.5 0.04 0  0.51 0.04 0  0.52 0.04 0  0.53 0.04 0  0.54 0.04 0  0.55 0.04 0  0.5600000000000001 0.04 0  0.57 0.04 0  0.58 0.04 0  0.59 0.04 0  0.6 0.04 0  0.61 0.04 0  0.62 0.04 0  0.63 0.04 0  0.64 0.04 0  0.65 0.04 0  0.66 0.04 0  0.67 0.04 0  0.68 0.04 0  0.6899999999999999 0.04 0  0.7 0.04 0  0.71 0.04 0  0.72 0.04 0  0.73 0.04 0  0.74 0.04 0  0.75 0.04 0  0.76 0.04 0  0.77 0.04 0  0.78 0.04 0  0.79 0.04 0  0.8 0.04 0  0.8100000000000001 0.04 0  0.82 0.04 0  0.83 0.04 0  0.84 0.04 0  0.85 0.04 0  0.86 0.04 0  0.87 0.04 0  0.88 0.04 0  0.89 0.04 0  0.9 0.04 0  0.91 0.04 0  0.92 0.04 0  0.93 0.04 0  0.9399999999999999 0.04 0  0.95 0.04 0  0.96 0.04 0  0.97 0.04 0  0.98 0.04 0  0.99 0.04 0  1 0.04 0  0 0.05 0  0.01 0.05 0  0.02 0.05 0  0.03 0.05 0  0.04 0.05 0  0.05 0.05 0  0.06 0.05 0  0.07000000000000001 0.05 0  0.08 0.05 0  0.09 0.05 0  0.1 0.05 0  0.11 0.05 0  0.12 0.05 0  0.13 0.05 0  0.14 0.05 0  0.15 0.05 0  0.16 0.05 0  0.17 0.05 0  0.18 0.05 0  0.19 0.05 0  0.2 0.05 0  0.21 0.05 0  0.22 0.05 0  0.23 0.05 0  0.24 0.05 0  0.25 0.05 0  0.26 0.05 0  0.27 0.05 0  0.28 0.05 0  0.29 0.05 0  0.3 0.05 0  0.31 0.05 0  0.32 0.05 0  0.33 0.05 0  0.34 0.05 0  0.35 0.05 0  0.36 0.05 0  0.37 0.05 0  0.38 0.05 0  0.39 0.05 0  0.4 0.05 0  0.41 0.05 0  0.42 0.05 0  0.43 0.05 0  0.44 0.05 0  0.45 0.05 0  0.46 0.05 0  0.47 0.05 0  0.48 0.05 0  0.49 0.05 0  0.5 0.05 0  0.51 0.05 0  0.52 0.05 0  0.53 0.05 0  0.54 0.05 0  0.55 0.05 0  0.5600000000000001 0.05 0  0.57 0.05 0  0.58 0.05 0  0.59 0.05 0  0.6 0.05 0  0.61 0.05 0  0.62 0.05 0  0.63 0.05 0  0.64 0.05 0  0.65 0.05 0  0.66 0.05 0  0.67 0.05 0  0.68 0.05 0  0.6899999999999999 0.05 0  0.7 0.05 0  0.71 0.05 0  0.72 0.05 0  0.73 0.05 0  0.74 0.05 0  0.75 0.05 0  0.76 0.05 0  0.77 0.05 0  0.78 0.05 0  0.79 0.05 0  0.8 0.05 0  0.8100000000000001 0.05 0  0.82 0.05 0  0.83 0.05 0  0.84 0.05 0  0.85 0.05 0  0.86 0.05 0  0.87 0.05 0  0.88 0.05 0  0.89 0.05 0  0.9 0.05 0  0.91 0.05 0  0.92 0.05 0  0.93 0.05 0  0.9399999999999999 0.05 0  0.95 0.05 0  0.96 0.05 0  0.97 0.05 0  0.98 0.05 0  0.99 0.05 0  1 0.05 0  0 0.06 0  0.01 0.06 0  0.02 0.06 0  0.03 0.06 0  0.04 0.06 0  0.05 0.06 0  0.06 0.06 0  0.07000000000000001 0.06 0  0.08 0.06 0  0.09 0.06 0  0.1 0.06 0  0.11 0.06 0  0.12 0.06 0  0.13 0.06 0  0.14 0.06 0  0.15 0.06 0  0.16 0.06 0  0.17 0.06 0  0.18 0.06 0  0.19 0.06 0  0.2 0.06 0  0.21 0.06 0  0.22 0.06 0  0.23 0.06 0  0.24 0.06 0  0.25 0.06 0  0.26 0.06 0  0.27 0.06 0  0.28 0.06 0  0.29 0.06 0  0.3 0.06 0  0.31 0.06 0  0.32 0.06 0  0.33 0.06 0  0.34 0.06 0  0.35 0.06 0  0.36 0.06 0  0.37 0.06 0  0.38 0.06 0  0.39 0.06 0  0.4 0.06 0  0.41 0.06 0  0.42 0.06 0  0.43 0.06 0  0.44 0.06 0  0.45 0.06 0  0.46 0.06 0  0.47 0.06 0  0.48 0.06 0  0.49 0.06 0  0.5 0.06 0  0.51 0.06 0  0.52 0.06 0  0.53 0.06 0  0.54 0.06 0  0.55 0.06 0  0.5600000000000001 0.06 0  0.57 0.06 0  0.58 0.06 0  0.59 0.06 0  0.6 0.06 0  0.61 0.06 0  0.62 0.06 0  0.63 0.06 0  0.64 0.06 0  0.65 0.06 0  0.66 0.06 0  0.67 0.06 0  0.68 0.06 0  0.6899999999999999 0.06 0  0.7 0.06 0  0.71 0.06 0  0.72 0.06 0  0.73 0.06 0  0.74 0.06 0  0.75 0.06 0  0.76 0.06 0  0.77 0.06 0  0.78 0.06 0  0.79 0.06 0  0.8 0.06 0  0.8100000000000001 0.06 0  0.82 0.06 0  0.83 0.06 0  0.84 0.06 0  0.85 0.06 0  0.86 0.06 0  0.87 0.06 0  0.88 0.06 0  0.89 0.06 0  0.9 0.06 0  0.91 0.06 0  0.92 0.06 0  0.93 0.06 0  0.9399999999999999 0.06 0  0.95 0.06 0  0.96 0.06 0  0.97 0.06 0  0.98 0.06 0  0.99 0.06 0  1 0.06 0  0 0.07000000000000001 0  0.01 0.07000000000000001 0  0.02 0.07000000000000001 0  0.03 0.07000000000000001 0  0.04 0.07000000000000001 0  0.05 0.07000000000000001 0  0.06 0.07000000000000001 0  0.07000000000000001 0.07000000000000001 0  0.08 0.07000000000000001 0  0.09 0.07000000000000001 0  0.1 0.07000000000000001 0  0.11 0.07000000000000001 0  0.12 0.07000000000000001 0  0.13 0.07000000000000001 0  0.14 0.07000000000000001 0  0.15 0.07000000000000001 0  0.16 0.07000000000000001 0  0.17 0.0700
[...]
<PointData  Scalars="Indicator Function"> 
<DataArray  type="Float64"  Name="Indicator Function"  format="ascii">-1.8055593228630336e-35  -6.6003033935526333e-20  2.3436090770168698e-20  3.1799020652547627e-19  3.4308296626238464e-19  -3.5210602261367485e-20  -3.0821861811174772e-20  6.5192473428526602e-19  9.2147587744226569e-19  -7.5231638452626401e-36  4.9308820107821139e-18  2.7715702140570075e-18  -4.1072429507712869e-20  -3.6120443995153149e-20  7.7747312815519553e-18  -9.0384450668406642e-21  -5.3784464994981421e-21  2.1516690570978451e-18  -3.5614950244111111e-20  -3.9120451995365728e-35  5.6887096599524743e-18  6.0185310762101120e-36  -3.8572376217613576e-20  1.2889894731947635e-17  -5.2284320954654590e-20  -2.6142160477327307e-20  -1.9641289408009418e-20  -4.5758831761104922e-20  4.1399305991746655e-17  -1.7514430174827630e-20  -8.3469933733613262e-20  -2.9917775409265189e-20  -4.9144919034398890e-20  -1.5693553851322796e-20  2.2461833835542935e-17  -9.5869549630385500e-20  -1.2803809047182808e-19  -1.4547591596860600e-19  -1.5068017422172163e-19  -1.4673191175143115e-19  8.8642703818104275e-18  -8.5169799787718019e-20  -2.5423516586319949e-20  -3.3847933663480095e-20  -2.0293352241104096e-20  -2.2613294293374712e-20  2.8977769985743594e-17  -1.4739673058428503e-20  -8.2166551429220891e-21  -1.5838295225148031e-21  -2.2849006632787192e-20  -1.1424503316393599e-20  -8.3798775867581581e-21  -9.7087624015516934e-21  -8.9004554858088534e-21  -4.9687552084233083e-21  2.7188229490249955e-19  -8.2677787625603465e-22  -1.9167505486303693e-22  -4.5613981274931534e-22  -2.6274529287364866e-22  -6.6507602579855781e-22  -1.2189075392972468e-21  -1.8233994652862324e-21  -1.6698657223499780e-21  -9.5003326684991581e-22  -2.7670617593166267e-21  -2.1012009732712352e-21  1.4863043819164465e-18  9.4039548065783001e-38  -1.1473995309226229e-22  -2.8310591480455939e-22  -5.8609868285871518e-22  -5.4513751231502720e-22  -5.4515212865100444e-22  -2.9629571824713631e-22  -6.3963658404473716e-22  -5.2956058629186089e-22  -4.8771801632372059e-22  -7.3351179097929938e-22  -5.5652429448025101e-22  2.7150733285937883e-20  -3.5006503020789256e-22  0.0000000000000000e+00  4.7019774032891500e-38  -2.1815111912689147e-22  -1.6380574605821655e-22  -4.6680575827183199e-23  -2.9147340305186735e-22  -1.1192430750405103e-22  -1.7868857631758472e-22  -3.8667158333169714e-23  -3.8509052833806830e-22  2.8386951614712641e-19  -2.4602838438339897e-22  -1.0954851955991023e-22  -6.8964466856738106e-23  -5.9902701815025025e-23  -2.2934948819114798e-23  -1.1467474409557414e-23  0.0000000000000000e+00  -3.5519451584675565e-20  5.6082690098514169e-04  2.3338055359202744e-04  1.5469983832207306e-04  3.5316761577518495e-04  2.8074413200261059e-04  4.9392575489383601e-04  3.0827442402376926e-04  7.0118212973311060e-04  5.9062075595844232e-05  2.7115271914495196e-05  4.3735498451100282e-04  7.5194181276454664e-04  3.6392420652227325e-04  4.6872596920697598e-04  2.6864931218945385e-04  2.8497495245402249e-05  7.7904808105070528e-04  1.3404721879790494e-04  6.4158190659279000e-04  2.0779061372030595e-04  3.1836705583657642e-04  2.4301628483500791e-04  5.7335001422425657e-04  2.1639632212142702e-04  9.4187059347480731e-04  7.0765202927189808e-04  9.3097012845236228e-04  3.5883276644670201e-04  6.3102384967168184e-04  8.5151838471599105e-04  1.0779014574793671e-03  6.7571387685726387e-04  5.4745921777325595e-04  8.9803242211099634e-06  8.4405593616753176e-04  1.3050043038825598e-03  1.6540270342113388e-03  1.7936476066847124e-03  1.8175889025659111e-03  1.7344926810654679e-03  1.3848908131726635e-03  8.4183730776241452e-04  4.5798935929839237e-04  3.8075548608724460e-04  8.1472979002613017e-04  6.0354302401383997e-04  5.3105268874801214e-04  2.9603620031916627e-04  7.5357424247515684e-06  2.8531736189664268e-05  4.1161111102882550e-04  1.0529667141877163e-04  9.8310118599151766e-05  1.2574245563585159e-04  9.7465124219339922e-05  7.2259708726779589e-05  4.6033783486620103e-05  2.5884809558781436e-05  1.5558911600720375e-05  9.9821758244322387e-06  1.0127337523654565e-05  8.8940467031966400e-06  1.9020579114723635e-05  2.3337155052280735e-05  1.8413049053596137e-05  3.2872455770510525e-05  3.3410725347422757e-05  2.1146509007308488e-05  9.8966413400211274e-06  1.0235126578617115e-06  2.0669712399632838e-06  4.0664971496991449e-06  8.5249666640498249e-06  6.1033388854779527e-06  6.7689182510726076e-06  7.4793167704108306e-06  7.7830099410202443e-06  5.9904352549997848e-06  8.5243180387708850e-06  8.9516146947195106e-06  9.4629181124544519e-06  6.7850234568513475e-06  2.9136992299731543e-06  3.3969575235970583e-07  2.7836544047634773e-06  2.5380339928595624e-06  1.6818449912059387e-06  2.4364397618792873e-06  4.0324981565515561e-06  6.4379344457539086e-06  1.3931311988859140e-06  1.3192709501988506e-06  6.2775387646093784e-06  1.2986383939761589e-06  3.7827341639384830e-06  8.2083605506762096e-08  1.2423533889512420e-06  4.5793444781490844e-07  4.1315930782210726e-07  1.1467474409557443e-23  -1.2942889503330038e-20  6.3986155568459678e-04  1.6335714087432662e-04  9.5923245631910383e-05  1.0363234308726293e-05  3.4100173672625358e-04  5.3857327056510502e-04  6.5533370938357187e-04  7.7820616233153508e-04  6.2376813159662110e-05  1.9838699666914846e-04  4.8176033188517724e-04  6.5691058576247750e-04  9.9924960691321306e-04  9.3460363113016169e-04  6.2640027112337358e-04  1.2410668037144685e-03  6.4504947934228635e-05  4.9933975615971298e-04  9.8630977069716222e-04  4.7222022205759332e-04  1.6276466476741666e-03  1.0606572622107854e-03  1.7581757964451464e-03  1.0093475145196271e-03  1.2760363475796210e-03  2.9622407502762452e-05  3.3089909349475426e-04  1.7446885873177863e-03  1.2607964655377937e-03  5.1343707957419155e-05  1.7419238168065213e-03  1.2573349212120088e-04  1.1842749448477542e-03  6.7019635915627478e-04  1.1287477712777587e-03  1.6159743558395877e-03  2.1530664501187321e-03  2.4859410861096352e-03  2.5831580148016555e-03  2.5129029332522077e-03  2.3081796459481297e-03  1.7333454223305384e-03  2.5558832975635510e-04  1.0886257632887527e-03  9.3967956929737943e-04  8.9334130735913388e-04  1.2746177522822159e-03  1.0799693916840789e-03  3.6179588316902103e-04  3.7442904952011914e-04  6.5706233080941310e-04  2.2548979700233487e-04  3.0104732704198950e-04  1.2746907621988444e-04  1.3544080472966793e-04  9.5917137482041102e-05  8.2617094375036498e-05  4.6800071108930477e-05  2.7892869807491515e-05  1.9775344860314923e-05  1.1452951948382701e-05  1.3413138062596464e-05  2.0155030494596895e-05  2.3903796049747796e-05  3.9919775177026398e-05  2.2219870408620083e-05  5.5335815779366562e-05  2.7582147712906222e-05  1.8085620335016723e-05  5.7795414208602452e-06  2.3969335339882658e-06  8.9788416149646425e-06  7.2577410007561985e-06  8.3895519231662839e-06  1.4033222687661210e-05  5.7947053871879557e-06  1.5092941676786528e-05  8.5153039074385084e-06  1.1125403735691588e-05  1.3362920625337178e-05  1.0539916105625616e-05  1.4185497292462694e-05  8.6371534340840523e-06  1.3405189743554914e-06  2.6371885815184201e-06  6.2899885353604137e-06  3.8190127231966191e-06  6.0132851594642322e-07  5.7202313329968413e-06  2.8773386526065865e-06  5.7816733082133797e-06  3.1023904401634966e-06  7.2634104145150118e-06  3.0164799824328841e-06  4.4056904009129202e-06  4.4301515652269038e-07  1.3658737346553512e-06  2.3574328152572238e-06  1.7644310750938248e-07  -2.1637037661053947e-22  -2.4015078150771259e-20  2.3315836937717947e-04  4.5454105821609707e-04  7.6151438518211553e-05  5.2677484911236834e-04  7.3997374096476253e-04  6.5689769204857961e-04  8.6795737581963066e-04  2.2353729906780443e-04  1.3413587548015804e-03  5.0520150422241755e-04  2.8291234820700691e-06  1.0603132926843366e-03  1.2534560151926304e-03  2.5623006706258192e-04  1.0367637760742368e-03  2.0664274300855523e-04  3.4518798693106888e-04  1.5441062444751710e-03  8.3018268717428530e-04  1.7670230819754054e-03  4.4806599656767684e-04  1.1459201972488506e-03  3.2659012855028405e-04  1.6884990433089922e-03  1.4515430383577276e-03  2.4857374526548130e-03  2.1014270152521709e-03  2.0113500373395935e-03  7.9081375724732715e-04  2.1622793292874103e-03  1.9633736316366393e-03  2.1337243733194631e-03  2.2374154085621103e-03  1.0088569356629573e-03  2.2847376618023238e-04  1.9800819466995853e-03  2.2337944764465934e-03  2.7312476747892093e-03  2.9489032369537718e-03  2.9885997542021384e-03  2.8101483319947487e-03  2.1343219373284421e-03  1.3376409174777283e-03  1.3777982204661173e-03  7.4712496896998611e-04  2.3628960900821793e-03  1.3887195422762799e-03  8.2540687223652139e-04  4.8146581739806632e-04  1.6469484123216081e-04  2.0297412394394102e-04  1.0429742294756563e-03  4.5351782495537768e-04  2.3949957550473412e-04  1.2079632142180958e-04  8.5985655235020820e-05  8.4790779773262826e-05  7.0443516064217540e-05  4.0319521864444506e-05  2.6327289534157368e-05  1.8289183598865505e-05  1.7186382769938390e-05  1.3562352084353712e-05  3.3537846402356346e-05  3.0284014713937432e-05  2.6872801839886917e-05  7.7401393281961332e-05  4.3003748085400072e-05  1.7494706059584018e-05  8.3256258554709815e-06  1.3312136573159193e-07  1.9629243510799093e-06  8.6461547332102161e-06  1.3722118021835638e-05  7.1641998021076391e-06  1.3885772543468303e-05  8.7085905817596814e-06  1.5627658071835849e-05  8.3027592734161273e-06  1.5963570791124421e-05  1.4820298269882416e-05  1.3828137841856156e-05  1.1402339354933926e-05  4.6404927528740557e-06  4.0531178635367934e-07  8.8576966195832445e-06  7.1355565283658596e-06  3.8713109727481962e-06  4.8200208356110723e-06  5.9639306732883668e-06  1.7104028858253261e-05  4.6663279638175499e-06  1.2223179660892702e-06  1.3358121567728526e-05  2.7417357057758239e-06  5.9039303916487122e-06  2.8334409423002011e-06  3.3426983676661680e-06  1.7419258448657786e-06  -2.4174077251995129e-22  -1.8795456351872854e-20  4.3261718804434794e-04  6.0593606376978942e-04  5.9092347404689940e-06  1.5409401891069977e-04  4.8572891058634504e-04  6.9592466819677439e-04  1.1638948854822125e-03  1.0568630259883073e-03  6.7573293637578156e-04  2.0411151040823758e-04  1.9278044807332697e-05  4.5642385576090253e-04  1.0026259532470076e-03  1.5129981744180050e-03  7.3848971174799967e-04  9.5200309450057358e-04  1.7849683123093779e-03  3.6861460235726261e-04  1.1992779050505459e-03  6.7056969188538447e-04  4.0845077377296994e-04  2.1335530070542880e-03  1.6817240884038176e-03  2.5123770698258704e-03  1.3160090987999994e-03  1.3406207085844414e-03  5.3833110089939232e-04  1.4932082307300878e-03  3.3117078251444806e-03  1.9949252606046158e-03  7.3086654873115789e-04  3.2283233045588811e-03  4.0280560591695978e-04  2.6763473703114004e-03  8.4224651809722728e-04  1.9295191361126381e-03  2.4216131252187980e-03  2.7907395686009315e-03  3.1705502375463193e-03  3.2711898482373201e-03  3.1868345100974377e-03  2.9270789552815666e-03  2.0262733804409807e-03  5.9619231700635189e-04  1.9880911925701352e-03  1.5220028359927691e-03  2.0553093472693443e-03  2.8417569036175067e-03  2.2533444864681058e-03  1.0101207148334734e-03  3.8316060410723696e-04  9.5563263559811709e-04  4.9752477109144282e-04  7.4331438068694564e-04  1.5001110491292923e-04  9.2112662549255898e-05  5.0624887100849784e-05  7.9141466485640162e-05  5.0291948242867816e-05  3.2025252425394226e-05  2.5125494496906175e-05  1.3660938911819278e-05  1.7427998013959131e-05  2.2795494320149928e-05  3.1845664151663486e-05  4.9706618380682714e-05  3.5208900619941199e-05  8.9550155699014047e-05  1.6948388689525066e-05  1.4374380232142511e-05  1.1300665916120872e-07  4.7602054816693327e-06  6.9315806206202588e-06  7.8432747245723395e-06  1.1922589904029986e-05  1.4387156604400856e-05  7.9729545134139427e-06  1.7444634124071796e-05  1.1389655317463590e-05  1.0976826131291085e-05  1.8746501996145722e-05  1.2979881938863950e-05  1.8576656319571779e-05  8.8873578668692727e-06  3.9357480381570325e-06  4.5440827026597721e-06  1.4287209349944900e-05  7.6434888265091334e-06  7.5943181890362607e-07  6.4775974458078987e-06  4.6819589981144908e-06  1.6604068856434323e-05  7.8844639616067006e-06  1.1212044134164416e-05  7.9056456971411896e-06  2.5226279573770676e-06  1.2738771966053694e-06  2.8968249836669529e-06  3.3077396157705479e-06  8.2627395320097519e-22  -2.2812308470020923e-20  3.3858884089021159e-04  5.8739027806324162e-04  9.5225331223062180e-04  1.2806195372303941e-04  5.5028417174252890e-04  7.0954747744019376e-04  6.7690077654887222e-04  1.3141342829400785e-03  4.1050789840051046e-04  1.6812987174342339e-03  9.1542831578169152e-04  3.2464834846545701e-05  1.4005862833245631e-03  1.4498819519043736e-03  3.7340968521490917e-04  1.2786784150359283e-03  9.7456631686683860e-04  1.0578310944105529e-03  1.4984520827088185e-03  9.6049460737988076e-04  2.3164831028186375e-03  1.1333380050900048e-03  2.0713718525688079e-03  1.1968802001342735e-03  2.8001817850587850e-03  2.5316353700443636e-03  3.5973380511955216e-03  2.7861881796700659e-03  2.1315122445339581e-03  1.7096543989916873e-03  3.5797266425652810e-03  2.4497568384435485e-03  3.4980932550389620e-03  3.0732465681011702e-03  1.8378245112562208e-03  3.2147113998001248e-04  3.0047285819875869e-03  2.8730484332139795e-03  3.3118081816311293e-03  3.5370079318547600e-03  3.5646232060106060e-03  3.3382072574412846e-03  2.5408536710955520e-03  1.5578652775280035e-03  2.2364127671379158e-03  1.3534255411819518e-03  3.6586201894625706e-03  1.3582975287476531e-03  8.7503974213875009e-05  1.2524189806100653e-04  8.1571789991757038e-05  4.4614786250017922e-04  1.5771414240122264e-03  5.4876613903202625e-04  5.2665856663282513e-04  9.9409523885178318e-05  4.2925201988340401e-05  5.3253327178246958e-05  7.0180706070239272e-05  3.8986264053477206e-05  2.6748766465970897e-05  2.0402128354921779e-05  1.7278498949932765e-05  1.3109255695321359e-05  3.6702968592504700e-05  3.3222770456658035e-05  3.7200284977720461e-05  1.0446089454730242e-04  5.4334912398750484e-05  3.5047588664381244e-06  1.0046432286767882e-05  4.1761450373533647e-06  4.7788662668282351e-06  8.1259426953827394e-06  1.2201928272966766e-05  9.8373019070626830e-06  1.5965297080599769e-05  7.7051186572078453e-06  1.9988943698760598e-05  9.2521247710484300e-06  1.7388784430114950e-05  1.8452855866870121e-05  1.4539281201769351e-05  1.6869104529858524e-05  3.8401483104335580e-06  3.6885007087542121e-06  1.2061513436729537e-05  1.4382065883227626e-05  8.0725627609690286e-06  5.6993598633565956e-06  3.5614606320222524e-06  2.3539283422123847e-05  1.5707303732469991e-06  1.2327124157169522e-07  2.0158876772385372e-05  5.5447324513265815e-07  8.4321482990021355e-06  1.5106328310152773e-06  2.1105104671220400e-06  -1.1715686571556388e-22  -1.2273261662097192e-20  4.1095001570018837e-04  6.4804972740450950e-04  5.5361957364341043e-04  6.0837266731158645e-04  2.4704082803641382e-04  5.9278992576311616e-04  1.0674547579345138e-03  1.5215990557846664e-03  1.3710208768089465e-03  6.0159385020641188e-04  5.3405782566502073e-04  3.7837557840545338e-04  4.2205589250026229e-04  1.4786859162991975e-03  1.8633676431256459e-03  5.0625203808329618e-04  8.3402621180559224e-04  1.4846285209004679e-03  1.8809965192934062e-04  1.6664367007293828e-03  1.8083397049843163e-04  1.2787037348172900e-04  1.7967301300978247e-03  1.4898222351530895e-03  2.4100985951426399e-03  8.8401681549871776e-04  7.6901027055114495e-04  1.4293659818169170e-03  2.4858374632751846e-03  4.4421609209260842e-03  2.1164410404419759e-03  1.8519548337947815e-03  4.4481148707756673e-03  9.8803331117753830e-04  4.0613501322542588e-03  1.1772638025701776e-03  2.3940044295666469e-03  3.3937869623767701e-03  3.4190722480840867e-03  3.7829580555703577e-03  3.8773714836089737e-03  3.7810616097605321e-03  3.4419340140010557e-03  2.2387950883635934e-03  7.5637835419804724e-04  3.0454127952466974e-03  1.7681905514750184e-03  3.3358317770754865e-03  3.6625174747610392e-03  2.5251572863942400e-03  1.1701632188159997e-03  3.4188956195505465e-04  9.2470025047629311e-04  9.0521017080047808e-04  1.0577845066941473e-03  2.5365850113179435e-04  4.0229362226943004e-05  4.3310899419291678e-06  6.5993931343098471e-05  5.4710981030858345e-05  3.3792690500479505e-05  2.6972469907204045e-05  1.4203371627679216e-05  1.8171005638864304e-05  2.2087979479830743e-05  3.6491772292652254e-05  5.3327085457229163e-05  3.8963062152272620e-05  1.2025152709344194e-04  7.4130620434329328e-06  4.5831269589761072e-06  3.5889067459943217e-06  4.7981224571352554e-06  6.5993455564353895e-06  8.9988918655483691e-06  9.7465009226719092e-06  1.3277273422483290e-05  1.2263267982414104e-05  1.3476669509577867e-05  1.5442549106759861e-05  1.0110449236119192e-05  2.1352871293399956e-05  1.5689801382649193e-05  1.9281095665647900e-05  1.2557822889295177e-05  5.6339943462859509e-06  3.3315936326792054e-06  1.9341625775807810e-05  1.2532241760748695e-05  4.4863276400859502e-06  8.9069291295325935e-06  7.6275053457792521e-06  2.5764565123764729e-05  6.9795332865036658e-06  1.4636692997664682e-05  1.5611872062188900e-05  3.7853921872370209e-06  5.7382794348445422e-06  6.2545989760408483e-07  -3.4719998964986606e-23  -2.0686662855048606e-20  2.2109542659216620e-04  5.2372542294243385e-04  8.6339538288690944e-04  9.0055679061891100e-04  5.9824730675044607e-05  6.9335402045368831e-04  4.6330760163617538e-04  3.9100552229699552e-04  1.7423402538042888e-03  6.4883664009889269e-04  1.6584622300147823e-03  9.0933142345724484e-04  1.4706325753811620e-04  1.5009128465878268e-03  1.7890229886382725e-03  6.6810976793496915e-04  1.1158662611642624e-03  1.1873722312452887e-03  1.3491744186055774e-03  1.3166053979970212e-03  5.2602029117168765e-04  2.1004222065061410e-03  9.4984459641626580e-04  2.3145148451808577e-03  1.4248118133605345e-03  3.1900502935466846e-03  2.7391554182010008e-03  3.7791693561141817e-03  2.6626345435626121e-03  1.7244288203011331e-03  2.7169213085435607e-03  4.3933169723325985e-03  2.4426665642650054e-03  4.9888876832574099e-03  3.4457403740096393e-03  3.1152405110572530e-03  3.9157061807073185e-04  3.8353995531704077e-03  3.7472849359024255e-03  4.0073146852225884e-03  4.2181947830895903e-03  4.2277950704778357e-03  3.9585153196028322e-03  2.9995686207693029e-03  1.6439748429077361e-03  2.8298511537225954e-03  2.1440704724494134e-03  4.5094626608517228e-03  9.2465091908215289e-04  7.6430870885527071e-04  7.9985004693005973e-04  5.3990612471592730e-04  3.9801094715411303e-04  1.8382834867608443e-03  3.8957624612863395e-04  9.0139707254465731e-04  1.0350474021856325e-04  1.5417185016578265e-05  5.2649571228517235e-06  6.4154595398524005e-05  4.1355291093318523e-05  2.9270939231087672e-05  2.3583638999974276e-05  1.7400173640724940e-05  1.2860079784848467e-05  3.7020277851825709e-05  3.8560207303799374e-05  4.2512519459540780e-05  1.2413059786104755e-04  7.6677108532748054e-05  1.5063444925628510e-05  8.0172613500066315e-06  1.1126883355335893e-06  4.3640520286668025e-06  5.0961950370261133e-06  1.1827854014730277e-05  1.0289959239539465e-05  1.0732655920629392e-05  1.0533426301096583e-05  1.5302097315231686e-05  9.9617644096016399e-06  1.5665428489517227e-05  1.9604753382741914e-05  1.3690027937629665e-05  1.8773637370226152e-05  3.0757943724520193e-06  7.0721242894995791e-06  1.1880742508284105e-05  1.9749967432612990e-05  1.0619790492447406e-05  5.1567905587535063e-06  3.1000321003932189e-06  2.4588318542010548e-05  1.0105730724129619e-05  3.5450279201001002e-06  2.5052610485034988e-05  6.2146767385238171e-06  9.9134078054508562e-06  3.0598829609665007e-06  2.1424778494081076e-22  -1.4175936767631472e-20  3.7265778850214528e-04  6.3654049947028154e-04  7.0237161251627904e-04  6.8101235557576441e-04  9.7945280786669478e-04  1.2745619366470623e-04  4.9529678885252290e-04  9.9384256230432223e-04  1.5789614138518638e-03  1.7528820167406675e-03  7.5844591559416934e-04  5.6030439904333101e-04  6.2168127734574816e-04  4.0893838158674307e-04  1.7978130074220193e-03  2.1245606275985926e-03