<?xml version="1.0"?>
<VTKFile type="UnstructuredGrid"  version="0.1"  >
<UnstructuredGrid>
<Piece  NumberOfPoints="10201" NumberOfCells="20000">
<Points>
<DataArray  type="Float64"  NumberOfComponents="3"  format="ascii">0 0 0  0.01 0 0  0.02 0 0  0.03 0 0  0.04 0 0  0.05 0 0  0.06 0 0  0.07000000000000001 0 0  0.08 0 0  0.09 0 0  0.1 0 0  0.11 0 0  0.12 0 0  0.13 0 0  0.14 0 0  0.15 0 0  0.16 0 0  0.17 0 0  0.18 0 0  0.19 0 0  0.2 0 0  0.21 0 0  0.22 0 0  0.23 0 0  0.24 0 0  0.25 0 0  0.26 0 0  0.27 0 0  0.28 0 0  0.29 0 0  0.3 0 0  0.31 0 0  0.32 0 0  0.33 0 0  0.34 0 0  0.35 0 0  0.36 0 0  0.37 0 0  0.38 0 0  0.39 0 0  0.4 0 0  0.41 0 0  0.42 0 0  0.43 0 0  0.44 0 0  0.45 0 0  0.46 0 0  0.47 0 0  0.48 0 0  0.49 0 0  0.5 0 0  0.51 0 0  0.52 0 0  0.53 0 0  0.54 0 0  0.55 0 0  0.5600000000000001 0 0  0.57 0 0  0.58 0 0  0.59 0 0  0.6 0 0  0.61 0 0  0.62 0 0  0.63 0 0  0.64 0 0  0.65 0 0  0.66 0 0  0.67 0 0  0.68 0 0  0.6899999999999999 0 0  0.7 0 0  0.71 0 0  0.72 0 0  0.73 0 0  0.74 0 0  0.75 0 0  0.76 0 0  0.77 0 0  0.78 0 0  0.79 0 0  0.8 0 0  0.8100000000000001 0 0  0.82 0 0  0.83 0 0  0.84 0 0  0.85 0 0  0.86 0 0  0.87 0 0  0.88 0 0  0.89 0 0  0.9 0 0  0.91 0 0  0.92 0 0  0.93 0 0  0.9399999999999999 0 0  0.95 0 0  0.96 0 0  0.97 0 0  0.98 0 0  0.99 0 0  1 0 0  0 0.01 0  0.01 0.01 0  0.02 0.01 0  0.03 0.01 0  0.04 0.01 0  0.05 0.01 0  0.06 0.01 0  0.07000000000000001 0.01 0  0.08 0.01 0  0.09 0.01 0  0.1 0.01 0  0.11 0.01 0  0.12 0.01 0  0.13 0.01 0  0.14 0.01 0  0.15 0.01 0  0.16 0.01 0  0.17 0.01 0  0.18 0.01 0  0.19 0.01 0  0.2 0.01 0  0.21 0.01 0  0.22 0.01 0  0.23 0.01 0  0.24 0.01 0  0.25 0.01 0  0.26 0.01 0  0.27 0.01 0  0.28 0.01 0  0.29 0.01 0  0.3 0.01 0  0.31 0.01 0  0.32 0.01 0  0.33 0.01 0  0.34 0.01 0  0.35 0.01 0  0.36 0.01 0  0.37 0.01 0  0.38 0.01 0  0.39 0.01 0  0.4 0.01 0  0.41 0.01 0  0.42 0.01 0  0.43 0.01 0  0.44 0.01 0  0.45 0.01 0  0.46 0.01 0  0.47 0.01 0  0.48 0.01 0  0.49 0.01 0  0.5 0.01 0  0.51 0.01 0  0.52 0.01 0  0.53 0.01 0  0.54 0.01 0  0.55 0.01 0  0.5600000000000001 0.01 0  0.57 0.01 0  0.58 0.01 0  0.59 0.01 0  0.6 0.01 0  0.61 0.01 0  0.62 0.01 0  0.63 0.01 0  0.64 0.01 0  0.65 0.01 0  0.66 0.01 0  0.67 0.01 0  0.68 0.01 0  0.6899999999999999 0.01 0  0.7 0.01 0  0.71 0.01 0  0.72 0.01 0  0.73 0.01 0  0.74 0.01 0  0.75 0.01 0  0.76 0.01 0  0.77 0.01 0  0.78 0.01 0  0.79 0.01 0  0.8 0.01 0  0.8100000000000001 0.01 0  0.82 0.01 0  0.83 0.01 0  0.84 0.01 0  0.85 0.01 0  0.86 0.01 0  0.87 0.01 0  0.88 0.01 0  0.89 0.01 0  0.9 0.01 0  0.91 0.01 0  0.92 0.01 0  0.93 0.01 0  0.9399999999999999 0.01 0  0.95 0.01 0  0.96 0.01 0  0.97 0.01 0  0.98 0.01 0  0.99 0.01 0  1 0.01 0  0 0.02 0  0.01 0.02 0  0.02 0.02 0  0.03 0.02 0  0.04 0.02 0  0.05 0.02 0  0.06 0.02 0  0.07000000000000001 0.02 0  0.08 0.02 0  0.09 0.02 0  0.1 0.02 0  0.11 0.02 0  0.12 0.02 0  0.13 0.02 0  0.14 0.02 0  0.15 0.02 0  0.16 0.02 0  0.17 0.02 0  0.18 0.02 0  0.19 0.02 0  0.2 0.02 0  0.21 0.02 0  0.22 0.02 0  0.23 0.02 0  0.24 0.02 0  0.25 0.02 0  0.26 0.02 0  0.27 0.02 0  0.28 0.02 0  0.29 0.02 0  0.3 0.02 0  0.31 0.02 0  0.32 0.02 0  0.33 0.02 0  0.34 0.02 0  0.35 0.02 0  0.36 0.02 0  0.37 0.02 0  0.38 0.02 0  0.39 0.02 0  0.4 0.02 0  0.41 0.02 0  0.42 0.02 0  0.43 0.02 0  0.44 0.02 0  0.45 0.02 0  0.46 0.02 0  0.47 0.02 0  0.48 0.02 0  0.49 0.02 0  0.5 0.02 0  0.51 0.02 0  0.52 0.02 0  0.53 0.02 0  0.54 0.02 0  0.55 0.02 0  0.5600000000000001 0.02 0  0.57 0.02 0  0.58 0.02 0  0.59 0.02 0  0.6 0.02 0  0.61 0.02 0  0.62 0.02 0  0.63 0.02 0  0.64 0.02 0  0.65 0.02 0  0.66 0.02 0  0.67 0.02 0  0.68 0.02 0  0.6899999999999999 0.02 0  0.7 0.02 0  0.71 0.02 0  0.72 0.02 0  0.73 0.02 0  0.74 0.02 0  0.75 0.02 0  0.76 0.02 0  0.77 0.02 0  0.78 0.02 0  0.79 0.02 0  0.8 0.02 0  0.8100000000000001 0.02 0  0.82 0.02 0  0.83 0.02 0  0.84 0.02 0  0.85 0.02 0  0.86 0.02 0  0.87 0.02 0  0.88 0.02 0  0.89 0.02 0  0.9 0.02 0  0.91 0.02 0  0.92 0.02 0  0.93 0.02 0  0.9399999999999999 0.02 0  0.95 0.02 0  0.96 0.02 0  0.97 0.02 0  0.98 0.02 0  0.99 0.02 0  1 0.02 0  0 0.03 0  0.01 0.03 0  0.02 0.03 0  0.03 0.03 0  0.04 0.03 0  0.05 0.03 0  0.06 0.03 0  0.07000000000000001 0.03 0  0.08 0.03 0  0.09 0.03 0  0.1 0.03 0  0.11 0.03 0  0.12 0.03 0  0.13 0.03 0  0.14 0.03 0  0.15 0.03 0  0.16 0.03 0  0.17 0.03 0  0.18 0.03 0  0.19 0.03 0  0.2 0.03 0  0.21 0.03 0  0.22 0.03 0  0.23 0.03 0  0.24 0.03 0  0.25 0.03 0  0.26 0.03 0  0.27 0.03 0  0.28 0.03 0  0.29 0.03 0  0.3 0.03 0  0.31 0.03 0  0.32 0.03 0  0.33 0.03 0  0.34 0.03 0  0.35 0.03 0  0.36 0.03 0  0.37 0.03 0  0.38 0.03 0  0.39 0.03 0  0.4 0.03 0  0.41 0.03 0  0.42 0.03 0  0.43 0.03 0  0.44 0.03 0  0.45 0.03 0  0.46 0.03 0  0.47 0.03 0  0.48 0.03 0  0.49 0.03 0  0.5 0.03 0  0.51 0.03 0  0.52 0.03 0  0.53 0.03 0  0.54 0.03 0  0.55 0.03 0  0.5600000000000001 0.03 0  0.57 0.03 0  0.58 0.03 0  0.59 0.03 0  0.6 0.03 0  0.61 0.03 0  0.62 0.03 0  0.63 0.03 0  0.64 0.03 0  0.65 0.03 0  0.66 0.03 0  0.67 0.03 0  0.68 0.03 0  0.6899999999999999 0.03 0  0.7 0.03 0  0.71 0.03 0  0.72 0.03 0  0.73 0.03 0  0.74 0.03 0  0.75 0.03 0  0.76 0.03 0  0.77 0.03 0  0.78 0.03 0  0.79 0.03 0  0.8 0.03 0  0.8100000000000001 0.03 0  0.82 0.03 0  0.83 0.03 0  0.84 0.03 0  0.85 0.03 0  0.86 0.03 0  0.87 0.03 0  0.88 0.03 0  0.89 0.03 0  0.9 0.03 0  0.91 0.03 0  0.92 0.03 0  0.93 0.03 0  0.9399999999999999 0.03 0  0.95 0.03 0  0.96 0.03 0  0.97 0.03 0  0.98 0.03 0  0.99 0.03 0  1 0.03 0  0 0.04 0  0.01 0.04 0  0.02 0.04 0  0.03 0.04 0  0.04 0.04 0  0.05 0.04 0  0.06 0.04 0  0.07000000000000001 0.04 0  0.08 0.04 0  0.09 0.04 0  0.1 0.04 0  0.11 0.04 0  0.12 0.04 0  0.13 0.04 0  0.14 0.04 0  0.15 0.04 0  0.16 0.04 0  0.17 0.04 0  0.18 0.04 0  0.19 0.04 0  0.2 0.04 0  0.21 0.04 0  0.22 0.04 0  0.23 0.04 0  0.24 0.04 0  0.25 0.04 0  0.26 0.04 0  0.27 0.04 0  0.28 0.04 0  0.29 0.04 0  0.3 0.04 0  0.31 0.04 0  0.32 0.04 0  0.33 0.04 0  0.34 0.04 0  0.35 0.04 0  0.36 0.04 0  0.37 0.04 0  0.38 0.04 0  0.39 0.04 0  0.4 0.04 0  0.41 0.04 0  0.42 0.04 0  0.43 0.04 0  0.44 0.04 0  0.45 0.04 0  0.46 0.04 0  0.47 0.04 0  0.48 0.04 0  0.49 0.04 0  0.5 0.04 0  0.51 0.04 0  0.52 0.04 0  0.53 0.04 0  0.54 0.04 0  0.55 0.04 0  0.5600000000000001 0.04 0  0.57 0.04 0  0.58 0.04 0  0.59 0.04 0  0.6 0.04 0  0.61 0.04 0  0.62 0.04 0  0.63 0.04 0  0.64 0.04 0  0.65 0.04 0  0.66 0.04 0  0.67 0.04 0  0.68 0.04 0  0.6899999999999999 0.04 0  0.7 0.04 0  0.71 0.04 0  0.72 0.04 0  0.73 0.04 0  0.74 0.04 0  0.75 0.04 0  0.76 0.04 0  0.77 0.04 0  0.78 0.04 0  0.79 0.04 0  0.8 0.04 0  0.8100000000000001 0.04 0  0.82 0.04 0  0.83 0.04 0  0.84 0.04 0  0.85 0.04 0  0.86 0.04 0  0.87 0.04 0  0.88 0.04 0  0.89 0.04 0  0.9 0.04 0  0.91 0.04 0  0.92 0.04 0  0.93 0.04 0  0.9399999999999999 0.04 0  0.95 0.04 0  0.96 0.04 0  0.97 0.04 0  0.98 0.04 0  0.99 0.04 0  1 0.04 0  0 0.05 0  0.01 0.05 0  0.02 0.05 0  0.03 0.05 0  0.04 0.05 0  0.05 0.05 0  0.06 0.05 0  0.07000000000000001 0.05 0  0.08 0.05 0  0.09 0.05 0  0.1 0.05 0  0.11 0.05 0  0.12 0.05 0  0.13 0.05 0  0.14 0.05 0  0.15 0.05 0  0.16 0.05 0  0.17 0.05 0  0.18 0.05 0  0.19 0.05 0  0.2 0.05 0  0.21 0.05 0  0.22 0.05 0  0.23 0.05 0  0.24 0.05 0  0.25 0.05 0  0.26 0.05 0  0.27 0.05 0  0.28 0.05 0  0.29 0.05 0  0.3 0.05 0  0.31 0.05 0  0.32 0.05 0  0.33 0.05 0  0.34 0.05 0  0.35 0.05 0  0.36 0.05 0  0.37 0.05 0  0.38 0.05 0  0.39 0.05 0  0.4 0.05 0  0.41 0.05 0  0.42 0.05 0  0.43 0.05 0  0.44 0.05 0  0.45 0.05 0  0.46 0.05 0  0.47 0.05 0  0.48 0.05 0  0.49 0.05 0  0.5 0.05 0  0.51 0.05 0  0.52 0.05 0  0.53 0.05 0  0.54 0.05 0  0.55 0.05 0  0.5600000000000001 0.05 0  0.57 0.05 0  0.58 0.05 0  0.59 0.05 0  0.6 0.05 0  0.61 0.05 0  0.62 0.05 0  0.63 0.05 0  0.64 0.05 0  0.65 0.05 0  0.66 0.05 0  0.67 0.05 0  0.68 0.05 0  0.6899999999999999 0.05 0  0.7 0.05 0  0.71 0.05 0  0.72 0.05 0  0.73 0.05 0  0.74 0.05 0  0.75 0.05 0  0.76 0.05 0  0.77 0.05 0  0.78 0.05 0  0.79 0.05 0  0.8 0.05 0  0.8100000000000001 0.05 0  0.82 0.05 0  0.83 0.05 0  0.84 0.05 0  0.85 0.05 0  0.86 0.05 0  0.87 0.05 0  0.88 0.05 0  0.89 0.05 0  0.9 0.05 0  0.91 0.05 0  0.92 0.05 0  0.93 0.05 0  0.9399999999999999 0.05 0  0.95 0.05 0  0.96 0.05 0  0.97 0.05 0  0.98 0.05 0  0.99 0.05 0  1 0.05 0  0 0.06 0  0.01 0.06 0  0.02 0.06 0  0.03 0.06 0  0.04 0.06 0  0.05 0.06 0  0.06 0.06 0  0.07000000000000001 0.06 0  0.08 0.06 0  0.09 0.06 0  0.1 0.06 0  0.11 0.06 0  0.12 0.06 0  0.13 0.06 0  0.14 0.06 0  0.15 0.06 0  0.16 0.06 0  0.17 0.06 0  0.18 0.06 0  0.19 0.06 0  0.2 0.06 0  0.21 0.06 0  0.22 0.06 0  0.23 0.06 0  0.24 0.06 0  0.25 0.06 0  0.26 0.06 0  0.27 0.06 0  0.28 0.06 0  0.29 0.06 0  0.3 0.06 0  0.31 0.06 0  0.32 0.06 0  0.33 0.06 0  0.34 0.06 0  0.35 0.06 0  0.36 0.06 0  0.37 0.06 0  0.38 0.06 0  0.39 0.06 0  0.4 0.06 0  0.41 0.06 0  0.42 0.06 0  0.43 0.06 0  0.44 0.06 0  0.45 0.06 0  0.46 0.06 0  0.47 0.06 0  0.48 0.06 0  0.49 0.06 0  0.5 0.06 0  0.51 0.06 0  0.52 0.06 0  0.53 0.06 0  0.54 0.06 0  0.55 0.06 0  0.5600000000000001 0.06 0  0.57 0.06 0  0.58 0.06 0  0.59 0.06 0  0.6 0.06 0  0.61 0.06 0  0.62 0.06 0  0.63 0.06 0  0.64 0.06 0  0.65 0.06 0  0.66 0.06 0  0.67 0.06 0  0.68 0.06 0  0.6899999999999999 0.06 0  0.7 0.06 0  0.71 0.06 0  0.72 0.06 0  0.73 0.06 0  0.74 0.06 0  0.75 0.06 0  0.76 0.06 0  0.77 0.06 0  0.78 0.06 0  0.79 0.06 0  0.8 0.06 0  0.8100000000000001 0.06 0  0.82 0.06 0  0.83 0.06 0  0.84 0.06 0  0.85 0.06 0  0.86 0.06 0  0.87 0.06 0  0.88 0.06 0  0.89 0.06 0  0.9 0.06 0  0.91 0.06 0  0.92 0.06 0  0.93 0.06 0  0.9399999999999999 0.06 0  0.95 0.06 0  0.96 0.06 0  0.97 0.06 0  0.98 0.06 0  0.99 0.06 0  1 0.06 0  0 0.07000000000000001 0  0.01 0.07000000000000001 0  0.02 0.07000000000000001 0  0.03 0.07000000000000001 0  0.04 0.07000000000000001 0  0.05 0.07000000000000001 0  0.06 0.07000000000000001 0  0.07000000000000001 0.07000000000000001 0  0.08 0.07000000000000001 0  0.09 0.07000000000000001 0  0.1 0.07000000000000001 0  0.11 0.07000000000000001 0  0.12 0.07000000000000001 0  0.13 0.07000000000000001 0  0.14 0.07000000000000001 0  0.15 0.07000000000000001 0  0.16 0.07000000000000001 0  0.17 0.0700
[...]
<PointData  Scalars="Indicator Function"> 
<DataArray  type="Float64"  Name="Indicator Function"  format="ascii">-2.4074124304840448e-35  -6.5881699748573321e-20  2.3807224109471504e-20  3.1628131442319847e-19  3.4291594446795227e-19  -3.5151416800572196e-20  -3.0763575684155076e-20  6.5186429009868006e-19  9.1989870199004649e-19  -7.5231638452626401e-36  4.9223966422080026e-18  2.7534456825360214e-18  -4.0932278685769495e-20  -3.6076926230359962e-20  7.7882205249882753e-18  -9.0331818663344810e-21  -5.2604946593118694e-21  2.1489527519103340e-18  -3.5599338546546018e-20  -4.2129717533470784e-35  5.7023195575106638e-18  0.0000000000000000e+00  -3.8543165059447140e-20  1.2848688009919431e-17  -5.2226938666919731e-20  -2.6113469333459872e-20  -1.9617700751935842e-20  -4.5707349252340283e-20  4.1397083824587316e-17  -1.7500389715610516e-20  -8.3313126016244228e-20  -2.9868426797227910e-20  -4.9065428522362211e-20  -1.5850577664348881e-20  2.2221005526203576e-17  -9.5592738678664196e-20  -1.2774448629797318e-19  -1.4518349540844042e-19  -1.5039976912657245e-19  -1.4647598057975634e-19  8.8743243604161444e-18  -8.4812138639698877e-20  -2.5407886496107198e-20  -3.3816017767326412e-20  -2.0403007242418267e-20  -2.2572167892812221e-20  2.8838576691934104e-17  -1.4753244509760179e-20  -8.2359697224546934e-21  -1.6129608253159801e-21  -2.2887758272065098e-20  -1.1443879136032552e-20  -8.3440676382013869e-21  -9.6979600534222883e-21  -8.8730784603785417e-21  -4.9045498175771531e-21  2.7312110062197513e-19  -7.6718033840725466e-22  -1.6809723769596431e-22  -4.4218304248651603e-22  -2.7188410348084959e-22  -5.1321353706523720e-22  -1.1930385154971485e-21  -1.8733162170154996e-21  -1.5468915946645620e-21  -1.5883501626067936e-21  -2.5840450618471950e-21  -1.9901728161396783e-21  1.2003635720318879e-18  -2.9259006178713168e-23  -1.5326019831922726e-22  -4.0283977899800175e-22  -5.4658610453743520e-22  -5.6878857670096868e-22  -5.8821096590644171e-22  -3.6159736878786997e-22  -6.0104018191417175e-22  -5.1345462163660292e-22  -5.2587533243712762e-22  -7.1015197385874287e-22  -5.5907149446641209e-22  1.0418691860598703e-19  -3.6707214440628214e-22  -8.1269784315286939e-24  -4.0634892157643470e-24  -1.9798691690690274e-22  -1.3533195114426649e-22  -6.7662018728113171e-23  -2.7729465219273549e-22  -1.0757484397402335e-22  -1.7666470765610794e-22  -4.1052012310015967e-23  -4.0084950286240651e-22  2.4038707722556251e-19  -2.5176344488139472e-22  -1.0693695252884061e-22  -5.4234695802183445e-23  -5.1336274704890027e-23  -1.6728630649308241e-23  -8.3643153246541324e-24  2.3509887016445750e-38  -3.5431310720454077e-20  5.5951866490889070e-04  2.3307281925628433e-04  1.5413027810721639e-04  3.5299568450863249e-04  2.8025629046353543e-04  4.9310348518664005e-04  3.0763556935766020e-04  7.0060279991961431e-04  5.9712268371188709e-05  2.6470593519091407e-05  4.3696831216971112e-04  7.5091112359715231e-04  3.6191481834805113e-04  4.6894671693686071e-04  2.6718729631260027e-04  2.9133689792475401e-05  7.7800809047542409e-04  1.3403325446153421e-04  6.4130067125144302e-04  2.0664936629986185e-04  3.1836089215371690e-04  2.4176137363546125e-04  5.7345124837989629e-04  2.1678383915817590e-04  9.4083688607616569e-04  7.0680215837027260e-04  9.2909707920258290e-04  3.5884186464243739e-04  6.3051798881649519e-04  8.4942473354841276e-04  1.0761234863531082e-03  6.7469518662873504e-04  5.4653658912596896e-04  1.2270328088083737e-05  8.4085191919406677e-04  1.3016197295731956e-03  1.6504302187741516e-03  1.7901782339001179e-03  1.8142722598301023e-03  1.7315405563158234e-03  1.3821179528673195e-03  8.3678068746331096e-04  4.5770779262456078e-04  3.8032132375206078e-04  8.1324805528814399e-04  6.0353584537132653e-04  5.3154165181329373e-04  2.9673208138465310e-04  1.0025209380380987e-05  2.9056519087424965e-05  4.1230919850167335e-04  1.0408529661557527e-04  9.8270711316844286e-05  1.2556756147296411e-04  9.7059390654677817e-05  7.1716058370444318e-05  4.5374526445679736e-05  2.5317925149659699e-05  1.5473671738214487e-05  9.8607659461855176e-06  9.4854036259716008e-06  8.9246568515974324e-06  1.9226129881377004e-05  2.4133599926903949e-05  1.5799521673803523e-05  3.3374437109057272e-05  2.9862798956045745e-05  2.0920366734655732e-05  6.9425150693072929e-06  5.2708339729473583e-07  2.4973485895174323e-06  6.0082420195829361e-06  9.0781194858059999e-06  5.7073243454293060e-06  7.7426045747713117e-06  6.4248359827836767e-06  8.0027466662247586e-06  5.2482028375846772e-06  8.7356452934658365e-06  8.4251380126537039e-06  9.1575136365080130e-06  6.9762031913590391e-06  3.1244822953853650e-06  1.4640262814352062e-07  2.5252997021233650e-06  2.3039653697629598e-06  1.2859410140970820e-06  2.2390083025226663e-06  3.8757922178868040e-06  6.3650168925565192e-06  1.4790546187375758e-06  1.7216938064480270e-06  6.3602157836670027e-06  1.5186375037941569e-06  3.7760482743163671e-06  3.8380741085907072e-08  9.7700542322106205e-07  4.3628939891559686e-07  3.0135621903457312e-07  8.3643153246542029e-24  -1.2960382436355143e-20  6.3827375103154074e-04  1.6292401018278815e-04  9.6096617333763992e-05  1.0435622911941325e-05  3.4131484208187835e-04  5.3777984186634926e-04  6.5471505422675345e-04  7.7756388995998136e-04  6.1097566240100193e-05  2.0068451646828642e-04  4.8045605417359517e-04  6.5466940179265576e-04  9.9874112194258020e-04  9.3148592206006894e-04  6.2469831290839183e-04  1.2400093370469011e-03  6.2248354410656399e-05  4.9999648906629208e-04  9.8380170740457510e-04  4.7099747346397730e-04  1.6250505122213487e-03  1.0589353511052224e-03  1.7554627900419287e-03  1.0072319988922794e-03  1.2731523519248908e-03  2.8077605718548211e-05  3.3143332668755235e-04  1.7426806567790525e-03  1.2580832597576276e-03  5.3064258302539221e-05  1.7393412733638371e-03  1.2702304140615236e-04  1.1836460768235792e-03  6.6898255830086435e-04  1.1210309567862935e-03  1.6119330566950745e-03  2.1478557967349377e-03  2.4807151485505591e-03  2.5782736348217341e-03  2.5081970845023680e-03  2.3033307259644475e-03  1.7287247428002790e-03  2.5744866436669552e-04  1.0873135865107351e-03  9.3794841235306865e-04  8.9039294373099639e-04  1.2717053108629816e-03  1.0766601293622001e-03  3.5817285456805692e-04  3.7445181306338917e-04  6.5619078478082254e-04  2.2898341997074239e-04  3.0167107358030715e-04  1.2791954949105771e-04  1.3607624681169942e-04  9.5466032486699824e-05  8.1946165642864189e-05  4.6455880774711257e-05  2.7675214433724078e-05  1.9575831501819904e-05  1.2406853277124984e-05  1.3313048427696950e-05  2.0167803730706760e-05  2.4009405067135179e-05  3.7382493553797565e-05  2.5664495832468620e-05  5.1818916532569197e-05  2.6436655998362059e-05  1.9940625806076135e-05  2.8841215540803022e-06  4.8215313971294442e-06  8.7327375217907589e-06  7.1762141963028247e-06  1.0821338759670586e-05  1.3695053592190234e-05  5.5819436416841461e-06  1.4589016387062179e-05  9.0938527271670226e-06  1.0225533121348319e-05  1.3004733171996735e-05  1.0259902710239178e-05  1.5104336894241760e-05  7.7290248190684533e-06  2.2737247022095953e-06  1.7680513817682824e-06  6.4620586452757331e-06  4.1669289256764478e-06  2.0755221695170498e-06  4.7666214199124443e-06  2.0402392881779220e-06  6.3730285697624249e-06  3.4941983566621302e-06  7.2484661688692110e-06  4.0804136906599490e-06  3.8243837434082480e-06  8.2218702662718829e-07  1.3219684853697880e-06  2.0070510814630015e-06  1.6673055174195284e-07  -1.2233390474536720e-22  -2.3990603615056695e-20  2.3347349404379334e-04  4.5451628777458278e-04  7.5973728522661115e-05  5.2531107646382321e-04  7.3896401117049990e-04  6.5590592215486086e-04  8.6654801700098208e-04  2.2315451958110561e-04  1.3410136380371765e-03  5.0434215115127657e-04  1.9867811233601152e-06  1.0597359602919805e-03  1.2509900984647483e-03  2.5344741874171818e-04  1.0378111152257600e-03  2.0892757564201536e-04  3.4741262168138922e-04  1.5404416000056205e-03  8.2875786414058359e-04  1.7654484576116103e-03  4.4951025076541020e-04  1.1456946982058617e-03  3.2808434214461957e-04  1.6885410406630753e-03  1.4512028453998139e-03  2.4826893035321293e-03  2.0979658819940861e-03  2.0070597209284557e-03  7.9154686183145620e-04  2.1594755960971852e-03  1.9583498703881009e-03  2.1307166856414377e-03  2.2331650771138171e-03  1.0075924650686673e-03  2.2224271222568096e-04  1.9743519793263232e-03  2.2289586784813324e-03  2.7249148335451875e-03  2.9425889546431561e-03  2.9826085875321959e-03  2.8049423009578042e-03  2.1292428807956868e-03  1.3278587347132194e-03  1.3734656200940893e-03  7.4497271232852884e-04  2.3587084219142849e-03  1.3893426853389969e-03  8.2781320808539836e-04  4.8544122734395662e-04  1.7132174916435061e-04  2.0609240089943491e-04  1.0439509180011238e-03  4.4993816337998818e-04  2.4050155286040457e-04  1.2045137027945951e-04  8.5575919865186266e-05  8.4589511387563697e-05  6.9779184717695347e-05  4.0051332826816529e-05  2.6851616845733767e-05  1.8032779911274007e-05  1.6770944193300395e-05  1.4364642779017768e-05  3.3696071997978167e-05  3.2233019800538916e-05  1.9985192811808470e-05  7.6894146109276234e-05  3.4947408628414433e-05  1.8878170072788773e-05  8.9873586669206591e-06  2.5331632934249347e-06  3.8361399631642556e-06  1.0935445026599903e-05  1.3287262640466811e-05  7.6896374177548484e-06  1.6312310174289504e-05  6.5839270108517070e-06  1.6820427542575570e-05  7.8524272451492904e-06  1.6188251770671665e-05  1.4052153806563560e-05  1.3574235050808652e-05  1.2558221084690644e-05  3.6354002275071767e-06  2.1921362264364232e-06  7.5315534484411582e-06  6.9714045886345954e-06  3.7186152704921274e-06  5.2014824893265909e-06  5.2683649644780321e-06  1.6031885881603476e-05  4.4190247566485223e-06  1.6238707048558305e-06  1.3085831518882235e-05  1.9142665734633107e-06  5.6076447800842464e-06  2.6231579144703182e-06  2.6153574649808377e-06  1.5858617879522547e-06  -2.2008253385722579e-22  -1.8797945019319424e-20  4.3217629400465118e-04  6.0479743189811408e-04  6.9886724368000735e-06  1.5395851280884868e-04  4.8512174707835743e-04  6.9574470767384659e-04  1.1628543727862446e-03  1.0558898387005371e-03  6.7494155807404919e-04  2.0293558324616665e-04  2.3706691173989614e-05  4.5321744520763119e-04  9.9997837510256067e-04  1.5129503685853956e-03  7.3335869329939297e-04  9.4757689563821279e-04  1.7818495981385121e-03  3.7010770778059281e-04  1.1998182969446944e-03  6.6751621164225130e-04  4.0615487817899501e-04  2.1289495443430435e-03  1.6781912243756896e-03  2.5072926809461913e-03  1.3118556899582689e-03  1.3361202712372231e-03  5.4036604565081486e-04  1.4926767806475590e-03  3.3071359664946323e-03  1.9899972958402042e-03  7.3271423929003893e-04  3.2233267356612349e-03  4.0453536328276360e-04  2.6740918290828323e-03  8.3981910276667744e-04  1.9155471397864653e-03  2.4174511418505128e-03  2.7843578200309111e-03  3.1632726885147647e-03  3.2641677945072323e-03  3.1799596439929449e-03  2.9203812629471763e-03  2.0202400433780646e-03  6.0051285879504190e-04  1.9832753003716139e-03  1.5202666832071236e-03  2.0500144586370591e-03  2.8360698309672972e-03  2.2495347855135462e-03  1.0063532731840379e-03  3.8178285856023311e-04  9.5213596751782086e-04  5.0236072554319040e-04  7.4411923145180673e-04  1.5137676212437736e-04  9.2348238755788310e-05  4.9210963507075277e-05  7.8429010150674400e-05  5.0260868672521193e-05  3.2154064959217066e-05  2.5530053759159780e-05  1.5259447164396244e-05  1.6725090954918168e-05  2.3328944786765574e-05  3.1571865882649239e-05  4.7940906371930307e-05  4.1852258559121228e-05  8.3056335480317868e-05  1.1713160640610024e-05  1.7947202541814381e-05  6.4929634112199671e-07  6.7128672823014889e-06  7.6773900487364052e-06  8.7949963189803026e-06  1.3940053449201801e-05  1.3577686995626748e-05  1.0167962390502412e-05  1.5840359912654476e-05  1.2509829487337036e-05  1.0946146632337625e-05  1.9428469249518844e-05  1.2719430412564195e-05  1.9596796583927100e-05  8.2304069381570462e-06  5.0063916768589133e-06  3.3977477002891143e-06  1.4019293723791634e-05  7.4929147026033653e-06  8.5659029107775627e-07  5.2949265498298106e-06  3.6645630490212725e-06  1.7011664211442239e-05  8.6348596539802917e-06  1.1255726194264278e-05  8.7721628965332324e-06  1.8055157078724260e-06  1.5772828513437705e-06  2.7171545342043281e-06  2.5891572542809001e-06  6.4677194956752768e-22  -2.2757057338878985e-20  3.3863367273735169e-04  5.8701434866140201e-04  9.5134160647640964e-04  1.2770894249328261e-04  5.4890429650109127e-04  7.0788069237156625e-04  6.7566231382267872e-04  1.3125301679089499e-03  4.1053641230360307e-04  1.6807244107661494e-03  9.1510798772450068e-04  3.3719201992033173e-05  1.3988976571312260e-03  1.4459963125574462e-03  3.7149520927447672e-04  1.2791240270513384e-03  9.7534703793870090e-04  1.0597249425357777e-03  1.4928452932061987e-03  9.5746639091437099e-04  2.3134272352299799e-03  1.1337468238421654e-03  2.0699881801792032e-03  1.1972719801890926e-03  2.7988241563618168e-03  2.5299095809126868e-03  3.5916407982320877e-03  2.7804009123238971e-03  2.1256670626467445e-03  1.7099370048415960e-03  3.5741914871513462e-03  2.4421285365626402e-03  3.4931273957757849e-03  3.0659870789382405e-03  1.8358146713206571e-03  3.1473600926799108e-04  2.9938269467354463e-03  2.8677024268917396e-03  3.3037091171402035e-03  3.5286615093961453e-03  3.5567536188408676e-03  3.3312648222056855e-03  2.5338460533887819e-03  1.5452966083094664e-03  2.2305850925632962e-03  1.3494544038383071e-03  3.6518755400803027e-03  1.3605536943940494e-03  9.2458282290930799e-05  1.1943109283408691e-04  7.1654453594204666e-05  4.5074317232719335e-04  1.5770137052833165e-03  5.4352998859369351e-04  5.2968081946698270e-04  1.0024675185656284e-04  4.2987540384405097e-05  5.3055360698791777e-05  6.9129851273641837e-05  3.8645149424992657e-05  2.7296657349376620e-05  2.0075021764506196e-05  1.8021832068846989e-05  1.4012212046429121e-05  3.6882134148418811e-05  3.5649181706499704e-05  2.7268451624131803e-05  1.0463650420808095e-04  4.3940180459587563e-05  1.2308515196069134e-06  1.3650427811034717e-05  3.7125020701101165e-06  5.9750547047966910e-06  9.5005788970890504e-06  1.2581983844662754e-05  1.0241592177089697e-05  1.6412586150635056e-05  7.1841341555042276e-06  2.0770201017834298e-05  8.5213304646093924e-06  1.7838605677290817e-05  1.9083560482418374e-05  1.4597480150334146e-05  1.8844939337315296e-05  1.9504720023657663e-06  5.4431177271866700e-06  1.1257238336535616e-05  1.4912023161974695e-05  7.3609771267227958e-06  6.6564180537799594e-06  2.3125267322873749e-06  2.1391606717257213e-05  2.0102054083900794e-06  4.9053247087037733e-07  1.9478921330815567e-05  4.0230887565437621e-07  7.3910488675844497e-06  1.5098860519378650e-06  1.6503814738472955e-06  -9.1614575584002815e-23  -1.2205095128930765e-20  4.0995469980569785e-04  6.4742667463805624e-04  5.5247487401962876e-04  6.0867291856663941e-04  2.4673847184747947e-04  5.9168700305777748e-04  1.0665345808757469e-03  1.5200448192301483e-03  1.3696757447134676e-03  6.0103005428688262e-04  5.3353914158544896e-04  3.7377147329646713e-04  4.1842538039832319e-04  1.4759389759343084e-03  1.8625941627597941e-03  5.0050394118355765e-04  8.2788647976622665e-04  1.4809262927156397e-03  1.8836357543944077e-04  1.6652749926770647e-03  1.7866458294545147e-04  1.3014733522155275e-04  1.7914958680508796e-03  1.4854862836993236e-03  2.4040366328252922e-03  8.7888503354053345e-04  7.6408039490313221e-04  1.4305094997920256e-03  2.4838457927715131e-03  4.4347172056726381e-03  2.1099546488698787e-03  1.8527601949424606e-03  4.4398931092102965e-03  9.8975001447470221e-04  4.0559902191988125e-03  1.1738923130684175e-03  2.3764975297331328e-03  3.3875753625754569e-03  3.4115709346661392e-03  3.7733920820662990e-03  3.8680437510057327e-03  3.7721324594790456e-03  3.4337434946613335e-03  2.2311822068120887e-03  7.6221321328065776e-04  3.0366389898524096e-03  1.7661527463593348e-03  3.3272225821718436e-03  3.6571786106287044e-03  2.5217173158529854e-03  1.1686969929620942e-03  3.3659179018164176e-04  9.1886720049010626e-04  9.1088673969560389e-04  1.0570172194730677e-03  2.5651089603101750e-04  4.0616073468125550e-05  3.0753308003108123e-06  6.6012686037202406e-05  5.4653816152141705e-05  3.3577007970735468e-05  2.7025273867194401e-05  1.4788085082255836e-05  1.7333339547680623e-05  2.3052049680878354e-05  3.5751183979860030e-05  5.3768915194698275e-05  5.0040230875464670e-05  1.1096726642441939e-04  4.4431034040382778e-07  4.7265169323458135e-06  7.8099389580636897e-06  5.3095126223249718e-06  8.4862095938403284e-06  8.6776450097484763e-06  1.1050394505568766e-05  1.3446395621537122e-05  1.2082169158685468e-05  1.2124009550665712e-05  1.6107367832922104e-05  9.2106815666473839e-06  2.2013948965431305e-05  1.5940887559187180e-05  2.0118712516475829e-05  1.3443822007910387e-05  8.0451227603191017e-06  1.7854149024398006e-06  1.9051236673386284e-05  1.3271422116933618e-05  2.7737768969907449e-06  8.2227480470450854e-06  7.3291350787600793e-06  2.5348445502276141e-05  7.4513466466833152e-06  1.4022881518738556e-05  1.5659309744704407e-05  3.1121063793235587e-06  5.1709688891002856e-06  7.8042205061923193e-07  -4.3322126476131941e-23  -2.0657760845965327e-20  2.1986744749869636e-04  5.2270749571922822e-04  8.6212534480004425e-04  8.9940303581513017e-04  5.9676489805303463e-05  6.9173722749035652e-04  4.6175733197654985e-04  3.8984255252954821e-04  1.7401807069842062e-03  6.4881149199733361e-04  1.6572874623666037e-03  9.0869528427777358e-04  1.4368368323942294e-04  1.4973446997769548e-03  1.7844281122575895e-03  6.6681253721461884e-04  1.1152406205264317e-03  1.1859836683204034e-03  1.3498392039140680e-03  1.3113872203437049e-03  5.2294387952763605e-04  2.0968059141437565e-03  9.4980357168379268e-04  2.3120948027722308e-03  1.4241841454332546e-03  3.1875091850922838e-03  2.7358974700942671e-03  3.7717639909840214e-03  2.6553966916506673e-03  1.7180652277754443e-03  2.7159583162144323e-03  4.3852816929004770e-03  2.4330540506502969e-03  4.9808204697886866e-03  3.4361955831922223e-03  3.1111870235285177e-03  3.8417694543031055e-04  3.8187617981042653e-03  3.7410203776327019e-03  3.9973303416915313e-03  4.2071792035316960e-03  4.2173823482222050e-03  3.9493117093114816e-03  2.9906280190679741e-03  1.6295030677728277e-03  2.8240526324066154e-03  2.1360188336018537e-03  4.5012435210913500e-03  9.2828259559322188e-04  7.5857477016701234e-04  7.9391234657049303e-04  5.3117883463635242e-04  4.0176598097820855e-04  1.8360574206647774e-03  3.8287440312235587e-04  9.0394842113442867e-04  1.0504828866730324e-04  1.5776972567335202e-05  4.5179053825746236e-06  6.3795951295849814e-05  4.2202254261555787e-05  3.0536198059173554e-05  2.3559489150233155e-05  1.8516310622862576e-05  1.3533366213001471e-05  3.8197675510874892e-05  4.0324209773126653e-05  3.3713221114452737e-05  1.2644958220870233e-04  6.2333699357227526e-05  1.8790871619355980e-05  8.7176096620967564e-06  2.4886288209634323e-06  4.1719184308923161e-06  7.4804275435711323e-06  1.2800850552925547e-05  8.7367268251949098e-06  1.1756045054346483e-05  9.2626521004571612e-06  1.5175602249706961e-05  9.8383515516019057e-06  1.4998889507989732e-05  1.9231423964715049e-05  1.3707780758840292e-05  1.9707684267840228e-05  3.0511048220331408e-06  9.7073806729545221e-06  1.0789091550102141e-05  2.0189981367317158e-05  1.0136781879734410e-05  5.5821823460944152e-06  2.4522987518635616e-06  2.2880056147611925e-05  1.0215031861275033e-05  3.5508745325942983e-06  2.4076756963672548e-05  6.4926780099010498e-06  8.5110853561771624e-06  2.5569424306211576e-06  1.9244082879547736e-22  -1.4085131513548266e-20  3.7213713619279438e-04  6.3529640798054901e-04  7.0134128526797338e-04  6.7914205160124995e-04  9.7899266504688901e-04  1.2702810217159028e-04  4.9379251305212515e-04  9.9270267599467737e-04  1.5769989470373689e-03  1.7511859965285473e-03  7.5803805400998078e-04  5.5987922296640662e-04  6.1796891733976610e-04  4.0709950736823874e-04  1.7938363176822948e-03  2.1225204978026989e