<?xml version="1.0"?>
<VTKFile type="UnstructuredGrid"  version="0.1"  >
<UnstructuredGrid>
<Piece  NumberOfPoints="10201" NumberOfCells="20000">
<Points>
<DataArray  type="Float64"  NumberOfComponents="3"  format="ascii">0 0 0  0.01 0 0  0.02 0 0  0.03 0 0  0.04 0 0  0.05 0 0  0.06 0 0  0.07000000000000001 0 0  0.08 0 0  0.09 0 0  0.1 0 0  0.11 0 0  0.12 0 0  0.13 0 0  0.14 0 0  0.15 0 0  0.16 0 0  0.17 0 0  0.18 0 0  0.19 0 0  0.2 0 0  0.21 0 0  0.22 0 0  0.23 0 0  0.24 0 0  0.25 0 0  0.26 0 0  0.27 0 0  0.28 0 0  0.29 0 0  0.3 0 0  0.31 0 0  0.32 0 0  0.33 0 0  0.34 0 0  0.35 0 0  0.36 0 0  0.37 0 0  0.38 0 0  0.39 0 0  0.4 0 0  0.41 0 0  0.42 0 0  0.43 0 0  0.44 0 0  0.45 0 0  0.46 0 0  0.47 0 0  0.48 0 0  0.49 0 0  0.5 0 0  0.51 0 0  0.52 0 0  0.53 0 0  0.54 0 0  0.55 0 0  0.5600000000000001 0 0  0.57 0 0  0.58 0 0  0.59 0 0  0.6 0 0  0.61 0 0  0.62 0 0  0.63 0 0  0.64 0 0  0.65 0 0  0.66 0 0  0.67 0 0  0.68 0 0  0.6899999999999999 0 0  0.7 0 0  0.71 0 0  0.72 0 0  0.73 0 0  0.74 0 0  0.75 0 0  0.76 0 0  0.77 0 0  0.78 0 0  0.79 0 0  0.8 0 0  0.8100000000000001 0 0  0.82 0 0  0.83 0 0  0.84 0 0  0.85 0 0  0.86 0 0  0.87 0 0  0.88 0 0  0.89 0 0  0.9 0 0  0.91 0 0  0.92 0 0  0.93 0 0  0.9399999999999999 0 0  0.95 0 0  0.96 0 0  0.97 0 0  0.98 0 0  0.99 0 0  1 0 0  0 0.01 0  0.01 0.01 0  0.02 0.01 0  0.03 0.01 0  0.04 0.01 0  0.05 0.01 0  0.06 0.01 0  0.07000000000000001 0.01 0  0.08 0.01 0  0.09 0.01 0  0.1 0.01 0  0.11 0.01 0  0.12 0.01 0  0.13 0.01 0  0.14 0.01 0  0.15 0.01 0  0.16 0.01 0  0.17 0.01 0  0.18 0.01 0  0.19 0.01 0  0.2 0.01 0  0.21 0.01 0  0.22 0.01 0  0.23 0.01 0  0.24 0.01 0  0.25 0.01 0  0.26 0.01 0  0.27 0.01 0  0.28 0.01 0  0.29 0.01 0  0.3 0.01 0  0.31 0.01 0  0.32 0.01 0  0.33 0.01 0  0.34 0.01 0  0.35 0.01 0  0.36 0.01 0  0.37 0.01 0  0.38 0.01 0  0.39 0.01 0  0.4 0.01 0  0.41 0.01 0  0.42 0.01 0  0.43 0.01 0  0.44 0.01 0  0.45 0.01 0  0.46 0.01 0  0.47 0.01 0  0.48 0.01 0  0.49 0.01 0  0.5 0.01 0  0.51 0.01 0  0.52 0.01 0  0.53 0.01 0  0.54 0.01 0  0.55 0.01 0  0.5600000000000001 0.01 0  0.57 0.01 0  0.58 0.01 0  0.59 0.01 0  0.6 0.01 0  0.61 0.01 0  0.62 0.01 0  0.63 0.01 0  0.64 0.01 0  0.65 0.01 0  0.66 0.01 0  0.67 0.01 0  0.68 0.01 0  0.6899999999999999 0.01 0  0.7 0.01 0  0.71 0.01 0  0.72 0.01 0  0.73 0.01 0  0.74 0.01 0  0.75 0.01 0  0.76 0.01 0  0.77 0.01 0  0.78 0.01 0  0.79 0.01 0  0.8 0.01 0  0.8100000000000001 0.01 0  0.82 0.01 0  0.83 0.01 0  0.84 0.01 0  0.85 0.01 0  0.86 0.01 0  0.87 0.01 0  0.88 0.01 0  0.89 0.01 0  0.9 0.01 0  0.91 0.01 0  0.92 0.01 0  0.93 0.01 0  0.9399999999999999 0.01 0  0.95 0.01 0  0.96 0.01 0  0.97 0.01 0  0.98 0.01 0  0.99 0.01 0  1 0.01 0  0 0.02 0  0.01 0.02 0  0.02 0.02 0  0.03 0.02 0  0.04 0.02 0  0.05 0.02 0  0.06 0.02 0  0.07000000000000001 0.02 0  0.08 0.02 0  0.09 0.02 0  0.1 0.02 0  0.11 0.02 0  0.12 0.02 0  0.13 0.02 0  0.14 0.02 0  0.15 0.02 0  0.16 0.02 0  0.17 0.02 0  0.18 0.02 0  0.19 0.02 0  0.2 0.02 0  0.21 0.02 0  0.22 0.02 0  0.23 0.02 0  0.24 0.02 0  0.25 0.02 0  0.26 0.02 0  0.27 0.02 0  0.28 0.02 0  0.29 0.02 0  0.3 0.02 0  0.31 0.02 0  0.32 0.02 0  0.33 0.02 0  0.34 0.02 0  0.35 0.02 0  0.36 0.02 0  0.37 0.02 0  0.38 0.02 0  0.39 0.02 0  0.4 0.02 0  0.41 0.02 0  0.42 0.02 0  0.43 0.02 0  0.44 0.02 0  0.45 0.02 0  0.46 0.02 0  0.47 0.02 0  0.48 0.02 0  0.49 0.02 0  0.5 0.02 0  0.51 0.02 0  0.52 0.02 0  0.53 0.02 0  0.54 0.02 0  0.55 0.02 0  0.5600000000000001 0.02 0  0.57 0.02 0  0.58 0.02 0  0.59 0.02 0  0.6 0.02 0  0.61 0.02 0  0.62 0.02 0  0.63 0.02 0  0.64 0.02 0  0.65 0.02 0  0.66 0.02 0  0.67 0.02 0  0.68 0.02 0  0.6899999999999999 0.02 0  0.7 0.02 0  0.71 0.02 0  0.72 0.02 0  0.73 0.02 0  0.74 0.02 0  0.75 0.02 0  0.76 0.02 0  0.77 0.02 0  0.78 0.02 0  0.79 0.02 0  0.8 0.02 0  0.8100000000000001 0.02 0  0.82 0.02 0  0.83 0.02 0  0.84 0.02 0  0.85 0.02 0  0.86 0.02 0  0.87 0.02 0  0.88 0.02 0  0.89 0.02 0  0.9 0.02 0  0.91 0.02 0  0.92 0.02 0  0.93 0.02 0  0.9399999999999999 0.02 0  0.95 0.02 0  0.96 0.02 0  0.97 0.02 0  0.98 0.02 0  0.99 0.02 0  1 0.02 0  0 0.03 0  0.01 0.03 0  0.02 0.03 0  0.03 0.03 0  0.04 0.03 0  0.05 0.03 0  0.06 0.03 0  0.07000000000000001 0.03 0  0.08 0.03 0  0.09 0.03 0  0.1 0.03 0  0.11 0.03 0  0.12 0.03 0  0.13 0.03 0  0.14 0.03 0  0.15 0.03 0  0.16 0.03 0  0.17 0.03 0  0.18 0.03 0  0.19 0.03 0  0.2 0.03 0  0.21 0.03 0  0.22 0.03 0  0.23 0.03 0  0.24 0.03 0  0.25 0.03 0  0.26 0.03 0  0.27 0.03 0  0.28 0.03 0  0.29 0.03 0  0.3 0.03 0  0.31 0.03 0  0.32 0.03 0  0.33 0.03 0  0.34 0.03 0  0.35 0.03 0  0.36 0.03 0  0.37 0.03 0  0.38 0.03 0  0.39 0.03 0  0.4 0.03 0  0.41 0.03 0  0.42 0.03 0  0.43 0.03 0  0.44 0.03 0  0.45 0.03 0  0.46 0.03 0  0.47 0.03 0  0.48 0.03 0  0.49 0.03 0  0.5 0.03 0  0.51 0.03 0  0.52 0.03 0  0.53 0.03 0  0.54 0.03 0  0.55 0.03 0  0.5600000000000001 0.03 0  0.57 0.03 0  0.58 0.03 0  0.59 0.03 0  0.6 0.03 0  0.61 0.03 0  0.62 0.03 0  0.63 0.03 0  0.64 0.03 0  0.65 0.03 0  0.66 0.03 0  0.67 0.03 0  0.68 0.03 0  0.6899999999999999 0.03 0  0.7 0.03 0  0.71 0.03 0  0.72 0.03 0  0.73 0.03 0  0.74 0.03 0  0.75 0.03 0  0.76 0.03 0  0.77 0.03 0  0.78 0.03 0  0.79 0.03 0  0.8 0.03 0  0.8100000000000001 0.03 0  0.82 0.03 0  0.83 0.03 0  0.84 0.03 0  0.85 0.03 0  0.86 0.03 0  0.87 0.03 0  0.88 0.03 0  0.89 0.03 0  0.9 0.03 0  0.91 0.03 0  0.92 0.03 0  0.93 0.03 0  0.9399999999999999 0.03 0  0.95 0.03 0  0.96 0.03 0  0.97 0.03 0  0.98 0.03 0  0.99 0.03 0  1 0.03 0  0 0.04 0  0.01 0.04 0  0.02 0.04 0  0.03 0.04 0  0.04 0.04 0  0.05 0.04 0  0.06 0.04 0  0.07000000000000001 0.04 0  0.08 0.04 0  0.09 0.04 0  0.1 0.04 0  0.11 0.04 0  0.12 0.04 0  0.13 0.04 0  0.14 0.04 0  0.15 0.04 0  0.16 0.04 0  0.17 0.04 0  0.18 0.04 0  0.19 0.04 0  0.2 0.04 0  0.21 0.04 0  0.22 0.04 0  0.23 0.04 0  0.24 0.04 0  0.25 0.04 0  0.26 0.04 0  0.27 0.04 0  0.28 0.04 0  0.29 0.04 0  0.3 0.04 0  0.31 0.04 0  0.32 0.04 0  0.33 0.04 0  0.34 0.04 0  0.35 0.04 0  0.36 0.04 0  0.37 0.04 0  0.38 0.04 0  0.39 0.04 0  0.4 0.04 0  0.41 0.04 0  0.42 0.04 0  0.43 0.04 0  0.44 0.04 0  0.45 0.04 0  0.46 0.04 0  0.47 0.04 0  0.48 0.04 0  0.49 0.04 0  0.5 0.04 0  0.51 0.04 0  0.52 0.04 0  0.53 0.04 0  0.54 0.04 0  0.55 0.04 0  0.5600000000000001 0.04 0  0.57 0.04 0  0.58 0.04 0  0.59 0.04 0  0.6 0.04 0  0.61 0.04 0  0.62 0.04 0  0.63 0.04 0  0.64 0.04 0  0.65 0.04 0  0.66 0.04 0  0.67 0.04 0  0.68 0.04 0  0.6899999999999999 0.04 0  0.7 0.04 0  0.71 0.04 0  0.72 0.04 0  0.73 0.04 0  0.74 0.04 0  0.75 0.04 0  0.76 0.04 0  0.77 0.04 0  0.78 0.04 0  0.79 0.04 0  0.8 0.04 0  0.8100000000000001 0.04 0  0.82 0.04 0  0.83 0.04 0  0.84 0.04 0  0.85 0.04 0  0.86 0.04 0  0.87 0.04 0  0.88 0.04 0  0.89 0.04 0  0.9 0.04 0  0.91 0.04 0  0.92 0.04 0  0.93 0.04 0  0.9399999999999999 0.04 0  0.95 0.04 0  0.96 0.04 0  0.97 0.04 0  0.98 0.04 0  0.99 0.04 0  1 0.04 0  0 0.05 0  0.01 0.05 0  0.02 0.05 0  0.03 0.05 0  0.04 0.05 0  0.05 0.05 0  0.06 0.05 0  0.07000000000000001 0.05 0  0.08 0.05 0  0.09 0.05 0  0.1 0.05 0  0.11 0.05 0  0.12 0.05 0  0.13 0.05 0  0.14 0.05 0  0.15 0.05 0  0.16 0.05 0  0.17 0.05 0  0.18 0.05 0  0.19 0.05 0  0.2 0.05 0  0.21 0.05 0  0.22 0.05 0  0.23 0.05 0  0.24 0.05 0  0.25 0.05 0  0.26 0.05 0  0.27 0.05 0  0.28 0.05 0  0.29 0.05 0  0.3 0.05 0  0.31 0.05 0  0.32 0.05 0  0.33 0.05 0  0.34 0.05 0  0.35 0.05 0  0.36 0.05 0  0.37 0.05 0  0.38 0.05 0  0.39 0.05 0  0.4 0.05 0  0.41 0.05 0  0.42 0.05 0  0.43 0.05 0  0.44 0.05 0  0.45 0.05 0  0.46 0.05 0  0.47 0.05 0  0.48 0.05 0  0.49 0.05 0  0.5 0.05 0  0.51 0.05 0  0.52 0.05 0  0.53 0.05 0  0.54 0.05 0  0.55 0.05 0  0.5600000000000001 0.05 0  0.57 0.05 0  0.58 0.05 0  0.59 0.05 0  0.6 0.05 0  0.61 0.05 0  0.62 0.05 0  0.63 0.05 0  0.64 0.05 0  0.65 0.05 0  0.66 0.05 0  0.67 0.05 0  0.68 0.05 0  0.6899999999999999 0.05 0  0.7 0.05 0  0.71 0.05 0  0.72 0.05 0  0.73 0.05 0  0.74 0.05 0  0.75 0.05 0  0.76 0.05 0  0.77 0.05 0  0.78 0.05 0  0.79 0.05 0  0.8 0.05 0  0.8100000000000001 0.05 0  0.82 0.05 0  0.83 0.05 0  0.84 0.05 0  0.85 0.05 0  0.86 0.05 0  0.87 0.05 0  0.88 0.05 0  0.89 0.05 0  0.9 0.05 0  0.91 0.05 0  0.92 0.05 0  0.93 0.05 0  0.9399999999999999 0.05 0  0.95 0.05 0  0.96 0.05 0  0.97 0.05 0  0.98 0.05 0  0.99 0.05 0  1 0.05 0  0 0.06 0  0.01 0.06 0  0.02 0.06 0  0.03 0.06 0  0.04 0.06 0  0.05 0.06 0  0.06 0.06 0  0.07000000000000001 0.06 0  0.08 0.06 0  0.09 0.06 0  0.1 0.06 0  0.11 0.06 0  0.12 0.06 0  0.13 0.06 0  0.14 0.06 0  0.15 0.06 0  0.16 0.06 0  0.17 0.06 0  0.18 0.06 0  0.19 0.06 0  0.2 0.06 0  0.21 0.06 0  0.22 0.06 0  0.23 0.06 0  0.24 0.06 0  0.25 0.06 0  0.26 0.06 0  0.27 0.06 0  0.28 0.06 0  0.29 0.06 0  0.3 0.06 0  0.31 0.06 0  0.32 0.06 0  0.33 0.06 0  0.34 0.06 0  0.35 0.06 0  0.36 0.06 0  0.37 0.06 0  0.38 0.06 0  0.39 0.06 0  0.4 0.06 0  0.41 0.06 0  0.42 0.06 0  0.43 0.06 0  0.44 0.06 0  0.45 0.06 0  0.46 0.06 0  0.47 0.06 0  0.48 0.06 0  0.49 0.06 0  0.5 0.06 0  0.51 0.06 0  0.52 0.06 0  0.53 0.06 0  0.54 0.06 0  0.55 0.06 0  0.5600000000000001 0.06 0  0.57 0.06 0  0.58 0.06 0  0.59 0.06 0  0.6 0.06 0  0.61 0.06 0  0.62 0.06 0  0.63 0.06 0  0.64 0.06 0  0.65 0.06 0  0.66 0.06 0  0.67 0.06 0  0.68 0.06 0  0.6899999999999999 0.06 0  0.7 0.06 0  0.71 0.06 0  0.72 0.06 0  0.73 0.06 0  0.74 0.06 0  0.75 0.06 0  0.76 0.06 0  0.77 0.06 0  0.78 0.06 0  0.79 0.06 0  0.8 0.06 0  0.8100000000000001 0.06 0  0.82 0.06 0  0.83 0.06 0  0.84 0.06 0  0.85 0.06 0  0.86 0.06 0  0.87 0.06 0  0.88 0.06 0  0.89 0.06 0  0.9 0.06 0  0.91 0.06 0  0.92 0.06 0  0.93 0.06 0  0.9399999999999999 0.06 0  0.95 0.06 0  0.96 0.06 0  0.97 0.06 0  0.98 0.06 0  0.99 0.06 0  1 0.06 0  0 0.07000000000000001 0  0.01 0.07000000000000001 0  0.02 0.07000000000000001 0  0.03 0.07000000000000001 0  0.04 0.07000000000000001 0  0.05 0.07000000000000001 0  0.06 0.07000000000000001 0  0.07000000000000001 0.07000000000000001 0  0.08 0.07000000000000001 0  0.09 0.07000000000000001 0  0.1 0.07000000000000001 0  0.11 0.07000000000000001 0  0.12 0.07000000000000001 0  0.13 0.07000000000000001 0  0.14 0.07000000000000001 0  0.15 0.07000000000000001 0  0.16 0.07000000000000001 0  0.17 0.0700
[...]
<PointData  Scalars="u"> 
<DataArray  type="Float64"  Name="u"  format="ascii">0.0000000000000000e+00  0.0000000000000000e+00  0.0000000000000000e+00  0.0000000000000000e+00  0.0000000000000000e+00  0.0000000000000000e+00  0.0000000000000000e+00  0.0000000000000000e+00  0.0000000000000000e+00  0.0000000000000000e+00  0.0000000000000000e+00  0.0000000000000000e+00  0.0000000000000000e+00  0.0000000000000000e+00  0.0000000000000000e+00  0.0000000000000000e+00  0.0000000000000000e+00  0.0000000000000000e+00  0.0000000000000000e+00  0.0000000000000000e+00  0.0000000000000000e+00  0.0000000000000000e+00  0.0000000000000000e+00  0.0000000000000000e+00  0.0000000000000000e+00  0.0000000000000000e+00  0.0000000000000000e+00  0.0000000000000000e+00  0.0000000000000000e+00  0.0000000000000000e+00  0.0000000000000000e+00  0.0000000000000000e+00  0.0000000000000000e+00  0.0000000000000000e+00  0.0000000000000000e+00  0.0000000000000000e+00  0.0000000000000000e+00  0.0000000000000000e+00  0.0000000000000000e+00  0.0000000000000000e+00  0.0000000000000000e+00  0.0000000000000000e+00  0.0000000000000000e+00  0.0000000000000000e+00  0.0000000000000000e+00  0.0000000000000000e+00  0.0000000000000000e+00  0.0000000000000000e+00  0.0000000000000000e+00  0.0000000000000000e+00  0.0000000000000000e+00  0.0000000000000000e+00  0.0000000000000000e+00  0.0000000000000000e+00  0.0000000000000000e+00  0.0000000000000000e+00  0.0000000000000000e+00  0.0000000000000000e+00  0.0000000000000000e+00  0.0000000000000000e+00  0.0000000000000000e+00  0.0000000000000000e+00  0.0000000000000000e+00  0.0000000000000000e+00  0.0000000000000000e+00  0.0000000000000000e+00  0.0000000000000000e+00  0.0000000000000000e+00  0.0000000000000000e+00  0.0000000000000000e+00  0.0000000000000000e+00  0.0000000000000000e+00  0.0000000000000000e+00  0.0000000000000000e+00  0.0000000000000000e+00  0.0000000000000000e+00  0.0000000000000000e+00  0.0000000000000000e+00  0.0000000000000000e+00  0.0000000000000000e+00  0.0000000000000000e+00  0.0000000000000000e+00  0.0000000000000000e+00  0.0000000000000000e+00  0.0000000000000000e+00  0.0000000000000000e+00  0.0000000000000000e+00  0.0000000000000000e+00  0.0000000000000000e+00  0.0000000000000000e+00  0.0000000000000000e+00  0.0000000000000000e+00  0.0000000000000000e+00  0.0000000000000000e+00  0.0000000000000000e+00  0.0000000000000000e+00  0.0000000000000000e+00  0.0000000000000000e+00  0.0000000000000000e+00  0.0000000000000000e+00  0.0000000000000000e+00  0.0000000000000000e+00  -3.6052307451875701e-04  -3.2147982311157651e-04  4.8639781046226751e-05  -3.7055809880721534e-04  1.2941375749514293e-04  1.8364374717202343e-04  -1.1852711965607368e-04  3.0654193392656414e-04  -1.4819861163207934e-04  -9.6215098645503522e-05  3.7048483354129455e-04  2.5341271072922282e-04  -2.7178809259962325e-04  3.1279999811781626e-04  -1.1241489349986014e-04  -3.4045361057275939e-05  4.4902808553155262e-04  -3.7387352542823655e-04  4.1192677436899922e-04  -1.6582521663029392e-04  2.0191168193520789e-04  -7.8578537927035603e-05  3.7165692095271691e-04  -3.4120821436118523e-04  6.2801819601091251e-04  -6.4363746463827346e-04  6.1798839755466744e-04  9.9406019869767876e-05  -4.9106599932897455e-04  5.5632540648242019e-04  5.3079046998629853e-04  -6.5224375795833482e-04  -8.5774117695355356e-05  1.2627668751488409e-04  4.9081915682854676e-04  4.6269509327742062e-04  2.3619978017881454e-04  1.5270399981464548e-04  1.0485874567119138e-04  4.5041958581014863e-05  -1.2353197152693644e-05  -3.5022209518235491e-04  -2.8075045153351020e-04  5.2215123761892228e-05  6.0382241380602867e-04  -7.2122192907939130e-04  5.2472242616087355e-04  -3.5903063826326590e-04  2.1845190880083416e-04  -1.4630753955920478e-04  2.5757050521747987e-04  -7.0646924041945365e-05  -1.4887797623036180e-04  -5.9344046847848018e-07  7.3172337753521532e-05  1.4110776323660950e-05  4.9098325350270610e-06  1.0933802469775974e-05  8.9009483094249975e-06  7.7532073132724773e-06  7.0595198355174931e-06  6.3312792363142106e-06  5.5544961583898382e-06  4.8854374324506072e-06  4.4013829956859037e-06  4.0690529507108329e-06  3.8524978890816136e-06  3.7229736009306522e-06  3.6416463427782087e-06  3.5740851159645754e-06  3.5004327589417575e-06  3.4121597925284105e-06  3.3075524750447411e-06  3.1887509523162675e-06  3.0594388041304046e-06  2.9233287869875113e-06  2.7834551080344064e-06  2.6419667843983258e-06  2.5002156452436877e-06  2.3590180153226895e-06  2.2189459896562539e-06  2.0804884309356864e-06  1.9440026546778581e-06  1.8096056189785232e-06  1.6772690415797687e-06  1.5470860994656691e-06  1.4193388054309496e-06  1.2942386342835019e-06  1.1717696869886872e-06  1.0518923110604756e-06  9.3469013663351207e-07  8.2023738622370552e-07  7.0850585342566924e-07  5.9932710527368957e-07  4.9214576766861744e-07  3.8880432832600103e-07  2.8781300322275703e-07  1.8920851456283099e-07  9.3086776969721117e-08  0.0000000000000000e+00  0.0000000000000000e+00  -1.3112910052367655e-05  -2.3403901316077939e-04  -2.1592788481201991e-04  4.5571804628940592e-06  -5.1194886548964905e-04  4.4680515186922373e-04  2.1905543030185937e-04  2.5847551470008435e-04  -4.0616664618433370e-04  5.1248143952778219e-04  -6.3386408746894532e-05  1.4022100450230329e-04  6.1925345521877083e-04  -2.1146523638324998e-04  -5.0101071357152780e-04  7.9645266309488934e-04  -4.9453124674010826e-04  3.9526737114367984e-04  2.8831230884934946e-04  -4.5444351755089777e-04  1.0011421627313193e-03  -9.1707614196576256e-04  1.1812497737941653e-03  -8.4982970273352119e-04  6.7606685499182117e-04  1.2283365100901718e-04  -6.1610400795733609e-04  1.3710423437919518e-03  -9.7946592975298088e-04  -3.4519708381732471e-04  1.4026121192154562e-03  -7.9909841695352627e-05  -8.6789160422898139e-04  1.7634010221032471e-04  7.7453602001156395e-05  1.1479446664803996e-03  6.1488545979653181e-04  3.7362054134618833e-04  2.9276358862296149e-04  2.6483733147439337e-04  1.7979704644913966e-04  -3.1568061636854901e-04  -4.3864235390739367e-04  -5.7970892352323419e-04  1.0072815805070049e-03  3.2455829287670278e-04  -7.3522875444245717e-04  4.0825762491923846e-04  2.2292014146390984e-05  -2.5674781212081384e-04  2.9550808736223864e-04  2.8571537519733205e-04  -3.6798616419874840e-04  -1.4343435523680878e-04  1.0461855169753518e-04  8.0869606319001748e-05  2.6910740160746924e-06  1.7829934096297366e-05  1.6407112749561309e-05  1.5140599369316014e-05  1.4006237469711085e-05  1.2558880320291195e-05  1.1117318927581246e-05  9.9369941507602655e-06  9.0336531788503150e-06  8.3811695458926248e-06  7.9601056642036831e-06  7.7057903217987732e-06  7.5360334678157934e-06  7.3904401440078159e-06  7.2334070087145257e-06  7.0474858218280526e-06  6.8286818432399389e-06  6.5810044996885163e-06  6.3115263485309786e-06  6.0274974544464386e-06  5.7350892569414800e-06  5.4390089601703284e-06  5.1425362399162272e-06  4.8477617796031374e-06  4.5559313180608375e-06  4.2678292055627153e-06  3.9840650067084745e-06  3.7051325813458510e-06  3.4313449357316956e-06  3.1628723441321578e-06  2.8998840648195033e-06  2.6425604681224268e-06  2.3909539367089804e-06  2.1450123998543534e-06  1.9047741503766916e-06  1.6703385403627638e-06  1.4416950631149391e-06  1.2188239103070971e-06  1.0014054098519414e-06  7.8938849952408015e-07  5.8492894907587518e-07  3.8428671798926911e-07  1.8900059052268363e-07  0.0000000000000000e+00  0.0000000000000000e+00  2.7967947213636539e-04  3.8213648899382938e-05  -3.2073057406169323e-04  2.2599899986820276e-04  -4.9916756952962443e-04  1.0813032102176715e-04  6.0765505144893769e-04  -2.6322030141936526e-04  8.5938484959086384e-04  -7.9971995172902096e-04  8.2347748111660839e-05  7.6632598474802151e-04  3.8720321025443081e-04  -4.0320315025999724e-04  8.5338810575554056e-04  -8.8703129568870490e-04  4.9887396814398506e-04  6.8475741858047359e-04  -9.1605094217075229e-04  1.3252665203573849e-03  -9.8952180511425775e-04  1.0705398002700843e-03  -8.3909258285628607e-04  1.4874878223915186e-03  -1.5132379012866883e-03  1.7891329347119178e-03  -1.6082668514043360e-03  1.1196833988885799e-03  7.2390170092786533e-04  -1.6727499988046526e-03  1.0043659724578654e-03  1.7188750124194066e-03  -1.7626589868778467e-03  -5.5694019212347177e-04  3.0963709560360010e-04  8.6071748569394708e-04  1.4111831673696807e-03  7.1919562140528210e-04  5.0909024419313817e-04  4.2106112940935045e-04  3.1538216830752689e-04  1.9595845546061021e-04  -8.9248412388632235e-04  -6.4875347371461285e-04  -1.6789452103769262e-04  1.8160121913554368e-03  -1.5849135411604830e-03  1.1051590650111116e-03  -8.8389479968891435e-04  7.3769398644528232e-04  -5.3658718790602867e-04  7.5860378112176585e-04  -6.0418474827526300e-05  -4.6779723014585912e-04  -4.9311891826887820e-05  2.2836929316572739e-04  4.8383443139988714e-05  7.6507928513066684e-06  2.2304490481178657e-05  2.1756425462662703e-05  2.0416187816591980e-05  1.8727814583810925e-05  1.7084109529520183e-05  1.5557684856568849e-05  1.4231937769076165e-05  1.3235696234779896e-05  1.2569291254311221e-05  1.2123730016852304e-05  1.1799192753826823e-05  1.1524781810195528e-05  1.1247268767408309e-05  1.0935889230336813e-05  1.0581319967907237e-05  1.0186971511265722e-05  9.7616239225654038e-06  9.3151992614527103e-06  8.8565653114411027e-06  8.3926793906712983e-06  7.9285319003563075e-06  7.4674785393170320e-06  7.0117170033746140e-06  6.5627441374895912e-06  6.1216598408291955e-06  5.6892000367080630e-06  5.2656033711724895e-06  4.8506693659427542e-06  4.4441787492133681e-06  4.0463511191201975e-06  3.6578190043018926e-06  3.2790992715624727e-06  2.9101642122171859e-06  2.5506236061757560e-06  2.2002424277834123e-06  1.8590296324716966e-06  1.5268122855945912e-06  1.2028217865564149e-06  8.8906227243484621e-07  5.8516001969605043e-07  2.8867716863255336e-07  0.0000000000000000e+00  0.0000000000000000e+00  1.6841443360369145e-04  1.6533800695346006e-04  1.1219379309707143e-04  -1.2014632208880136e-04  2.9472166819822815e-04  -7.1458887540027901e-04  6.7818266149879654e-04  5.3723834544488070e-04  2.3564974477967488e-04  -1.9051927188303935e-04  3.3993645103556479e-04  -1.2531232853816833e-04  5.3120137585164063e-04  1.0431267915119689e-03  -7.0801204829881921e-04  -2.7528085278394473e-04  8.2628781800656221e-04  -7.3191285380013273e-04  1.1184181687462248e-03  -2.9567123781381075e-04  -4.0269846315560489e-05  9.8578790937319753e-04  -1.0939786965242118e-03  1.4286008995600672e-03  -7.4540580372454372e-04  4.1427553486326227e-04  8.6273150188182325e-04  -1.7067692312549942e-03  2.5956670450425351e-03  -1.3328520180137713e-03  -1.1901917966276382e-03  2.5294283347158195e-03  4.7114622383887130e-04  -2.1944366142513856e-03  -2.8260435704405579e-05  1.3341740873525830e-04  1.9580751669345405e-03  1.3931577671411417e-03  8.2668215281550420e-04  6.5902839484196910e-04  5.9401931045884883e-04  3.9300048378903337e-04  -4.1081285491385031e-04  -9.6860230880188775e-04  -1.0974008493861214e-03  1.5060967234988001e-03  1.1742714775486310e-03  -1.9504529870829651e-03  1.2557334662062875e-03  -4.2833064130580435e-04  -8.0191779196757117e-05  2.7680101495660596e-04  6.8094274750319988e-04  -5.5312270201133933e-04  -3.4805543616794643e-04  1.3678704925422099e-04  2.1662529300919164e-04  2.1881669088261314e-05  2.9216754412598465e-05  3.0469837946737340e-05  2.7890186636776697e-05  2.6084013326944853e-05  2.4144116564923063e-05  2.2075341377576284e-05  2.0246943151347002e-05  1.8869445874732472e-05  1.7846484333681686e-05  1.7076988780673692e-05  1.6496240724765733e-05  1.6020011648385502e-05  1.5568836425660454e-05  1.5096024726569300e-05  1.4582289762663223e-05  1.4024816512487717e-05  1.3430204644067949e-05  1.2808968627232229e-05  1.2171746838755473e-05  1.1527446594031046e-05  1.0882698855792223e-05  1.0242063651438645e-05  9.6085883329275759e-06  8.9843967230483139e-06  8.3711483565204110e-06  7.7702637794481795e-06  7.1828618082987763e-06  6.6095987575980635e-06  6.0506320424412441e-06  5.5057245113274978e-06  4.9744334359752335e-06  4.4564137011724812e-06  3.9516966223660559e-06  3.4605427403683689e-06  2.9830195783388985e-06  2.5189206572480108e-06  2.0678804578054376e-06  1.6289170716320358e-06  1.2025328367382735e-06  7.8984539761580182e-07  3.8937770135083547e-07  0.0000000000000000e+00  0.0000000000000000e+00  2.3933067100004763e-04  3.6570384619209767e-04  2.4925802101762062e-04  -1.6430579942292337e-04  3.1224504295981545e-04  -2.1404391753872970e-04  -9.9307389204060869e-05  8.1837688109715335e-04  1.7400280331349421e-04  1.1485518285924822e-03  -8.9485807743125737e-04  1.7906260818361432e-04  7.9759659802758093e-04  6.3724385254488366e-04  -1.3150043400157581e-04  6.7731855885183405e-04  -1.1297455492503988e-03  9.5395090803185561e-04  4.7197554248268098e-04  -6.7177029807038557e-04  1.4906532062337909e-03  -1.3560057118141098e-03  1.7865988315766204e-03  -1.5741837023406473e-03  2.4205440307368408e-03  -2.3121968426808408e-03  2.3743812857056931e-03  -1.6922422505332322e-03  7.5272017427212355e-04  1.8070802820391307e-03  -2.6008491465374798e-03  8.3983463124220089e-04  3.0506997400165910e-03  -2.0969145043831252e-03  -1.4174934860547625e-03  2.9708108091930184e-04  9.6468277168175053e-04  2.4707695836771485e-03  1.4167246920236106e-03  9.8219416378687429e-04  8.2234849107124734e-04  6.8143684238581247e-04  4.3364212995929184e-04  -1.2900316501310120e-03  -1.0770524884869551e-03  -6.0787100731887712e-04  2.8221108301773514e-03  -1.6354168722246079e-03  8.0509941446217507e-04  -7.5497055420065866e-04  8.1200770389825002e-04  -7.9113685180895975e-04  1.0834784950804071e-03  9.8616074936495857e-05  -7.2404922009460253e-04  -1.4471265541654560e-04  2.3586289116264684e-04  1.1400657966907470e-04  3.4062208052081463e-05  3.9310948430478693e-05  3.6935061529821329e-05  3.4685743637379360e-05  3.1922185692937410e-05  2.9286453975199335e-05  2.7131921704392563e-05  2.5345529647818183e-05  2.3824641179644251e-05  2.2620439335215265e-05  2.1696119040381987e-05  2.0933488191594752e-05  2.0239942829912904e-05  1.9558673155700105e-05  1.8853965580045056e-05  1.8109983485621513e-05  1.7326953057315558e-05  1.6513581730458237e-05  1.5681211444563177e-05  1.4840508685174485e-05  1.3999992221241516e-05  1.3165810426486152e-05  1.2342155193858627e-05  1.1531815328325913e-05  1.0736665875940451e-05  9.9580771249530967e-06  9.1971507824620270e-06  8.4547907550334954e-06  7.7317214001117894e-06  7.0283847634028610e-06  6.3446763827439614e-06  5.6798654082727822e-06  5.0331276451328897e-06  4.4042216106261093e-06  3.7933731477409862e-06  3.2006102813094485e-06  2.6255503536738360e-06  2.0674290306602939e-06  1.5253072956956435e-06  1.0009977720016193e-06  4.9256453027963144e-07  0.0000000000000000e+00  0.0000000000000000e+00  1.3287450909157630e-04  2.7237459788771311e-04  2.3023483221872346e-04  2.9899003710298871e-04  -8.7547099718236422e-06  3.6432247066918487e-04  -6.5128723153089966e-04  6.6206232144415823e-04  9.0209604455308455e-04  5.2163276810074399e-04  3.0478077797784886e-04  2.3301625683259442e-04  -1.1090571866205708e-04  7.4686111212359202e-04  1.3365307340320784e-03  -5.0410271694195543e-04  -2.0526387116452367e-04  6.6765033241387723e-04  -3.6551453938170748e-04  1.1991601776347826e-03  -3.1881986427757423e-04  3.2040119643068346e-04  6.3164273824815550e-04  -6.4388862750716408e-04  1.0891487291909779e-03  -1.0114154756109077e-04  -2.4474372115175865e-04  1.5998717648120974e-03  -2.3776383131676477e-03  3.0678913425546761e-03  -1.0466657804298397e-03  -2.1904506362279072e-03  3.0608435707700043e-03  1.4327536594526068e-03  -3.1726875666174756e-03  -4.3541164326560471e-04  2.6856500777241185e-04  2.3772952885970713e-03  2.5459207357193354e-03  1.5005188910947359e-03  1.1589573729788548e-03  1.0256185703917094e-03  7.1637038713595440e-04  -3.5442887351106790e-04  -1.5220627476909439e-03  -1.5004908365920397e-03  1.6174595828464260e-03  2.0904786175620620e-03  -2.6227010692741739e-03  1.6652784890857377e-03  -7.5347945433749746e-04  2.1549470212361971e-04  2.5855242502659259e-05  1.0573705982984691e-03  -5.4053144969569487e-04  -5.7117844258591658e-04  3.3949676038236103e-05  1.9248633306930305e-04  5.8349244559203556e-05  4.5858520473109314e-05  4.6487253887180367e-05  4.3032342404033936e-05  3.9779378395576510e-05  3.7184763567337656e-05  3.4879294591565662e-05  3.2544111384703848e-05  3.0473686420142255e-05  2.8819241741316055e-05  2.7470655979810998e-05  2.6320592378688154e-05  2.5307910868598023e-05  2.4363800400212926e-05  2.3427939399420680e-05  2.2467876161604826e-05  2.1473951046691391e-05  2.0449699562975209e-05  1.9404939280414189e-05  1.8350976304738197e-05  1.7297922436682465e-05  1.6253683744563509e-05  1.5223921454183541e-05  1.4212450795579348e-05  1.3221691114167112e-05  1.2253107737972933e-05  1.1307622473066775e-05  1.0385874351316287e-05  9.4884190057695217e-06  8.6158781812466292e-06  7.7688472715602446e-06  6.9475117579991611e-06  6.1513841204752076e-06  5.3795342737285814e-06  4.6310051014004560e-06  3.9050698214368545e-06  3.2012502204235609e-06  2.5191047570311110e-06  1.8576177461985187e-06  1.2180101194177651e-06  5.9938787983128852e-07  0.0000000000000000e+00  0.0000000000000000e+00  -1.0841534521547343e-04  2.7272062856109603e-04  4.3745074761510115e-04  2.7505249827073871e-04  -1.0101180157598126e-04  4.2986359950270751e-04  -1.5392085659374864e-04  -5.9002734606802582e-05  8.9847589191253008e-04  5.8875021918933820e-04  1.3930867959544898e-03  -6.1397423076356428e-04  1.7490924355463035e-04  8.1937956649030645e-04  8.3725163834482525e-04  3.4861511143372730e-04  7.8074016326489773e-04  -9.2232711802454144e-04  7.9276760664035708e-04  7.1608663468288351e-04  -3.8262801247192040e-04  1.3698026439043342e-03  -8.7143499782907786e-04  1.5501510097221524e-03  -1.2305384562199995e-03  2.3143446108236446e-03  -1.9775982179246095e-03  2.1439581035643199e-03  -1.1799675812539582e-03  3.4545508680339882e-04  2.5103677781169809e-03  -2.9006969849819245e-03  4.3403269993679884e-04  3.9765803871694809e-03  -1.9739294660434353e-03  -2.5378353558608551e-03  1.4236748223779577e-04  1.1893808582537026e-03  3.1923459460242373e-03  2.4640946845426717e-03  1.5871618128285401e-03  1.2781125331447290e-03  1.0673009773787389e-03  5.9588222467177722e-04  -1.4877274435384749e-03  -1.5993232917763894e-03  -8.9394431723130159e-04  3.3837765838730799e-03  -1.3202979626353692e-03  2.4264510129280622e-04  -2.3495282769470875e-04  3.9310654082970909e-04  -4.9268701429144727e-04  9.2733906298350384e-04  4.2275851856273764e-04  -7.0680911827543727e-04  -3.5363383105148762e-04  1.2495493756907035e-04  1.0449348560296736e-04  5.8817039273905440e-05  5.5522750028235660e-05  5.1259979788967276e-05  4.8655060588536874e-05  4.6183459888325435e-05  4.3304639313901315e-05  4.0372018424393717e-05  3.7908564244004334e-05  3.5784021779026074e-05  3.3883385387603578e-05  3.2248437928550662e-05  3.0844626724835052e-05  2.9570275630687995e-05  2.8346934038544679e-05  2.7129641093842845e-05  2.5895093593918228e-05  2.4636758036365191e-05  2.3359366056005760e-05  2.2072948484760813e-05  2.0788571878619599e-05  1.9515848509257057e-05  1.8262056676509503e-05  1.7032328514763572e-05  1.5830041435204195e-05  1.4657162961576368e-05  1.3514739966487118e-05  1.2403309811581933e-05  1.1323079189775671e-05  1.0274066417050454e-05  9.2562768223528237e-06  8.2697552373551848e-06  7.3144182473835836e-06  6.3899052992977603e-06  5.4954951112691666e-06  4.6301637011687557e-06  3.7929595111213495e-06  2.9830964693569952e-06  2.1991732411274555e-06  1.4404266105965856e-06  7.0821946148354424e-07  0.0000000000000000e+00  0.0000000000000000e+00  2.8653263818278227e-04  1.6466117464234361e-04  3.1138700236394302e-04  3.0670466432752277e-04  3.4519980706770490e-04  6.2183860034650183e-05  3.5694883213799572e-04  -6.0092076561817608e-04  8.0345093373784175e-04  1.0085979649247928e-03  7.2655709604893060e-04  4.4545907083558571e-04  3.7737218806477497e-04  -1.0923023746134091e-04  8.50