<?xml version="1.0"?>
<VTKFile type="UnstructuredGrid"  version="0.1"  >
<UnstructuredGrid>
<Piece  NumberOfPoints="10201" NumberOfCells="20000">
<Points>
<DataArray  type="Float64"  NumberOfComponents="3"  format="ascii">0 0 0  0.01 0 0  0.02 0 0  0.03 0 0  0.04 0 0  0.05 0 0  0.06 0 0  0.07000000000000001 0 0  0.08 0 0  0.09 0 0  0.1 0 0  0.11 0 0  0.12 0 0  0.13 0 0  0.14 0 0  0.15 0 0  0.16 0 0  0.17 0 0  0.18 0 0  0.19 0 0  0.2 0 0  0.21 0 0  0.22 0 0  0.23 0 0  0.24 0 0  0.25 0 0  0.26 0 0  0.27 0 0  0.28 0 0  0.29 0 0  0.3 0 0  0.31 0 0  0.32 0 0  0.33 0 0  0.34 0 0  0.35 0 0  0.36 0 0  0.37 0 0  0.38 0 0  0.39 0 0  0.4 0 0  0.41 0 0  0.42 0 0  0.43 0 0  0.44 0 0  0.45 0 0  0.46 0 0  0.47 0 0  0.48 0 0  0.49 0 0  0.5 0 0  0.51 0 0  0.52 0 0  0.53 0 0  0.54 0 0  0.55 0 0  0.5600000000000001 0 0  0.57 0 0  0.58 0 0  0.59 0 0  0.6 0 0  0.61 0 0  0.62 0 0  0.63 0 0  0.64 0 0  0.65 0 0  0.66 0 0  0.67 0 0  0.68 0 0  0.6899999999999999 0 0  0.7 0 0  0.71 0 0  0.72 0 0  0.73 0 0  0.74 0 0  0.75 0 0  0.76 0 0  0.77 0 0  0.78 0 0  0.79 0 0  0.8 0 0  0.8100000000000001 0 0  0.82 0 0  0.83 0 0  0.84 0 0  0.85 0 0  0.86 0 0  0.87 0 0  0.88 0 0  0.89 0 0  0.9 0 0  0.91 0 0  0.92 0 0  0.93 0 0  0.9399999999999999 0 0  0.95 0 0  0.96 0 0  0.97 0 0  0.98 0 0  0.99 0 0  1 0 0  0 0.01 0  0.01 0.01 0  0.02 0.01 0  0.03 0.01 0  0.04 0.01 0  0.05 0.01 0  0.06 0.01 0  0.07000000000000001 0.01 0  0.08 0.01 0  0.09 0.01 0  0.1 0.01 0  0.11 0.01 0  0.12 0.01 0  0.13 0.01 0  0.14 0.01 0  0.15 0.01 0  0.16 0.01 0  0.17 0.01 0  0.18 0.01 0  0.19 0.01 0  0.2 0.01 0  0.21 0.01 0  0.22 0.01 0  0.23 0.01 0  0.24 0.01 0  0.25 0.01 0  0.26 0.01 0  0.27 0.01 0  0.28 0.01 0  0.29 0.01 0  0.3 0.01 0  0.31 0.01 0  0.32 0.01 0  0.33 0.01 0  0.34 0.01 0  0.35 0.01 0  0.36 0.01 0  0.37 0.01 0  0.38 0.01 0  0.39 0.01 0  0.4 0.01 0  0.41 0.01 0  0.42 0.01 0  0.43 0.01 0  0.44 0.01 0  0.45 0.01 0  0.46 0.01 0  0.47 0.01 0  0.48 0.01 0  0.49 0.01 0  0.5 0.01 0  0.51 0.01 0  0.52 0.01 0  0.53 0.01 0  0.54 0.01 0  0.55 0.01 0  0.5600000000000001 0.01 0  0.57 0.01 0  0.58 0.01 0  0.59 0.01 0  0.6 0.01 0  0.61 0.01 0  0.62 0.01 0  0.63 0.01 0  0.64 0.01 0  0.65 0.01 0  0.66 0.01 0  0.67 0.01 0  0.68 0.01 0  0.6899999999999999 0.01 0  0.7 0.01 0  0.71 0.01 0  0.72 0.01 0  0.73 0.01 0  0.74 0.01 0  0.75 0.01 0  0.76 0.01 0  0.77 0.01 0  0.78 0.01 0  0.79 0.01 0  0.8 0.01 0  0.8100000000000001 0.01 0  0.82 0.01 0  0.83 0.01 0  0.84 0.01 0  0.85 0.01 0  0.86 0.01 0  0.87 0.01 0  0.88 0.01 0  0.89 0.01 0  0.9 0.01 0  0.91 0.01 0  0.92 0.01 0  0.93 0.01 0  0.9399999999999999 0.01 0  0.95 0.01 0  0.96 0.01 0  0.97 0.01 0  0.98 0.01 0  0.99 0.01 0  1 0.01 0  0 0.02 0  0.01 0.02 0  0.02 0.02 0  0.03 0.02 0  0.04 0.02 0  0.05 0.02 0  0.06 0.02 0  0.07000000000000001 0.02 0  0.08 0.02 0  0.09 0.02 0  0.1 0.02 0  0.11 0.02 0  0.12 0.02 0  0.13 0.02 0  0.14 0.02 0  0.15 0.02 0  0.16 0.02 0  0.17 0.02 0  0.18 0.02 0  0.19 0.02 0  0.2 0.02 0  0.21 0.02 0  0.22 0.02 0  0.23 0.02 0  0.24 0.02 0  0.25 0.02 0  0.26 0.02 0  0.27 0.02 0  0.28 0.02 0  0.29 0.02 0  0.3 0.02 0  0.31 0.02 0  0.32 0.02 0  0.33 0.02 0  0.34 0.02 0  0.35 0.02 0  0.36 0.02 0  0.37 0.02 0  0.38 0.02 0  0.39 0.02 0  0.4 0.02 0  0.41 0.02 0  0.42 0.02 0  0.43 0.02 0  0.44 0.02 0  0.45 0.02 0  0.46 0.02 0  0.47 0.02 0  0.48 0.02 0  0.49 0.02 0  0.5 0.02 0  0.51 0.02 0  0.52 0.02 0  0.53 0.02 0  0.54 0.02 0  0.55 0.02 0  0.5600000000000001 0.02 0  0.57 0.02 0  0.58 0.02 0  0.59 0.02 0  0.6 0.02 0  0.61 0.02 0  0.62 0.02 0  0.63 0.02 0  0.64 0.02 0  0.65 0.02 0  0.66 0.02 0  0.67 0.02 0  0.68 0.02 0  0.6899999999999999 0.02 0  0.7 0.02 0  0.71 0.02 0  0.72 0.02 0  0.73 0.02 0  0.74 0.02 0  0.75 0.02 0  0.76 0.02 0  0.77 0.02 0  0.78 0.02 0  0.79 0.02 0  0.8 0.02 0  0.8100000000000001 0.02 0  0.82 0.02 0  0.83 0.02 0  0.84 0.02 0  0.85 0.02 0  0.86 0.02 0  0.87 0.02 0  0.88 0.02 0  0.89 0.02 0  0.9 0.02 0  0.91 0.02 0  0.92 0.02 0  0.93 0.02 0  0.9399999999999999 0.02 0  0.95 0.02 0  0.96 0.02 0  0.97 0.02 0  0.98 0.02 0  0.99 0.02 0  1 0.02 0  0 0.03 0  0.01 0.03 0  0.02 0.03 0  0.03 0.03 0  0.04 0.03 0  0.05 0.03 0  0.06 0.03 0  0.07000000000000001 0.03 0  0.08 0.03 0  0.09 0.03 0  0.1 0.03 0  0.11 0.03 0  0.12 0.03 0  0.13 0.03 0  0.14 0.03 0  0.15 0.03 0  0.16 0.03 0  0.17 0.03 0  0.18 0.03 0  0.19 0.03 0  0.2 0.03 0  0.21 0.03 0  0.22 0.03 0  0.23 0.03 0  0.24 0.03 0  0.25 0.03 0  0.26 0.03 0  0.27 0.03 0  0.28 0.03 0  0.29 0.03 0  0.3 0.03 0  0.31 0.03 0  0.32 0.03 0  0.33 0.03 0  0.34 0.03 0  0.35 0.03 0  0.36 0.03 0  0.37 0.03 0  0.38 0.03 0  0.39 0.03 0  0.4 0.03 0  0.41 0.03 0  0.42 0.03 0  0.43 0.03 0  0.44 0.03 0  0.45 0.03 0  0.46 0.03 0  0.47 0.03 0  0.48 0.03 0  0.49 0.03 0  0.5 0.03 0  0.51 0.03 0  0.52 0.03 0  0.53 0.03 0  0.54 0.03 0  0.55 0.03 0  0.5600000000000001 0.03 0  0.57 0.03 0  0.58 0.03 0  0.59 0.03 0  0.6 0.03 0  0.61 0.03 0  0.62 0.03 0  0.63 0.03 0  0.64 0.03 0  0.65 0.03 0  0.66 0.03 0  0.67 0.03 0  0.68 0.03 0  0.6899999999999999 0.03 0  0.7 0.03 0  0.71 0.03 0  0.72 0.03 0  0.73 0.03 0  0.74 0.03 0  0.75 0.03 0  0.76 0.03 0  0.77 0.03 0  0.78 0.03 0  0.79 0.03 0  0.8 0.03 0  0.8100000000000001 0.03 0  0.82 0.03 0  0.83 0.03 0  0.84 0.03 0  0.85 0.03 0  0.86 0.03 0  0.87 0.03 0  0.88 0.03 0  0.89 0.03 0  0.9 0.03 0  0.91 0.03 0  0.92 0.03 0  0.93 0.03 0  0.9399999999999999 0.03 0  0.95 0.03 0  0.96 0.03 0  0.97 0.03 0  0.98 0.03 0  0.99 0.03 0  1 0.03 0  0 0.04 0  0.01 0.04 0  0.02 0.04 0  0.03 0.04 0  0.04 0.04 0  0.05 0.04 0  0.06 0.04 0  0.07000000000000001 0.04 0  0.08 0.04 0  0.09 0.04 0  0.1 0.04 0  0.11 0.04 0  0.12 0.04 0  0.13 0.04 0  0.14 0.04 0  0.15 0.04 0  0.16 0.04 0  0.17 0.04 0  0.18 0.04 0  0.19 0.04 0  0.2 0.04 0  0.21 0.04 0  0.22 0.04 0  0.23 0.04 0  0.24 0.04 0  0.25 0.04 0  0.26 0.04 0  0.27 0.04 0  0.28 0.04 0  0.29 0.04 0  0.3 0.04 0  0.31 0.04 0  0.32 0.04 0  0.33 0.04 0  0.34 0.04 0  0.35 0.04 0  0.36 0.04 0  0.37 0.04 0  0.38 0.04 0  0.39 0.04 0  0.4 0.04 0  0.41 0.04 0  0.42 0.04 0  0.43 0.04 0  0.44 0.04 0  0.45 0.04 0  0.46 0.04 0  0.47 0.04 0  0.48 0.04 0  0.49 0.04 0  0.5 0.04 0  0.51 0.04 0  0.52 0.04 0  0.53 0.04 0  0.54 0.04 0  0.55 0.04 0  0.5600000000000001 0.04 0  0.57 0.04 0  0.58 0.04 0  0.59 0.04 0  0.6 0.04 0  0.61 0.04 0  0.62 0.04 0  0.63 0.04 0  0.64 0.04 0  0.65 0.04 0  0.66 0.04 0  0.67 0.04 0  0.68 0.04 0  0.6899999999999999 0.04 0  0.7 0.04 0  0.71 0.04 0  0.72 0.04 0  0.73 0.04 0  0.74 0.04 0  0.75 0.04 0  0.76 0.04 0  0.77 0.04 0  0.78 0.04 0  0.79 0.04 0  0.8 0.04 0  0.8100000000000001 0.04 0  0.82 0.04 0  0.83 0.04 0  0.84 0.04 0  0.85 0.04 0  0.86 0.04 0  0.87 0.04 0  0.88 0.04 0  0.89 0.04 0  0.9 0.04 0  0.91 0.04 0  0.92 0.04 0  0.93 0.04 0  0.9399999999999999 0.04 0  0.95 0.04 0  0.96 0.04 0  0.97 0.04 0  0.98 0.04 0  0.99 0.04 0  1 0.04 0  0 0.05 0  0.01 0.05 0  0.02 0.05 0  0.03 0.05 0  0.04 0.05 0  0.05 0.05 0  0.06 0.05 0  0.07000000000000001 0.05 0  0.08 0.05 0  0.09 0.05 0  0.1 0.05 0  0.11 0.05 0  0.12 0.05 0  0.13 0.05 0  0.14 0.05 0  0.15 0.05 0  0.16 0.05 0  0.17 0.05 0  0.18 0.05 0  0.19 0.05 0  0.2 0.05 0  0.21 0.05 0  0.22 0.05 0  0.23 0.05 0  0.24 0.05 0  0.25 0.05 0  0.26 0.05 0  0.27 0.05 0  0.28 0.05 0  0.29 0.05 0  0.3 0.05 0  0.31 0.05 0  0.32 0.05 0  0.33 0.05 0  0.34 0.05 0  0.35 0.05 0  0.36 0.05 0  0.37 0.05 0  0.38 0.05 0  0.39 0.05 0  0.4 0.05 0  0.41 0.05 0  0.42 0.05 0  0.43 0.05 0  0.44 0.05 0  0.45 0.05 0  0.46 0.05 0  0.47 0.05 0  0.48 0.05 0  0.49 0.05 0  0.5 0.05 0  0.51 0.05 0  0.52 0.05 0  0.53 0.05 0  0.54 0.05 0  0.55 0.05 0  0.5600000000000001 0.05 0  0.57 0.05 0  0.58 0.05 0  0.59 0.05 0  0.6 0.05 0  0.61 0.05 0  0.62 0.05 0  0.63 0.05 0  0.64 0.05 0  0.65 0.05 0  0.66 0.05 0  0.67 0.05 0  0.68 0.05 0  0.6899999999999999 0.05 0  0.7 0.05 0  0.71 0.05 0  0.72 0.05 0  0.73 0.05 0  0.74 0.05 0  0.75 0.05 0  0.76 0.05 0  0.77 0.05 0  0.78 0.05 0  0.79 0.05 0  0.8 0.05 0  0.8100000000000001 0.05 0  0.82 0.05 0  0.83 0.05 0  0.84 0.05 0  0.85 0.05 0  0.86 0.05 0  0.87 0.05 0  0.88 0.05 0  0.89 0.05 0  0.9 0.05 0  0.91 0.05 0  0.92 0.05 0  0.93 0.05 0  0.9399999999999999 0.05 0  0.95 0.05 0  0.96 0.05 0  0.97 0.05 0  0.98 0.05 0  0.99 0.05 0  1 0.05 0  0 0.06 0  0.01 0.06 0  0.02 0.06 0  0.03 0.06 0  0.04 0.06 0  0.05 0.06 0  0.06 0.06 0  0.07000000000000001 0.06 0  0.08 0.06 0  0.09 0.06 0  0.1 0.06 0  0.11 0.06 0  0.12 0.06 0  0.13 0.06 0  0.14 0.06 0  0.15 0.06 0  0.16 0.06 0  0.17 0.06 0  0.18 0.06 0  0.19 0.06 0  0.2 0.06 0  0.21 0.06 0  0.22 0.06 0  0.23 0.06 0  0.24 0.06 0  0.25 0.06 0  0.26 0.06 0  0.27 0.06 0  0.28 0.06 0  0.29 0.06 0  0.3 0.06 0  0.31 0.06 0  0.32 0.06 0  0.33 0.06 0  0.34 0.06 0  0.35 0.06 0  0.36 0.06 0  0.37 0.06 0  0.38 0.06 0  0.39 0.06 0  0.4 0.06 0  0.41 0.06 0  0.42 0.06 0  0.43 0.06 0  0.44 0.06 0  0.45 0.06 0  0.46 0.06 0  0.47 0.06 0  0.48 0.06 0  0.49 0.06 0  0.5 0.06 0  0.51 0.06 0  0.52 0.06 0  0.53 0.06 0  0.54 0.06 0  0.55 0.06 0  0.5600000000000001 0.06 0  0.57 0.06 0  0.58 0.06 0  0.59 0.06 0  0.6 0.06 0  0.61 0.06 0  0.62 0.06 0  0.63 0.06 0  0.64 0.06 0  0.65 0.06 0  0.66 0.06 0  0.67 0.06 0  0.68 0.06 0  0.6899999999999999 0.06 0  0.7 0.06 0  0.71 0.06 0  0.72 0.06 0  0.73 0.06 0  0.74 0.06 0  0.75 0.06 0  0.76 0.06 0  0.77 0.06 0  0.78 0.06 0  0.79 0.06 0  0.8 0.06 0  0.8100000000000001 0.06 0  0.82 0.06 0  0.83 0.06 0  0.84 0.06 0  0.85 0.06 0  0.86 0.06 0  0.87 0.06 0  0.88 0.06 0  0.89 0.06 0  0.9 0.06 0  0.91 0.06 0  0.92 0.06 0  0.93 0.06 0  0.9399999999999999 0.06 0  0.95 0.06 0  0.96 0.06 0  0.97 0.06 0  0.98 0.06 0  0.99 0.06 0  1 0.06 0  0 0.07000000000000001 0  0.01 0.07000000000000001 0  0.02 0.07000000000000001 0  0.03 0.07000000000000001 0  0.04 0.07000000000000001 0  0.05 0.07000000000000001 0  0.06 0.07000000000000001 0  0.07000000000000001 0.07000000000000001 0  0.08 0.07000000000000001 0  0.09 0.07000000000000001 0  0.1 0.07000000000000001 0  0.11 0.07000000000000001 0  0.12 0.07000000000000001 0  0.13 0.07000000000000001 0  0.14 0.07000000000000001 0  0.15 0.07000000000000001 0  0.16 0.07000000000000001 0  0.17 0.0700
[...]
<PointData  Scalars="Indicator Function"> 
<DataArray  type="Float64"  Name="Indicator Function"  format="ascii">-1.5046327690525280e-35  -3.4732005641312826e-20  3.7764810653451584e-20  -8.0396942695700449e-21  2.6008800175631488e-19  -2.1725353994353795e-20  -1.6680190490302899e-20  6.6947625020176140e-19  8.0108592167299290e-19  -1.0037756332624055e-21  3.1111629968023727e-18  -1.6827588468152593e-19  -1.7369065723210147e-20  -2.7016879187168960e-20  7.5550145371791517e-18  -4.4095653264394527e-21  2.3472271197219437e-34  1.7104589915213425e-18  -3.3084494038265361e-20  -6.5812515264072144e-22  8.6773170953209338e-18  -1.4760740244883919e-22  -3.0982180325164002e-20  6.9218366600717471e-18  -2.7182465707719804e-20  -2.0937181532506710e-20  -1.6478084094337723e-20  -3.6579843050097876e-20  3.8883013847604382e-17  -1.5811545848964136e-20  -5.8697126615212595e-20  -2.3069028219632471e-20  -4.1939755801435864e-20  -3.4797448610263483e-20  2.1799021487850840e-18  -5.6008454742705243e-20  -8.7026781104750429e-20  -1.0494307149636817e-19  -1.1203617466019584e-19  -1.0874551367839264e-19  5.1185916716193463e-18  -3.9383988418444974e-20  -2.2820048425086261e-20  -2.9544672570613126e-20  -3.2682629302607149e-20  -1.8018705920484198e-20  8.2213950087728999e-18  -1.4322790006329025e-20  -1.0245711897314853e-20  -9.4410874142059012e-21  -7.7554906777939629e-21  -1.2265037788459820e-20  -8.6884724311960854e-21  -1.1521956380006145e-20  -5.6857176134432257e-21  9.4039548065783001e-36  1.9259299443872359e-33  -4.7019774032891500e-38  -7.0529661049337250e-38  -3.4870078831157002e-23  -1.5847657088675796e-22  -1.6803171486997805e-22  -1.3130714956822164e-22  -8.8071717002688233e-23  -4.2585899144040445e-23  -8.7041982195711401e-24  6.4652189295225813e-38  -1.6826755068883834e-24  3.1410328594184901e-21  -3.1555093312856679e-23  -2.7181259232642790e-23  -2.0967690374254364e-23  -1.4495395001919536e-23  -8.7359133756922107e-24  -4.1942388546338634e-24  -9.7196343712158298e-25  4.4081038155835782e-39  -1.9101783200862172e-38  -1.3224311446750734e-38  1.0285575569695016e-38  -4.1876986248043992e-38  3.9909555504512532e-22  -1.8367099231598242e-38  -1.8367099231598242e-38  -7.3468396926392969e-40  -7.3468396926392969e-40  8.4488656465351915e-39  -3.6734198463196485e-40  -6.2448137387434024e-39  -3.3060778616876836e-39  -3.3060778616876836e-39  8.6325366388511739e-39  -1.0469246562010998e-38  6.1562117854173771e-23  -8.9998786234831387e-39  -3.0305713732137100e-39  2.1122164116337979e-39  6.4284847310593848e-40  -4.5917748078995606e-41  7.0311551745962021e-41  -1.0331493317774011e-40  -1.3461927944487136e-20  3.0362412966319338e-04  2.5633097974333066e-04  7.1941032384699910e-05  2.8233618925067075e-04  1.3648458389742315e-04  3.2312689266514387e-04  1.3892015237381699e-04  5.7732214786393812e-04  3.6164828543392730e-05  5.7729615156730936e-05  4.1852063535739617e-04  5.5261851365787302e-04  3.6584014846354683e-05  4.9524118539255070e-04  1.7949997964705879e-05  7.0460668061721326e-05  6.1367149518751273e-04  1.8865017328934317e-04  5.9599726008989311e-04  1.1855728768782135e-05  3.2995055298158790e-04  2.6590585706629023e-06  5.5812534307014101e-04  3.0165254751476179e-04  7.5434146358388477e-04  5.9368554709631242e-04  6.5016348492509025e-04  3.3388212765621896e-04  5.6967097594837126e-04  4.5248819011614149e-04  8.3114933514989015e-04  5.3607573258537854e-04  4.8748160810473530e-04  3.8311430232613618e-04  3.2802728511047282e-04  8.4494498108014196e-04  1.1452626252783599e-03  1.3178549981054555e-03  1.3593367987539673e-03  1.2793166201439060e-03  1.0180139300367764e-03  2.0047189724430245e-04  4.1108944633518057e-04  3.2668478235159599e-04  6.4919229815356156e-04  6.0240400898042346e-04  5.1603289388327397e-04  3.6914067426314082e-04  2.0311501104100315e-04  1.7007551104235991e-04  3.4983168335471596e-04  4.6031436777812866e-05  1.5651760481421410e-04  1.2930231143119206e-04  3.7773627185351044e-05  4.4847313580875241e-05  1.3758878769590795e-05  1.8623333405845963e-06  2.1409633332887059e-06  6.2816349612151335e-07  2.5407783543094702e-06  2.8259440253719549e-06  2.3972374769584636e-06  2.0754280203894561e-06  1.6210240737158686e-06  9.8190096102024331e-07  3.9203422705115267e-07  3.0312387143245197e-08  3.2177658323101241e-07  5.0525510760462297e-07  5.8496299237713191e-07  5.8407999584230514e-07  5.3401566685067992e-07  4.6034605216287024e-07  3.8141065192675739e-07  3.0896967446726379e-07  2.4822610557773671e-07  1.9868797576511933e-07  1.5797311926078492e-07  1.2694765714879315e-07  1.0765730624982065e-07  9.7006957445319319e-08  8.8779814957511592e-08  8.0084519891305805e-08  7.1484908417272522e-08  6.2685284958890232e-08  5.3385703860999568e-08  4.5615584453691198e-08  4.0148732352628073e-08  3.5511409675626620e-08  3.1009173867512849e-08  2.6853729029345962e-08  2.3255622655183077e-08  2.0621932214772085e-08  1.6740038320991134e-08  1.3646253319259349e-08  1.1021456668780728e-08  8.3483788892114387e-09  4.9305971452907800e-09  1.1020259538958945e-39  -1.7691962025776839e-20  2.4250853469792282e-04  1.3885199451462113e-04  1.0721006992029937e-04  6.2296517631106474e-06  5.4946280712242707e-04  4.4692573679466655e-04  4.4732055867149250e-04  5.4201204024824856e-04  1.6050613027000172e-04  5.7194207170905686e-04  2.3483112041717253e-04  3.5412899737151117e-04  9.9073688185705340e-04  3.0071755083951044e-04  3.2505929392472402e-04  9.9503424807504933e-04  2.5687449333480506e-04  6.0766583334338439e-04  5.4490064666641038e-04  2.9163217829809818e-04  1.1900235821648345e-03  8.1832764319996441e-04  1.3138475604107694e-03  7.0145001471060757e-04  7.8131857397320938e-04  2.0190273764403936e-04  5.4784688889918077e-04  1.5076953518244100e-03  8.4704968317161477e-04  4.6259326076082902e-04  1.4539482645259760e-03  2.1802286861837746e-04  1.0751063372194112e-03  4.1197096012023359e-04  2.8638805217421503e-04  1.2092172860764731e-03  1.4660711021281054e-03  1.7538794852849969e-03  1.9007215094443070e-03  1.8946263155329656e-03  1.6511484039398452e-03  8.2500514541593403e-04  1.9628280834785899e-04  9.3930065198313611e-04  7.2613890666711994e-04  5.4998552039983435e-04  7.7912426682013528e-04  5.0090447858157068e-04  6.9295918791859919e-06  3.1212709242411533e-04  3.1538028094464773e-04  4.2873538740349776e-04  3.0352455942659484e-04  2.2889304145879997e-04  6.5383554549273520e-05  3.0606951248568167e-05  5.0500584945445442e-05  1.0780362373082442e-05  3.4224523558866405e-06  1.8524808948053545e-06  4.2299249990773990e-06  4.7753085724310466e-06  4.6423370546435049e-06  4.0711988238928622e-06  3.0232637171695848e-06  1.8618756467266294e-06  8.9653843640558542e-07  1.4349462885315991e-07  4.2149871806239315e-07  7.7807266367021964e-07  9.4289803463605660e-07  9.6672556277769607e-07  8.9872659134775771e-07  7.8025136216008862e-07  6.4527541001452475e-07  5.1756048871236790e-07  4.0966068069433166e-07  3.2383856702445803e-07  2.5545310009722329e-07  2.0131077216339664e-07  1.6373780209966111e-07  1.4216110185012408e-07  1.2872644446380296e-07  1.1638226729042430e-07  1.0413519170778819e-07  9.2220117800398439e-08  7.9140817661205716e-08  6.6587661780221888e-08  5.7703699648910523e-08  5.1455930901707506e-08  4.5521126091884442e-08  3.9547771851315084e-08  3.4020026896059523e-08  2.9690108352030931e-08  2.5992836775373851e-08  2.0532108882602037e-08  1.6744461777107845e-08  1.2898635709045602e-08  8.4913975319214730e-09  1.2122285492854840e-38  -1.1777970189975975e-20  3.1871005434696653e-04  3.0307718122862229e-04  1.5396809368784238e-04  3.8229737221525512e-04  4.5561445940287031e-04  2.4212096210640360e-04  6.2277217880436211e-04  8.0272021313367446e-05  1.2164505161217246e-03  5.9455481287721949e-04  8.3666905992510108e-05  1.0127863745369857e-03  7.4948913416511629e-04  7.8272105573877167e-05  1.1502589498267818e-03  5.9566403699745976e-04  5.6726583284732535e-04  1.0145297312944520e-03  6.9086498333878964e-04  1.5680441596769578e-03  7.2583415138798761e-04  1.2142377233446005e-03  6.6751708338289376e-04  1.6763062736753257e-03  1.3943187711129754e-03  1.9643727295054090e-03  1.5614325891154326e-03  1.2632159291282403e-03  8.7245080158465801e-04  1.7467015592214684e-03  9.5678321988222344e-04  1.8837338783473311e-03  1.6590026988325807e-03  9.8720060824887134e-04  3.1484583549069254e-04  7.5266334439444936e-04  1.7552140104073989e-03  1.8830035973791362e-03  2.1046152661635784e-03  2.1696037087465246e-03  2.0253114163391070e-03  1.5707549772525661e-03  3.3478631892761254e-05  7.2571505009819007e-04  5.8714516446837725e-04  1.7816778022332264e-03  1.4434143723490798e-03  1.0851310637477213e-03  8.6250624338983419e-04  7.2498046043854424e-04  6.1870738230422530e-04  8.4973189578999508e-04  1.3673655973523572e-05  4.6486141203172976e-04  1.7661031002639727e-04  5.2709781552503304e-05  5.6880033356263387e-05  4.2327291004483433e-05  7.3430971166287307e-06  1.0583210822278988e-06  2.3329023854337954e-06  4.4536141724764621e-06  5.3629275703717752e-06  4.6909774231592215e-06  3.4744710655990889e-06  2.3526475431692252e-06  1.3255488646494577e-06  3.5126771737442739e-07  4.1012748712376752e-07  8.9061806429683654e-07  1.1433673492067961e-06  1.2221901510074404e-06  1.1698340729360078e-06  1.0359782399172046e-06  8.6799459449516230e-07  7.0037402812977415e-07  5.5337471944117357e-07  4.3430872847439993e-07  3.3962767502230890e-07  2.6304487319993392e-07  2.0588377312957374e-07  1.7166683534337660e-07  1.5367740990775376e-07  1.4006864282969003e-07  1.2583504272033753e-07  1.1177431225731454e-07  9.6678677494356269e-08  8.0595341471298073e-08  6.8106489509498313e-08  6.0163466246798392e-08  5.3573180231327144e-08  4.7034162370225576e-08  4.0909253336701133e-08  3.5622555536641848e-08  3.1594734335156532e-08  2.6294057478794269e-08  2.0586360146299453e-08  1.6139211645551951e-08  1.0310512545835701e-08  -7.3468396926392969e-40  -1.8880990709403380e-20  2.1217304863502685e-04  3.0426056579228335e-04  1.2789214774783098e-04  6.6721797824278173e-05  4.8034685566000713e-04  8.7241205326110238e-04  9.6464801701250037e-04  7.6679916523712246e-04  3.7276641010707614e-04  8.0105013330534992e-05  5.3372033287170145e-04  6.1625985496134277e-05  7.7150998730516035e-04  1.4666354722821327e-03  2.6490008251434891e-04  1.2737386409779694e-04  1.1549892637540257e-03  5.7003228917753548e-04  1.3059703180360312e-03  1.0077892514053092e-04  1.9896875083231170e-06  1.3308831708147603e-03  1.0679037047829835e-03  1.6434626924906315e-03  6.9402745219516115e-04  5.9589407406395118e-04  8.6105555727121572e-04  1.5861273644483160e-03  2.7292546182611692e-03  1.2446089754950915e-03  1.2375740043183074e-03  2.5132391131567956e-03  6.2256226720207937e-04  2.2854858799033128e-03  5.1252207984747397e-04  2.4012771809749932e-04  1.9777291366206147e-03  2.0668423448958833e-03  2.1932481411565947e-03  2.3450717196083284e-03  2.3307878090653169e-03  1.9969410268496587e-03  9.1345936425088427e-04  6.0445402349207909e-04  1.4109899962067649e-03  1.1887930699560662e-03  1.3345262730444850e-03  2.0065712922630748e-03  1.3733799287404544e-03  4.6745562615368579e-04  1.4411436961521933e-04  2.6593817876316460e-04  7.9519350373808860e-04  5.4131949997318033e-04  3.9862333420085917e-04  1.3893942314627116e-05  5.6083494644681800e-05  6.5957736811086311e-05  1.7938385186786747e-05  4.6281663707142866e-06  4.9592066031653237e-07  3.9900309721789434e-06  4.9494275614588182e-06  4.3728583776167926e-06  3.7476186960979238e-06  2.9831921930081798e-06  1.8771674587001546e-06  7.5350252667233793e-07  9.9572320030106287e-08  7.0729134863105082e-07  1.1115121087522681e-06  1.3060422735884321e-06  1.3214401611828006e-06  1.2183406024070173e-06  1.0534195066678931e-06  8.6990258976725409e-07  6.9732675087378799e-07  5.5134401233372421e-07  4.3359460300699599e-07  3.3662871203663354e-07  2.5844739585002569e-07  2.0641425208647513e-07  1.7947403833608887e-07  1.6338786035866464e-07  1.4734560272023324e-07  1.3112217002128597e-07  1.1474317688223463e-07  9.5770874286860410e-08  7.8652002559660849e-08  6.8165808325879073e-08  6.1111430349925704e-08  5.4093090737727748e-08  4.7243753097825979e-08  4.1082733085196111e-08  3.6357520297598077e-08  3.1792997964730883e-08  2.6003680470983829e-08  1.9466073579028276e-08  1.2438234023752626e-08  2.5197240342406818e-25  -9.0325424516652872e-21  3.4012969089301928e-04  5.0234751836339539e-04  4.2835383693242681e-04  1.9382414973283084e-04  5.0217786305378385e-04  2.6966398062716889e-04  9.4425102555013951e-05  1.0769387956117023e-03  2.5024165654880919e-04  1.4901937326835680e-03  1.0166482165072223e-03  4.8274270463624056e-04  9.7198112328098570e-04  7.7625684921347375e-04  2.9293568859157766e-04  1.0395005679042174e-03  1.0267288944361339e-03  1.1369082978261464e-03  6.9201114040719192e-04  5.5844536933796806e-04  1.8271718814385513e-03  1.1828295367097735e-03  1.9281954784800093e-03  1.3372902450140155e-03  2.5501962429068225e-03  2.1989335809600658e-03  2.6255113953777562e-03  1.8012203564023634e-03  1.0480295145543742e-03  1.8161417717126700e-03  2.6924013628103730e-03  9.5003125776927484e-04  3.0665409798472675e-03  2.1052991771291392e-03  1.7141693141972884e-03  2.2134993990073973e-04  8.1029249613880452e-04  2.5826150022797869e-03  2.3338308613770286e-03  2.4446840341984916e-03  2.5129913746354676e-03  2.3745474180423003e-03  1.8190355700129065e-03  2.7279884043180736e-04  1.0902901516134122e-03  9.6158638452653058e-04  2.7233509911053426e-03  1.5569988662455423e-03  7.4854846362437113e-04  6.9987266823033016e-04  7.9156622807403281e-04  8.6782177341705974e-04  1.1286153132523018e-03  1.5210063756525220e-04  7.4684379096947499e-04  2.5100565680870546e-04  1.4742189211404251e-04  1.0843868063195989e-05  5.2452792355329012e-05  6.9391566054088455e-06  1.6644470149759208e-06  4.5281474679953283e-06  4.8698650586789687e-06  5.0233520453084069e-06  4.8427526272831392e-06  3.8728359007197821e-06  2.5640661677904079e-06  1.4876329194429062e-06  5.8267868485427298e-07  2.4283079866057187e-07  8.6179695834066059e-07  1.2133060713509692e-06  1.3473764697736959e-06  1.3265958084943521e-06  1.2038517779666392e-06  1.0288061491200510e-06  8.4277532590417280e-07  6.7359468368252812e-07  5.3283061157916500e-07  4.1592392117437138e-07  3.1646681152077518e-07  2.4281570731420676e-07  2.0311203059206629e-07  1.8476437154646237e-07  1.6911028294845625e-07  1.5142251712521197e-07  1.3417921943297402e-07  1.1393877452243225e-07  9.1811282245264906e-08  7.6682181537197698e-08  6.8650585101557199e-08  6.1724719284823463e-08  5.4373879688758633e-08  4.7503748460090091e-08  4.1808458925918118e-08  3.7202933186600280e-08  3.1195522574521977e-08  2.4922510769781726e-08  1.5706473587747573e-08  4.5917748078995606e-39  -1.6876993239192829e-21  1.6271581927811184e-04  3.8247707541876839e-04  3.6944847254881326e-04  3.7071602490288823e-04  5.3291431478800377e-05  5.1891026696966635e-04  9.2522721046042484e-04  1.0583396073695032e-03  1.0940131011007040e-03  2.8432488152020175e-04  4.2590264451441875e-04  1.1278372212988902e-04  5.6249179512885198e-05  1.0610771078387047e-03  1.5854434000033011e-03  4.1697985449895488e-04  2.0012400664211691e-04  6.9084418196333831e-04  1.9630451072026332e-04  1.4428935944803094e-03  2.2867517974000284e-04  5.2375457431351371e-04  8.7584075469337465e-04  6.9409624146969770e-04  1.3671257603597008e-03  1.3073497028457935e-04  3.3626928336544592e-05  1.5520295857697456e-03  2.2580380011075034e-03  3.3198080837068722e-03  1.1135581521448349e-03  2.1426435247527209e-03  3.1280248592057032e-03  1.3389347254366541e-03  3.2313091172078644e-03  7.9737774039005714e-04  4.6566694186091959e-05  2.3045088594410229e-03  2.7933517339576676e-03  2.5852391473518538e-03  2.6858059560276510e-03  2.6681901575912881e-03  2.2903607021274724e-03  1.0105037635365867e-03  1.0352690861142450e-03  1.8068361267981655e-03  1.3321278749223288e-03  2.1601908231003745e-03  2.7356641880629091e-03  1.7760327787908975e-03  8.1508142264738112e-04  1.4161446389678335e-04  4.8412043466943237e-05  1.1156971176653169e-03  5.9120490504564012e-04  6.3744073687494493e-04  2.0458251059670669e-05  1.6978547882269410e-04  6.0938860341113630e-05  3.0442202505595173e-05  2.6141650637844642e-06  2.0103166754440690e-06  4.7167164921439755e-06  6.2256564879716855e-06  5.6704441255689739e-06  4.3421173623353374e-06  3.3283425288934991e-06  2.4902127109499750e-06  1.4125544456675452e-06  3.5224442362997614e-07  4.2502442929128246e-07  9.3989876191290760e-07  1.2439164506966906e-06  1.3552737264982679e-06  1.3130664576087022e-06  1.1749868224703466e-06  9.9476391936756664e-07  8.1283938157607092e-07  6.5242790615746766e-07  5.1626388335311607e-07  3.9551045663367100e-07  2.9547034780724784e-07  2.3481085058787052e-07  2.1020411163546389e-07  1.9583725141978910e-07  1.7656767559412146e-07  1.5557853929962349e-07  1.3296328578551710e-07  1.0577081872558506e-07  8.4147970516900060e-08  7.4295793425887050e-08  6.8402313879627056e-08  6.1285583827752525e-08  5.3780684921167847e-08  4.7089568021879068e-08  4.2106520970206275e-08  3.6230270667113482e-08  2.8942633787355465e-08  1.9030679675614605e-08  1.6530389308438418e-39  -1.9013733877334055e-20  3.0402888185265242e-05  3.2736642212683321e-04  5.3136905520534633e-04  4.0569931885897376e-04  8.7908134002780497e-05  5.0664724407056794e-04  1.7230333474265889e-04  4.8220664302408691e-05  1.1700795479351002e-03  4.8735972034320721e-04  1.4596796084258310e-03  9.1211798264680480e-04  3.0127503779933234e-04  9.7927219423163598e-04  1.0550499736590065e-03  4.9675609434256306e-04  6.9604678158075874e-04  8.3196808839956272e-04  1.0857020931951957e-03  6.3757863188850970e-04  1.0947070799845577e-04  1.4133359983395243e-03  7.8587171859453321e-04  1.8044024960194697e-03  1.3120311359657660e-03  2.6177241503129106e-03  2.1203746407515898e-03  2.4989074050123291e-03  1.4593230206925646e-03  6.0310137495867510e-04  2.6103691591871478e-03  3.0802235940156552e-03  6.7234834558292243e-04  4.0571785958585559e-03  2.0875608260890960e-03  2.6769818440883085e-03  2.7096062386224387e-04  9.9566845980010848e-04  3.2201932474232005e-03  2.9503535789740221e-03  2.8290563335008909e-03  2.8815910008226295e-03  2.7405008844256294e-03  2.0238308291423064e-03  3.6120696968583324e-04  1.5852416787201045e-03  1.2340224874080252e-03  3.2554076964639582e-03  1.2900513764012923e-03  7.4053339103263770e-05  2.0153496665720530e-04  4.3206603594423505e-04  7.2195908434945731e-04  1.1232087834046310e-03  3.4373286538138338e-04  9.0562428893066352e-04  3.7821411816622678e-04  1.7382848440488055e-04  7.3848182631177232e-05  4.9539587679641721e-05  1.2956690459568827e-05  9.8771249070487866e-07  4.2941605271088064e-06  5.8998073245265645e-06  5.1879985941170870e-06  4.6390551771821931e-06  4.3022138904484636e-06  3.3607856825240851e-06  2.0721108272254717e-06  1.0290254510136378e-06  1.9651898184383100e-07  5.1976366585568983e-07  1.0327012411375444e-06  1.2991804600813285e-06  1.3640608056619944e-06  1.2924768944516633e-06  1.1431302984323005e-06  9.6390533537024697e-07  7.8899822898448121e-07  6.3373759888429274e-07  4.9253206026368611e-07  3.6347196752801705e-07  2.7147688200224168e-07  2.3201556261293925e-07  2.2013303953537298e-07  2.0540851410051816e-07  1.8407448222984748e-07  1.6092229548691570e-07  1.3014288509880664e-07  9.8510563675992713e-08  8.1734021350160925e-08  7.5381393428710362e-08  6.8840568093491204e-08  6.1218293755919840e-08  5.4023440700734404e-08  4.7947753600464513e-08  4.2021744613284327e-08  3.3728333778633084e-08  2.2247287124999384e-08  -1.1203930531274928e-38  -2.8588022611998032e-35  3.4252097921953426e-04  4.1190564682867998e-04  3.8558007928711800e-04  3.4442191363255939e-04  4.7747848131852457e-04  1.4017225455845603e-04  3.8386962514685849e-04  7.1836418680627811e-04  9.2042129979823912e-04  1.1740449708802197e-03  5.9395702520323196e-04  4.6641503561333343e-04  1.0444347015567491e-04  7.1113255400621897e-05  1.0596499869907797e-03  1.7734889941681848e-03  2.1