<?xml version="1.0"?>
<VTKFile type="UnstructuredGrid"  version="0.1"  >
<UnstructuredGrid>
<Piece  NumberOfPoints="10201" NumberOfCells="20000">
<Points>
<DataArray  type="Float64"  NumberOfComponents="3"  format="ascii">0 0 0  0.01 0 0  0.02 0 0  0.03 0 0  0.04 0 0  0.05 0 0  0.06 0 0  0.07000000000000001 0 0  0.08 0 0  0.09 0 0  0.1 0 0  0.11 0 0  0.12 0 0  0.13 0 0  0.14 0 0  0.15 0 0  0.16 0 0  0.17 0 0  0.18 0 0  0.19 0 0  0.2 0 0  0.21 0 0  0.22 0 0  0.23 0 0  0.24 0 0  0.25 0 0  0.26 0 0  0.27 0 0  0.28 0 0  0.29 0 0  0.3 0 0  0.31 0 0  0.32 0 0  0.33 0 0  0.34 0 0  0.35 0 0  0.36 0 0  0.37 0 0  0.38 0 0  0.39 0 0  0.4 0 0  0.41 0 0  0.42 0 0  0.43 0 0  0.44 0 0  0.45 0 0  0.46 0 0  0.47 0 0  0.48 0 0  0.49 0 0  0.5 0 0  0.51 0 0  0.52 0 0  0.53 0 0  0.54 0 0  0.55 0 0  0.5600000000000001 0 0  0.57 0 0  0.58 0 0  0.59 0 0  0.6 0 0  0.61 0 0  0.62 0 0  0.63 0 0  0.64 0 0  0.65 0 0  0.66 0 0  0.67 0 0  0.68 0 0  0.6899999999999999 0 0  0.7 0 0  0.71 0 0  0.72 0 0  0.73 0 0  0.74 0 0  0.75 0 0  0.76 0 0  0.77 0 0  0.78 0 0  0.79 0 0  0.8 0 0  0.8100000000000001 0 0  0.82 0 0  0.83 0 0  0.84 0 0  0.85 0 0  0.86 0 0  0.87 0 0  0.88 0 0  0.89 0 0  0.9 0 0  0.91 0 0  0.92 0 0  0.93 0 0  0.9399999999999999 0 0  0.95 0 0  0.96 0 0  0.97 0 0  0.98 0 0  0.99 0 0  1 0 0  0 0.01 0  0.01 0.01 0  0.02 0.01 0  0.03 0.01 0  0.04 0.01 0  0.05 0.01 0  0.06 0.01 0  0.07000000000000001 0.01 0  0.08 0.01 0  0.09 0.01 0  0.1 0.01 0  0.11 0.01 0  0.12 0.01 0  0.13 0.01 0  0.14 0.01 0  0.15 0.01 0  0.16 0.01 0  0.17 0.01 0  0.18 0.01 0  0.19 0.01 0  0.2 0.01 0  0.21 0.01 0  0.22 0.01 0  0.23 0.01 0  0.24 0.01 0  0.25 0.01 0  0.26 0.01 0  0.27 0.01 0  0.28 0.01 0  0.29 0.01 0  0.3 0.01 0  0.31 0.01 0  0.32 0.01 0  0.33 0.01 0  0.34 0.01 0  0.35 0.01 0  0.36 0.01 0  0.37 0.01 0  0.38 0.01 0  0.39 0.01 0  0.4 0.01 0  0.41 0.01 0  0.42 0.01 0  0.43 0.01 0  0.44 0.01 0  0.45 0.01 0  0.46 0.01 0  0.47 0.01 0  0.48 0.01 0  0.49 0.01 0  0.5 0.01 0  0.51 0.01 0  0.52 0.01 0  0.53 0.01 0  0.54 0.01 0  0.55 0.01 0  0.5600000000000001 0.01 0  0.57 0.01 0  0.58 0.01 0  0.59 0.01 0  0.6 0.01 0  0.61 0.01 0  0.62 0.01 0  0.63 0.01 0  0.64 0.01 0  0.65 0.01 0  0.66 0.01 0  0.67 0.01 0  0.68 0.01 0  0.6899999999999999 0.01 0  0.7 0.01 0  0.71 0.01 0  0.72 0.01 0  0.73 0.01 0  0.74 0.01 0  0.75 0.01 0  0.76 0.01 0  0.77 0.01 0  0.78 0.01 0  0.79 0.01 0  0.8 0.01 0  0.8100000000000001 0.01 0  0.82 0.01 0  0.83 0.01 0  0.84 0.01 0  0.85 0.01 0  0.86 0.01 0  0.87 0.01 0  0.88 0.01 0  0.89 0.01 0  0.9 0.01 0  0.91 0.01 0  0.92 0.01 0  0.93 0.01 0  0.9399999999999999 0.01 0  0.95 0.01 0  0.96 0.01 0  0.97 0.01 0  0.98 0.01 0  0.99 0.01 0  1 0.01 0  0 0.02 0  0.01 0.02 0  0.02 0.02 0  0.03 0.02 0  0.04 0.02 0  0.05 0.02 0  0.06 0.02 0  0.07000000000000001 0.02 0  0.08 0.02 0  0.09 0.02 0  0.1 0.02 0  0.11 0.02 0  0.12 0.02 0  0.13 0.02 0  0.14 0.02 0  0.15 0.02 0  0.16 0.02 0  0.17 0.02 0  0.18 0.02 0  0.19 0.02 0  0.2 0.02 0  0.21 0.02 0  0.22 0.02 0  0.23 0.02 0  0.24 0.02 0  0.25 0.02 0  0.26 0.02 0  0.27 0.02 0  0.28 0.02 0  0.29 0.02 0  0.3 0.02 0  0.31 0.02 0  0.32 0.02 0  0.33 0.02 0  0.34 0.02 0  0.35 0.02 0  0.36 0.02 0  0.37 0.02 0  0.38 0.02 0  0.39 0.02 0  0.4 0.02 0  0.41 0.02 0  0.42 0.02 0  0.43 0.02 0  0.44 0.02 0  0.45 0.02 0  0.46 0.02 0  0.47 0.02 0  0.48 0.02 0  0.49 0.02 0  0.5 0.02 0  0.51 0.02 0  0.52 0.02 0  0.53 0.02 0  0.54 0.02 0  0.55 0.02 0  0.5600000000000001 0.02 0  0.57 0.02 0  0.58 0.02 0  0.59 0.02 0  0.6 0.02 0  0.61 0.02 0  0.62 0.02 0  0.63 0.02 0  0.64 0.02 0  0.65 0.02 0  0.66 0.02 0  0.67 0.02 0  0.68 0.02 0  0.6899999999999999 0.02 0  0.7 0.02 0  0.71 0.02 0  0.72 0.02 0  0.73 0.02 0  0.74 0.02 0  0.75 0.02 0  0.76 0.02 0  0.77 0.02 0  0.78 0.02 0  0.79 0.02 0  0.8 0.02 0  0.8100000000000001 0.02 0  0.82 0.02 0  0.83 0.02 0  0.84 0.02 0  0.85 0.02 0  0.86 0.02 0  0.87 0.02 0  0.88 0.02 0  0.89 0.02 0  0.9 0.02 0  0.91 0.02 0  0.92 0.02 0  0.93 0.02 0  0.9399999999999999 0.02 0  0.95 0.02 0  0.96 0.02 0  0.97 0.02 0  0.98 0.02 0  0.99 0.02 0  1 0.02 0  0 0.03 0  0.01 0.03 0  0.02 0.03 0  0.03 0.03 0  0.04 0.03 0  0.05 0.03 0  0.06 0.03 0  0.07000000000000001 0.03 0  0.08 0.03 0  0.09 0.03 0  0.1 0.03 0  0.11 0.03 0  0.12 0.03 0  0.13 0.03 0  0.14 0.03 0  0.15 0.03 0  0.16 0.03 0  0.17 0.03 0  0.18 0.03 0  0.19 0.03 0  0.2 0.03 0  0.21 0.03 0  0.22 0.03 0  0.23 0.03 0  0.24 0.03 0  0.25 0.03 0  0.26 0.03 0  0.27 0.03 0  0.28 0.03 0  0.29 0.03 0  0.3 0.03 0  0.31 0.03 0  0.32 0.03 0  0.33 0.03 0  0.34 0.03 0  0.35 0.03 0  0.36 0.03 0  0.37 0.03 0  0.38 0.03 0  0.39 0.03 0  0.4 0.03 0  0.41 0.03 0  0.42 0.03 0  0.43 0.03 0  0.44 0.03 0  0.45 0.03 0  0.46 0.03 0  0.47 0.03 0  0.48 0.03 0  0.49 0.03 0  0.5 0.03 0  0.51 0.03 0  0.52 0.03 0  0.53 0.03 0  0.54 0.03 0  0.55 0.03 0  0.5600000000000001 0.03 0  0.57 0.03 0  0.58 0.03 0  0.59 0.03 0  0.6 0.03 0  0.61 0.03 0  0.62 0.03 0  0.63 0.03 0  0.64 0.03 0  0.65 0.03 0  0.66 0.03 0  0.67 0.03 0  0.68 0.03 0  0.6899999999999999 0.03 0  0.7 0.03 0  0.71 0.03 0  0.72 0.03 0  0.73 0.03 0  0.74 0.03 0  0.75 0.03 0  0.76 0.03 0  0.77 0.03 0  0.78 0.03 0  0.79 0.03 0  0.8 0.03 0  0.8100000000000001 0.03 0  0.82 0.03 0  0.83 0.03 0  0.84 0.03 0  0.85 0.03 0  0.86 0.03 0  0.87 0.03 0  0.88 0.03 0  0.89 0.03 0  0.9 0.03 0  0.91 0.03 0  0.92 0.03 0  0.93 0.03 0  0.9399999999999999 0.03 0  0.95 0.03 0  0.96 0.03 0  0.97 0.03 0  0.98 0.03 0  0.99 0.03 0  1 0.03 0  0 0.04 0  0.01 0.04 0  0.02 0.04 0  0.03 0.04 0  0.04 0.04 0  0.05 0.04 0  0.06 0.04 0  0.07000000000000001 0.04 0  0.08 0.04 0  0.09 0.04 0  0.1 0.04 0  0.11 0.04 0  0.12 0.04 0  0.13 0.04 0  0.14 0.04 0  0.15 0.04 0  0.16 0.04 0  0.17 0.04 0  0.18 0.04 0  0.19 0.04 0  0.2 0.04 0  0.21 0.04 0  0.22 0.04 0  0.23 0.04 0  0.24 0.04 0  0.25 0.04 0  0.26 0.04 0  0.27 0.04 0  0.28 0.04 0  0.29 0.04 0  0.3 0.04 0  0.31 0.04 0  0.32 0.04 0  0.33 0.04 0  0.34 0.04 0  0.35 0.04 0  0.36 0.04 0  0.37 0.04 0  0.38 0.04 0  0.39 0.04 0  0.4 0.04 0  0.41 0.04 0  0.42 0.04 0  0.43 0.04 0  0.44 0.04 0  0.45 0.04 0  0.46 0.04 0  0.47 0.04 0  0.48 0.04 0  0.49 0.04 0  0.5 0.04 0  0.51 0.04 0  0.52 0.04 0  0.53 0.04 0  0.54 0.04 0  0.55 0.04 0  0.5600000000000001 0.04 0  0.57 0.04 0  0.58 0.04 0  0.59 0.04 0  0.6 0.04 0  0.61 0.04 0  0.62 0.04 0  0.63 0.04 0  0.64 0.04 0  0.65 0.04 0  0.66 0.04 0  0.67 0.04 0  0.68 0.04 0  0.6899999999999999 0.04 0  0.7 0.04 0  0.71 0.04 0  0.72 0.04 0  0.73 0.04 0  0.74 0.04 0  0.75 0.04 0  0.76 0.04 0  0.77 0.04 0  0.78 0.04 0  0.79 0.04 0  0.8 0.04 0  0.8100000000000001 0.04 0  0.82 0.04 0  0.83 0.04 0  0.84 0.04 0  0.85 0.04 0  0.86 0.04 0  0.87 0.04 0  0.88 0.04 0  0.89 0.04 0  0.9 0.04 0  0.91 0.04 0  0.92 0.04 0  0.93 0.04 0  0.9399999999999999 0.04 0  0.95 0.04 0  0.96 0.04 0  0.97 0.04 0  0.98 0.04 0  0.99 0.04 0  1 0.04 0  0 0.05 0  0.01 0.05 0  0.02 0.05 0  0.03 0.05 0  0.04 0.05 0  0.05 0.05 0  0.06 0.05 0  0.07000000000000001 0.05 0  0.08 0.05 0  0.09 0.05 0  0.1 0.05 0  0.11 0.05 0  0.12 0.05 0  0.13 0.05 0  0.14 0.05 0  0.15 0.05 0  0.16 0.05 0  0.17 0.05 0  0.18 0.05 0  0.19 0.05 0  0.2 0.05 0  0.21 0.05 0  0.22 0.05 0  0.23 0.05 0  0.24 0.05 0  0.25 0.05 0  0.26 0.05 0  0.27 0.05 0  0.28 0.05 0  0.29 0.05 0  0.3 0.05 0  0.31 0.05 0  0.32 0.05 0  0.33 0.05 0  0.34 0.05 0  0.35 0.05 0  0.36 0.05 0  0.37 0.05 0  0.38 0.05 0  0.39 0.05 0  0.4 0.05 0  0.41 0.05 0  0.42 0.05 0  0.43 0.05 0  0.44 0.05 0  0.45 0.05 0  0.46 0.05 0  0.47 0.05 0  0.48 0.05 0  0.49 0.05 0  0.5 0.05 0  0.51 0.05 0  0.52 0.05 0  0.53 0.05 0  0.54 0.05 0  0.55 0.05 0  0.5600000000000001 0.05 0  0.57 0.05 0  0.58 0.05 0  0.59 0.05 0  0.6 0.05 0  0.61 0.05 0  0.62 0.05 0  0.63 0.05 0  0.64 0.05 0  0.65 0.05 0  0.66 0.05 0  0.67 0.05 0  0.68 0.05 0  0.6899999999999999 0.05 0  0.7 0.05 0  0.71 0.05 0  0.72 0.05 0  0.73 0.05 0  0.74 0.05 0  0.75 0.05 0  0.76 0.05 0  0.77 0.05 0  0.78 0.05 0  0.79 0.05 0  0.8 0.05 0  0.8100000000000001 0.05 0  0.82 0.05 0  0.83 0.05 0  0.84 0.05 0  0.85 0.05 0  0.86 0.05 0  0.87 0.05 0  0.88 0.05 0  0.89 0.05 0  0.9 0.05 0  0.91 0.05 0  0.92 0.05 0  0.93 0.05 0  0.9399999999999999 0.05 0  0.95 0.05 0  0.96 0.05 0  0.97 0.05 0  0.98 0.05 0  0.99 0.05 0  1 0.05 0  0 0.06 0  0.01 0.06 0  0.02 0.06 0  0.03 0.06 0  0.04 0.06 0  0.05 0.06 0  0.06 0.06 0  0.07000000000000001 0.06 0  0.08 0.06 0  0.09 0.06 0  0.1 0.06 0  0.11 0.06 0  0.12 0.06 0  0.13 0.06 0  0.14 0.06 0  0.15 0.06 0  0.16 0.06 0  0.17 0.06 0  0.18 0.06 0  0.19 0.06 0  0.2 0.06 0  0.21 0.06 0  0.22 0.06 0  0.23 0.06 0  0.24 0.06 0  0.25 0.06 0  0.26 0.06 0  0.27 0.06 0  0.28 0.06 0  0.29 0.06 0  0.3 0.06 0  0.31 0.06 0  0.32 0.06 0  0.33 0.06 0  0.34 0.06 0  0.35 0.06 0  0.36 0.06 0  0.37 0.06 0  0.38 0.06 0  0.39 0.06 0  0.4 0.06 0  0.41 0.06 0  0.42 0.06 0  0.43 0.06 0  0.44 0.06 0  0.45 0.06 0  0.46 0.06 0  0.47 0.06 0  0.48 0.06 0  0.49 0.06 0  0.5 0.06 0  0.51 0.06 0  0.52 0.06 0  0.53 0.06 0  0.54 0.06 0  0.55 0.06 0  0.5600000000000001 0.06 0  0.57 0.06 0  0.58 0.06 0  0.59 0.06 0  0.6 0.06 0  0.61 0.06 0  0.62 0.06 0  0.63 0.06 0  0.64 0.06 0  0.65 0.06 0  0.66 0.06 0  0.67 0.06 0  0.68 0.06 0  0.6899999999999999 0.06 0  0.7 0.06 0  0.71 0.06 0  0.72 0.06 0  0.73 0.06 0  0.74 0.06 0  0.75 0.06 0  0.76 0.06 0  0.77 0.06 0  0.78 0.06 0  0.79 0.06 0  0.8 0.06 0  0.8100000000000001 0.06 0  0.82 0.06 0  0.83 0.06 0  0.84 0.06 0  0.85 0.06 0  0.86 0.06 0  0.87 0.06 0  0.88 0.06 0  0.89 0.06 0  0.9 0.06 0  0.91 0.06 0  0.92 0.06 0  0.93 0.06 0  0.9399999999999999 0.06 0  0.95 0.06 0  0.96 0.06 0  0.97 0.06 0  0.98 0.06 0  0.99 0.06 0  1 0.06 0  0 0.07000000000000001 0  0.01 0.07000000000000001 0  0.02 0.07000000000000001 0  0.03 0.07000000000000001 0  0.04 0.07000000000000001 0  0.05 0.07000000000000001 0  0.06 0.07000000000000001 0  0.07000000000000001 0.07000000000000001 0  0.08 0.07000000000000001 0  0.09 0.07000000000000001 0  0.1 0.07000000000000001 0  0.11 0.07000000000000001 0  0.12 0.07000000000000001 0  0.13 0.07000000000000001 0  0.14 0.07000000000000001 0  0.15 0.07000000000000001 0  0.16 0.07000000000000001 0  0.17 0.0700
[...]
<PointData  Scalars="Indicator Function"> 
<DataArray  type="Float64"  Name="Indicator Function"  format="ascii">-1.8055593228630336e-35  -5.5874392437650342e-20  1.6902130118862904e-20  3.5300397893708097e-21  3.2624876355243866e-19  -3.1069430707861267e-20  -2.6131715154018021e-20  6.6049885410012664e-19  8.3775556957391537e-19  4.7019774032891500e-36  4.1961416924950941e-18  1.4327872406246929e-18  -3.2233601752207759e-20  -3.3133170166032286e-20  8.2316677491397755e-18  -8.6401571813716875e-21  2.5202598881629844e-34  1.9802353111873966e-18  -3.4588186701761658e-20  -9.0277966143151681e-36  6.6306068272930585e-18  6.0185310762101120e-36  -3.6263330280778145e-20  1.0273404076898297e-17  -4.5262370909730819e-20  -2.4002413347364410e-20  -1.8077552493008339e-20  -4.2548865391789874e-20  4.1022958975703239e-17  -1.6587820330063756e-20  -7.3192805246822673e-20  -2.6724216400312443e-20  -4.4349279077274549e-20  -2.5619312307882844e-20  5.0331317081197067e-18  -7.8066173713231682e-20  -1.0931117037521593e-19  -1.2684256590844701e-19  -1.3296088906245482e-19  -1.3043297966262460e-19  8.9582137744203014e-18  -6.6057340788649906e-20  -2.3395767629842032e-20  -2.9717870530249845e-20  -2.5729602351164434e-20  -2.0609709037708313e-20  2.0084468142135197e-17  -1.5015357710024032e-20  -1.0022690422592840e-20  -7.5026611984368431e-21  -1.9269769622323746e-20  -1.1466914122465969e-20  -8.4099267836175140e-21  -1.1529581303732077e-20  -8.3888452437585955e-21  -1.2122520232387448e-21  6.7904579656878519e-19  0.0000000000000000e+00  -1.6456920911512025e-37  0.0000000000000000e+00  -2.6600321481206995e-24  -1.3300160740603791e-24  -1.9416783545013288e-23  -4.2863491445204075e-24  -8.8932841306558183e-23  -5.9615160471427337e-23  -9.4039548065783001e-38  -2.9227507078281473e-22  5.0658142995666933e-19  -2.9371295317034652e-22  -6.2640674002995154e-23  -1.8481298168495930e-22  -8.2284604557560126e-38  -1.4480504660629465e-22  -4.3639274546122289e-22  -3.0804964526360469e-22  -1.0899379591357889e-22  -1.0585035840865302e-22  -4.7019774032891500e-38  -1.5206581771148937e-22  -5.1023168117792402e-22  3.9829839329532014e-20  -2.8845857313129823e-22  -7.1904352538125322e-22  -7.5344328511714738e-22  -5.3646536728424029e-22  -8.6540688927395817e-24  -8.4853054670853976e-23  -8.9797187081803282e-23  -1.2173342124401141e-22  -1.8625386132435825e-22  -1.3584780342308271e-22  -1.5555073802553094e-22  1.2814166306952153e-20  -9.5056249730011844e-23  -7.5831260109291599e-23  -4.9780058363586103e-23  -1.9349995760952005e-23  -1.1329196531137541e-23  -5.6645982655687764e-24  -2.9387358770557188e-39  -2.8589652759182996e-20  4.6079088151896236e-04  2.1731256410554518e-04  1.2804799984078040e-04  3.3583858513482127e-04  2.4449577080934887e-04  4.3744922082947528e-04  2.5202252010601313e-04  6.6104299754953465e-04  8.5941208405459539e-05  1.9360299171309362e-06  4.1154580065132180e-04  6.8514057445364523e-04  2.3809866013338438e-04  4.7782480118669057e-04  1.8374429625887776e-04  6.3775086520353157e-05  7.1355809809087948e-04  1.3535141161573943e-04  6.2308537896589968e-04  1.3008912638326576e-04  3.1858561058480730e-04  1.5857099423390237e-04  5.7397658584195602e-04  2.4322888936914442e-04  8.6477807845746337e-04  6.5131246937026285e-04  8.1149549764036617e-04  3.6074446847382302e-04  5.9763921165891074e-04  7.1136598713088435e-04  9.6284136817772494e-04  6.0222353726531225e-04  4.9781381827359867e-04  2.1260959231627504e-04  6.2681940988417004e-04  1.0929054584385173e-03  1.4227222554577623e-03  1.5736314025111171e-03  1.6083947404905267e-03  1.5454743041764145e-03  1.2296688880566217e-03  5.7514881741508727e-04  4.2146068151921305e-04  3.2461922182550475e-04  7.4254302353953439e-04  6.1072853938099608e-04  5.4098527510159126e-04  3.6110547881951157e-04  1.4576810707279836e-04  1.3515592871026896e-04  4.1313912135221753e-04  3.4253937590168378e-05  1.3437280372056775e-04  1.4051207039261849e-04  8.0863966059130561e-05  6.0522216282451192e-05  3.1347520616864333e-05  1.2928213619995124e-05  6.6895951610639857e-06  2.6845083798575352e-06  4.7918879164280437e-08  6.9956335310444698e-07  1.5443200328033532e-07  4.3668794904597462e-06  1.6020716438768583e-06  1.0739312579390093e-06  9.0201487885361793e-06  1.6794527799264284e-05  1.0582124371614886e-05  6.4846815476933888e-06  1.1284340643925034e-06  3.3292947017984520e-06  5.2171516314998064e-06  9.2330507620251133e-06  3.2448274423728508e-06  3.9269153492967115e-06  3.8136610774899486e-06  1.6292196380776796e-06  1.8788750016381580e-06  6.5550855886035253e-06  5.9139740426003830e-06  2.1782550446786690e-06  5.1964076898637586e-06  1.0354932766948839e-05  8.3953612089191290e-06  5.4664203083343564e-06  2.7432483713612681e-06  1.5285767415876247e-06  8.5335394232829965e-07  1.7662773910481114e-06  2.7155969354750604e-06  1.0894179997636532e-06  2.7774603493055813e-06  8.1812592464328729e-07  1.3033182011316291e-06  7.4250765319743968e-07  5.2550398258819157e-07  8.5826543500480628e-08  2.0408866110415261e-07  5.6645982655687823e-24  -1.4574387897272714e-20  5.1502539805163333e-04  1.3953887262659520e-04  9.7874581942092461e-05  2.8797989248089358e-05  3.9972778618975967e-04  4.9889545835580531e-04  6.0307394355621155e-04  7.2301262805403780e-04  2.6831532046515465e-05  3.5938144474431335e-04  4.0675479683530640e-04  5.0203483218353568e-04  9.7321014720722944e-04  7.2498081328974064e-04  5.0272536073836776e-04  1.1486216575864168e-03  5.0577393847862344e-05  5.3810435582381461e-04  8.2491930595046225e-04  3.9180303952631709e-04  1.4554469383374715e-03  9.5106875250499962e-04  1.5796396860478362e-03  8.7168866293365949e-04  1.0874994264730774e-03  6.0095560898520290e-05  3.7311824833034715e-04  1.6171766954373907e-03  1.0775891361914595e-03  1.8310262682966010e-04  1.5966349523487797e-03  1.9043107103783850e-04  1.1429180311131595e-03  5.4045507087370948e-04  5.4500094712270602e-04  1.3850802472555053e-03  1.8279334965739073e-03  2.1567856498690635e-03  2.2802287586044662e-03  2.2254536559834729e-03  2.0058471956508265e-03  1.4434668933123304e-03  3.1240766888735447e-04  1.0007408004449891e-03  8.7159225713288988e-04  7.2883784825676472e-04  1.0643463125699464e-03  8.5328916920565363e-04  1.8315759653776930e-04  3.8369330978231802e-04  4.8521298622612274e-04  3.8657822931983661e-04  3.6433998639528179e-04  1.7954406414422635e-04  1.2330442270416504e-04  6.8568161831496417e-05  6.8347218664486286e-05  2.9183389556665380e-05  1.4742786304484781e-05  5.2086856516498644e-06  4.2488263427056944e-06  1.4216326148759214e-06  1.2784127064055645e-07  7.3275728747321342e-06  4.3092621491379463e-06  5.0476034656657509e-06  6.5850336769108199e-06  5.8069871193501202e-06  1.5682917044236806e-05  5.5247118559803027e-06  6.5451166108544514e-06  1.4783704064219834e-05  7.3052751347739365e-06  7.4855615946837133e-06  1.9876361684810022e-05  1.3391668054845395e-06  2.9974308835854414e-06  5.7071338636199371e-06  7.5569553245603216e-06  3.5200619256104433e-06  1.3190278765547523e-05  4.4445485187881265e-06  5.7600549120344955e-06  1.0312480990660892e-05  1.1984760367099038e-05  9.6759141254719594e-06  3.2220097776151289e-06  1.3612076923862349e-06  8.6037171157146733e-07  2.3711183832990974e-06  1.0908724790434905e-06  3.1308480307457677e-06  1.6463629556255133e-06  2.0477025443314972e-06  1.5628686351686374e-06  1.2264699955067408e-06  1.3000097693725094e-06  8.7490074682613234e-07  1.2892867468889577e-07  1.7632415262334313e-38  -2.0982473679092390e-20  2.6254883161324271e-04  4.4424147389396558e-04  3.8185731034358300e-05  4.5450892355635119e-04  6.4841870389163150e-04  5.5646007850890938e-04  7.8069614301576838e-04  1.7339498680847437e-04  1.3185278340273326e-03  4.8273612833957225e-04  5.8721035562859827e-06  1.0149836800063617e-03  1.0800833185923230e-03  9.2663096191882737e-05  1.0915642127912939e-03  3.1832627032688361e-04  4.5347544291142174e-04  1.3267026965252491e-03  7.4335061012600326e-04  1.6691215923449654e-03  5.4347141804093131e-04  1.1366300443968792e-03  4.3077563371224023e-04  1.6801765820709453e-03  1.4254808030632487e-03  2.2707132542218425e-03  1.8708187206523045e-03  1.7272806845792345e-03  8.3331300513241524e-04  1.9844731543878489e-03  1.6108289027521713e-03  1.9603202074070345e-03  1.9534555359372687e-03  9.6075919725702337e-04  1.0865030450189047e-04  1.5492742141058676e-03  1.9587687219604732e-03  2.3331501260237821e-03  2.5587384940020425e-03  2.6222438966355364e-03  2.4879084965924304e-03  1.8620505835671103e-03  7.9592200208506922e-04  1.1229491273426551e-03  6.0701070140421656e-04  2.1112531900496019e-03  1.4376929319270203e-03  9.6882949039404768e-04  7.2167280332455425e-04  5.5356425578679657e-04  5.2666802036537995e-04  1.0344124062194985e-03  2.2671311601923837e-04  4.0130430680949925e-04  1.5505184824593540e-04  3.0402909644923545e-05  7.1036021156812144e-05  5.7142419975689455e-05  2.3820102928846540e-05  1.3302007170292423e-05  3.3814932818259357e-06  1.7737763636075524e-07  1.0600131679690140e-06  2.2734283493850653e-06  6.2609641334091195e-06  8.7108684044472030e-06  1.7056575718498406e-06  1.2750173623791705e-05  3.6838779079687877e-05  5.8514805585425388e-06  1.8919424704319535e-06  7.6553640043911080e-07  1.3781315888068708e-05  9.9276835438500911e-07  9.1934387997460164e-06  1.3001105409429586e-05  2.0773535118330127e-06  1.0652879117180302e-05  7.8933554732342470e-07  7.1158979880338786e-06  1.1870677613427842e-05  1.1115907967069609e-05  2.0724925593559311e-06  1.2546213120668801e-05  1.4323832668074043e-05  9.9029085544923887e-06  6.6503582211639515e-06  1.9796915279113106e-06  2.9850444765369865e-07  8.1040838594888859e-07  9.2921659676174329e-07  2.4400670562751867e-06  1.3324994693976907e-06  2.3783933274299603e-06  1.7367636873895055e-06  1.5527869115801435e-06  1.7097880200281584e-06  1.3097566668809097e-06  7.9040605601704774e-07  -1.0969087527416096e-22  -1.8944159434523210e-20  3.7798664256988762e-04  5.1033536301758290e-04  7.0106593370361251e-05  1.4403470068244715e-04  5.0270438400834420e-04  7.4681262170218769e-04  1.1064618584177069e-03  9.8048350580963515e-04  6.0345660878416841e-04  1.2696695889918917e-04  2.9791230689738235e-04  2.8447339847313192e-04  8.0987355345640822e-04  1.5118258765687927e-03  3.9844454672216588e-04  6.4773597294462458e-04  1.5674513466150805e-03  4.3115067996958258e-04  1.2252991940231881e-03  4.7217253419397592e-04  2.5559603341651779e-04  1.8283933662674085e-03  1.4483948394581009e-03  2.1791344047543621e-03  1.0503240830436367e-03  1.0496211051830352e-03  6.4997197080781668e-04  1.4611739867040326e-03  3.0248823720730404e-03  1.6672505885982555e-03  8.8531716635643649e-04  2.9211089564506322e-03  4.9224625161290131e-04  2.5178549580062264e-03  6.3718422045346489e-04  9.4705589548513291e-04  2.2089601034538434e-03  2.4180728852834055e-03  2.7207217275379168e-03  2.8477415791276933e-03  2.7793647135380796e-03  2.5163751980065096e-03  1.6812473717903907e-03  7.3556113640802932e-04  1.7099904884994932e-03  1.4377261402392376e-03  1.7205927978601837e-03  2.4874743689760506e-03  1.9272299211184588e-03  8.1721345007013037e-04  2.7026613538610832e-04  5.6323717067238504e-04  7.7810228766052964e-04  7.6522708842917885e-04  2.8002198201960781e-04  7.0109063027649142e-05  9.8038610464462854e-06  7.5719443539692575e-05  4.0093014308791840e-05  2.2080418303646565e-05  1.0063354427518977e-05  7.4848014326540772e-06  1.4901302325815960e-06  7.4958002623385940e-07  7.0687358110733126e-06  5.3216243438439090e-06  1.7834411411683126e-06  1.3501856122149481e-06  3.3826661650964150e-06  2.6191449164421616e-05  9.4145704599862556e-06  8.5148895485381812e-06  2.3757321813863379e-05  3.1931413955056157e-07  4.7423027652713047e-06  2.0227814648210274e-05  3.8680088043041986e-06  1.0701771999510538e-05  1.3383152464611752e-05  9.4323433892725752e-06  4.7168940949376295e-06  1.8924227696922552e-05  4.5477342651020257e-06  1.2184790526554088e-05  1.7917297645500743e-05  1.3437136482329428e-05  7.2582319794624388e-06  2.6592800938581962e-06  1.2491684754885647e-06  2.3325870295925133e-07  1.5950956081017464e-06  8.9435649286284970e-07  1.9575994464232467e-06  2.8100490111312763e-06  1.7866186878142565e-06  2.3480779646588130e-06  1.4930768669787594e-06  1.6412900341960044e-06  1.2986412193088793e-06  3.2440081104090120e-22  -1.7476438861714096e-20  3.4126763748066377e-04  5.5337928781824320e-04  8.5211423606188961e-04  1.3819917674894709e-04  4.9435005665678057e-04  5.5170375845144679e-04  5.1796100884229229e-04  1.2123084426538659e-03  3.7951290092833127e-04  1.6440869196763330e-03  9.2845242671235032e-04  1.7744133914402189e-04  1.2855031187790828e-03  1.1632414959399943e-03  2.7723682038933713e-04  1.2792889892532550e-03  9.7321312160385481e-04  1.1232503591675489e-03  1.1810241082072918e-03  7.7841017936388366e-04  2.1203053294435010e-03  1.1576224475089772e-03  1.9836985203294808e-03  1.2278747689320906e-03  2.7002251722352969e-03  2.4064422237195572e-03  3.2123829638843900e-03  2.4055478027724159e-03  1.7482911325800295e-03  1.7264119527011245e-03  3.2169399030939380e-03  1.9198100419798700e-03  3.2190465274543130e-03  2.6091690843630909e-03  1.7491398938014031e-03  3.1475128426578817e-07  2.1684066977163230e-03  2.6189481181677536e-03  2.8239080011304690e-03  3.0280772690641600e-03  3.0923765616371955e-03  2.9209281181590504e-03  2.1673392777340982e-03  8.6818634848330012e-04  1.8443630486400114e-03  1.0861236520057608e-03  3.2583475806960815e-03  1.4834948396603065e-03  3.9908452802597295e-04  2.7910167850197322e-04  4.7065619658603463e-04  8.4803158106751947e-04  1.4596399432409294e-03  1.6935935247367769e-04  7.6497540445538714e-04  1.6495812037766553e-04  4.5740402634555084e-05  2.3626311581678265e-05  6.6770665901977737e-05  2.7251933710749909e-05  1.7129438096064093e-05  5.7465319774096279e-06  2.7794892561960710e-06  7.3593677798952900e-07  1.1124746823182309e-06  7.3730823680412185e-06  5.7132085419889247e-06  2.2392099484131011e-06  9.8031250500426060e-06  3.4950087856929221e-06  3.5374933701031359e-06  1.1757000498678546e-05  9.1630446913394135e-06  1.6972073551165988e-05  6.9553273202025596e-06  1.0417531296066980e-05  1.8295126009661856e-05  6.0005600877558045e-06  1.3862610647829999e-05  5.3645308778695481e-06  1.2244882629071820e-05  1.0990106995698868e-05  1.7265499576023343e-05  7.6794708721321085e-06  1.6806155467241180e-05  1.8773277510957161e-05  1.1256436146419043e-05  3.1345853874590339e-06  3.9498752137376115e-07  1.7387058106037213e-06  6.8947543132996671e-07  1.2136007163943167e-07  2.3962380640925286e-06  1.9639033603727503e-06  2.3487403286509459e-06  2.0267262238774422e-06  1.3403940738217648e-06  1.6021466868212080e-06  9.9082288125221189e-07  -5.5001718804582079e-23  -8.0753321054696622e-21  3.1482753418151554e-04  5.7916344953301460e-04  4.6800639464268423e-04  5.9897349858416748e-04  2.0562351201632411e-04  5.8166347899058315e-04  1.0546542415996642e-03  1.4130525547446033e-03  1.2621054521437284e-03  5.3129196111391418e-04  5.0133471377933564e-04  1.0778590145438697e-04  2.5430569854304532e-04  1.2744896720812144e-03  1.7913117313432935e-03  1.3679844917011870e-04  4.2327457345042935e-04  1.2473855394474142e-03  1.9663051602544901e-04  1.5942172470258084e-03  3.6248848879436493e-05  2.7773938919847184e-04  1.4510380518675992e-03  1.2030515537570349e-03  2.0113215972299313e-03  5.6096500878524767e-04  4.5692263864590982e-04  1.4742083097690798e-03  2.3491417337289373e-03  3.9712296526326074e-03  1.6936691277937615e-03  1.9400664471229049e-03  3.9237400220582730e-03  1.0895194793367655e-03  3.7055620878012540e-03  9.2929449018503178e-04  1.2275548110174510e-03  2.9914747808986938e-03  3.0090591679986897e-03  3.2003280080603281e-03  3.3170378679953962e-03  3.2500511269996182e-03  2.9385690625347953e-03  1.8265237429284965e-03  9.7838665555626068e-04  2.5163281148302052e-03  1.6728041509422569e-03  2.8089550377538596e-03  3.2889407965984046e-03  2.2526552717013447e-03  1.0918248554717303e-03  2.5380170092301630e-05  3.4764402006657051e-04  1.2205996824847720e-03  9.6017705854598489e-04  4.9953658360743166e-04  2.6809963397359244e-05  9.2977333520393961e-05  6.4415267572354626e-05  5.3055013549935119e-05  2.6250203207541029e-05  1.1853197006170364e-05  7.2313559356454576e-06  1.3189120600677049e-06  1.6652600069087625e-06  8.7307361874627885e-06  5.5652330898977429e-06  1.1641089915197912e-06  1.9821311899819551e-06  1.5760545921479130e-06  1.2818639296481038e-05  1.3450270903209790e-05  8.5029147160275107e-06  3.0128113305454229e-05  9.3032673134521494e-06  1.7563323480404468e-05  1.2646088575035387e-05  1.1760927114595707e-05  1.8744067913998446e-05  1.2128291832674713e-05  5.5943238682204189e-06  1.3062648134054364e-05  1.4811476478539081e-05  1.3810817637668857e-05  1.8873574249930204e-05  1.9681937205054699e-05  1.4141372969798853e-05  6.1683638753794500e-06  2.0563964504113760e-07  2.7354732374688905e-06  1.1213028193093173e-06  8.2375346027866072e-07  1.7855349233123987e-06  9.7774900024839713e-07  3.0949745184936378e-06  1.5766307944816168e-06  1.7943604448368660e-06  1.2249867738283873e-06  5.9058527892829874e-07  -3.2784068733543348e-23  -1.9306760015802148e-20  1.4547225064434469e-04  4.4022539677592264e-04  7.4627819206740578e-04  7.7793598484918593e-04  7.5790511520957987e-05  6.2165688270418692e-04  3.1454452665275986e-04  2.1614061572212875e-04  1.6022862256221265e-03  6.1016246260503189e-04  1.5759189596197710e-03  8.9769569926249069e-04  1.0660633028538356e-04  1.2891801867503426e-03  1.4466184473393734e-03  6.0888429674256766e-04  1.0316645604437416e-03  1.0391551800930576e-03  1.3431957159058192e-03  1.0228474620030716e-03  3.4152738757546001e-04  1.8639412107630830e-03  9.4010262826329377e-04  2.1511267834620749e-03  1.3844275787805564e-03  3.0055060658458616e-03  2.5137702913741559e-03  3.2850172900691938e-03  2.2026577656858162e-03  1.3191087718722847e-03  2.6557715886217415e-03  3.8677921529775817e-03  1.7840219905184099e-03  4.5127391551576940e-03  2.8408282508863695e-03  2.8922249448786489e-03  4.4971531960486823e-05  2.6279785300075374e-03  3.4574679550339704e-03  3.4255473695459625e-03  3.5496255470036544e-03  3.6058167668430513e-03  3.4035053266242257e-03  2.5077379132169954e-03  8.6420283346958177e-04  2.4293807868524613e-03  1.6336251723283481e-03  4.0050976751512552e-03  1.1089188783625346e-03  3.9141505330844668e-04  3.6683268716581951e-04  1.3334613442938165e-05  7.2540233291459139e-04  1.5333574243592196e-03  8.9110843838292799e-05  1.0870808652123842e-03  2.4373574851167842e-04  1.1416676200405181e-04  5.1199396848094129e-05  7.2053452112409518e-05  3.8147800606995500e-05  2.4227788627340034e-05  9.8586771599877759e-06  5.1369582276487030e-06  5.0777670104213238e-07  1.6245156324218339e-06  7.5390089334907025e-06  3.4498281113321695e-06  4.8564832551487546e-07  7.0781755581944482e-06  1.5924237485382049e-06  1.2100136824937266e-05  1.3314366848766493e-05  9.1430266778688056e-06  1.7642937687488069e-05  1.0449215633231505e-05  3.4354214569463946e-05  8.9527628813779457e-06  4.0541799274117120e-06  2.3582111695781397e-05  3.8176519352560222e-06  9.4006315482617831e-06  1.5818313245709031e-05  1.3618413380027924e-05  2.5577050722099582e-08  2.7352891031606281e-05  1.9376904707573911e-05  1.0005085081093228e-05  1.1429660860000704e-06  1.2832963374620976e-06  1.3413272900767245e-06  1.7874278346731282e-06  4.3140570661760953e-07  1.6616772688204679e-06  2.2272572690515980e-06  1.9189716873090354e-06  2.1467836161368210e-06  7.4631933161534634e-07  6.5612121356348298e-07  -4.5529673162533638e-23  -7.9800570528939323e-21  3.4779966885159356e-04  5.4603328730667641e-04  6.2492508364144633e-04  5.4522574555209606e-04  8.9020992487192697e-04  8.3996880507296903e-05  4.7754717691661768e-04  9.4283645254896245e-04  1.4069579013444506e-03  1.6085694941636731e-03  6.8799596170143415e-04  5.3731590132760924e-04  4.0336589131369601e-04  3.5523238755289107e-04  1.5204873447582834e-03  1.9443949547552986e-03