<?xml version="1.0"?>
<VTKFile type="UnstructuredGrid"  version="0.1"  >
<UnstructuredGrid>
<Piece  NumberOfPoints="10201" NumberOfCells="20000">
<Points>
<DataArray  type="Float64"  NumberOfComponents="3"  format="ascii">0 0 0  0.01 0 0  0.02 0 0  0.03 0 0  0.04 0 0  0.05 0 0  0.06 0 0  0.07000000000000001 0 0  0.08 0 0  0.09 0 0  0.1 0 0  0.11 0 0  0.12 0 0  0.13 0 0  0.14 0 0  0.15 0 0  0.16 0 0  0.17 0 0  0.18 0 0  0.19 0 0  0.2 0 0  0.21 0 0  0.22 0 0  0.23 0 0  0.24 0 0  0.25 0 0  0.26 0 0  0.27 0 0  0.28 0 0  0.29 0 0  0.3 0 0  0.31 0 0  0.32 0 0  0.33 0 0  0.34 0 0  0.35 0 0  0.36 0 0  0.37 0 0  0.38 0 0  0.39 0 0  0.4 0 0  0.41 0 0  0.42 0 0  0.43 0 0  0.44 0 0  0.45 0 0  0.46 0 0  0.47 0 0  0.48 0 0  0.49 0 0  0.5 0 0  0.51 0 0  0.52 0 0  0.53 0 0  0.54 0 0  0.55 0 0  0.5600000000000001 0 0  0.57 0 0  0.58 0 0  0.59 0 0  0.6 0 0  0.61 0 0  0.62 0 0  0.63 0 0  0.64 0 0  0.65 0 0  0.66 0 0  0.67 0 0  0.68 0 0  0.6899999999999999 0 0  0.7 0 0  0.71 0 0  0.72 0 0  0.73 0 0  0.74 0 0  0.75 0 0  0.76 0 0  0.77 0 0  0.78 0 0  0.79 0 0  0.8 0 0  0.8100000000000001 0 0  0.82 0 0  0.83 0 0  0.84 0 0  0.85 0 0  0.86 0 0  0.87 0 0  0.88 0 0  0.89 0 0  0.9 0 0  0.91 0 0  0.92 0 0  0.93 0 0  0.9399999999999999 0 0  0.95 0 0  0.96 0 0  0.97 0 0  0.98 0 0  0.99 0 0  1 0 0  0 0.01 0  0.01 0.01 0  0.02 0.01 0  0.03 0.01 0  0.04 0.01 0  0.05 0.01 0  0.06 0.01 0  0.07000000000000001 0.01 0  0.08 0.01 0  0.09 0.01 0  0.1 0.01 0  0.11 0.01 0  0.12 0.01 0  0.13 0.01 0  0.14 0.01 0  0.15 0.01 0  0.16 0.01 0  0.17 0.01 0  0.18 0.01 0  0.19 0.01 0  0.2 0.01 0  0.21 0.01 0  0.22 0.01 0  0.23 0.01 0  0.24 0.01 0  0.25 0.01 0  0.26 0.01 0  0.27 0.01 0  0.28 0.01 0  0.29 0.01 0  0.3 0.01 0  0.31 0.01 0  0.32 0.01 0  0.33 0.01 0  0.34 0.01 0  0.35 0.01 0  0.36 0.01 0  0.37 0.01 0  0.38 0.01 0  0.39 0.01 0  0.4 0.01 0  0.41 0.01 0  0.42 0.01 0  0.43 0.01 0  0.44 0.01 0  0.45 0.01 0  0.46 0.01 0  0.47 0.01 0  0.48 0.01 0  0.49 0.01 0  0.5 0.01 0  0.51 0.01 0  0.52 0.01 0  0.53 0.01 0  0.54 0.01 0  0.55 0.01 0  0.5600000000000001 0.01 0  0.57 0.01 0  0.58 0.01 0  0.59 0.01 0  0.6 0.01 0  0.61 0.01 0  0.62 0.01 0  0.63 0.01 0  0.64 0.01 0  0.65 0.01 0  0.66 0.01 0  0.67 0.01 0  0.68 0.01 0  0.6899999999999999 0.01 0  0.7 0.01 0  0.71 0.01 0  0.72 0.01 0  0.73 0.01 0  0.74 0.01 0  0.75 0.01 0  0.76 0.01 0  0.77 0.01 0  0.78 0.01 0  0.79 0.01 0  0.8 0.01 0  0.8100000000000001 0.01 0  0.82 0.01 0  0.83 0.01 0  0.84 0.01 0  0.85 0.01 0  0.86 0.01 0  0.87 0.01 0  0.88 0.01 0  0.89 0.01 0  0.9 0.01 0  0.91 0.01 0  0.92 0.01 0  0.93 0.01 0  0.9399999999999999 0.01 0  0.95 0.01 0  0.96 0.01 0  0.97 0.01 0  0.98 0.01 0  0.99 0.01 0  1 0.01 0  0 0.02 0  0.01 0.02 0  0.02 0.02 0  0.03 0.02 0  0.04 0.02 0  0.05 0.02 0  0.06 0.02 0  0.07000000000000001 0.02 0  0.08 0.02 0  0.09 0.02 0  0.1 0.02 0  0.11 0.02 0  0.12 0.02 0  0.13 0.02 0  0.14 0.02 0  0.15 0.02 0  0.16 0.02 0  0.17 0.02 0  0.18 0.02 0  0.19 0.02 0  0.2 0.02 0  0.21 0.02 0  0.22 0.02 0  0.23 0.02 0  0.24 0.02 0  0.25 0.02 0  0.26 0.02 0  0.27 0.02 0  0.28 0.02 0  0.29 0.02 0  0.3 0.02 0  0.31 0.02 0  0.32 0.02 0  0.33 0.02 0  0.34 0.02 0  0.35 0.02 0  0.36 0.02 0  0.37 0.02 0  0.38 0.02 0  0.39 0.02 0  0.4 0.02 0  0.41 0.02 0  0.42 0.02 0  0.43 0.02 0  0.44 0.02 0  0.45 0.02 0  0.46 0.02 0  0.47 0.02 0  0.48 0.02 0  0.49 0.02 0  0.5 0.02 0  0.51 0.02 0  0.52 0.02 0  0.53 0.02 0  0.54 0.02 0  0.55 0.02 0  0.5600000000000001 0.02 0  0.57 0.02 0  0.58 0.02 0  0.59 0.02 0  0.6 0.02 0  0.61 0.02 0  0.62 0.02 0  0.63 0.02 0  0.64 0.02 0  0.65 0.02 0  0.66 0.02 0  0.67 0.02 0  0.68 0.02 0  0.6899999999999999 0.02 0  0.7 0.02 0  0.71 0.02 0  0.72 0.02 0  0.73 0.02 0  0.74 0.02 0  0.75 0.02 0  0.76 0.02 0  0.77 0.02 0  0.78 0.02 0  0.79 0.02 0  0.8 0.02 0  0.8100000000000001 0.02 0  0.82 0.02 0  0.83 0.02 0  0.84 0.02 0  0.85 0.02 0  0.86 0.02 0  0.87 0.02 0  0.88 0.02 0  0.89 0.02 0  0.9 0.02 0  0.91 0.02 0  0.92 0.02 0  0.93 0.02 0  0.9399999999999999 0.02 0  0.95 0.02 0  0.96 0.02 0  0.97 0.02 0  0.98 0.02 0  0.99 0.02 0  1 0.02 0  0 0.03 0  0.01 0.03 0  0.02 0.03 0  0.03 0.03 0  0.04 0.03 0  0.05 0.03 0  0.06 0.03 0  0.07000000000000001 0.03 0  0.08 0.03 0  0.09 0.03 0  0.1 0.03 0  0.11 0.03 0  0.12 0.03 0  0.13 0.03 0  0.14 0.03 0  0.15 0.03 0  0.16 0.03 0  0.17 0.03 0  0.18 0.03 0  0.19 0.03 0  0.2 0.03 0  0.21 0.03 0  0.22 0.03 0  0.23 0.03 0  0.24 0.03 0  0.25 0.03 0  0.26 0.03 0  0.27 0.03 0  0.28 0.03 0  0.29 0.03 0  0.3 0.03 0  0.31 0.03 0  0.32 0.03 0  0.33 0.03 0  0.34 0.03 0  0.35 0.03 0  0.36 0.03 0  0.37 0.03 0  0.38 0.03 0  0.39 0.03 0  0.4 0.03 0  0.41 0.03 0  0.42 0.03 0  0.43 0.03 0  0.44 0.03 0  0.45 0.03 0  0.46 0.03 0  0.47 0.03 0  0.48 0.03 0  0.49 0.03 0  0.5 0.03 0  0.51 0.03 0  0.52 0.03 0  0.53 0.03 0  0.54 0.03 0  0.55 0.03 0  0.5600000000000001 0.03 0  0.57 0.03 0  0.58 0.03 0  0.59 0.03 0  0.6 0.03 0  0.61 0.03 0  0.62 0.03 0  0.63 0.03 0  0.64 0.03 0  0.65 0.03 0  0.66 0.03 0  0.67 0.03 0  0.68 0.03 0  0.6899999999999999 0.03 0  0.7 0.03 0  0.71 0.03 0  0.72 0.03 0  0.73 0.03 0  0.74 0.03 0  0.75 0.03 0  0.76 0.03 0  0.77 0.03 0  0.78 0.03 0  0.79 0.03 0  0.8 0.03 0  0.8100000000000001 0.03 0  0.82 0.03 0  0.83 0.03 0  0.84 0.03 0  0.85 0.03 0  0.86 0.03 0  0.87 0.03 0  0.88 0.03 0  0.89 0.03 0  0.9 0.03 0  0.91 0.03 0  0.92 0.03 0  0.93 0.03 0  0.9399999999999999 0.03 0  0.95 0.03 0  0.96 0.03 0  0.97 0.03 0  0.98 0.03 0  0.99 0.03 0  1 0.03 0  0 0.04 0  0.01 0.04 0  0.02 0.04 0  0.03 0.04 0  0.04 0.04 0  0.05 0.04 0  0.06 0.04 0  0.07000000000000001 0.04 0  0.08 0.04 0  0.09 0.04 0  0.1 0.04 0  0.11 0.04 0  0.12 0.04 0  0.13 0.04 0  0.14 0.04 0  0.15 0.04 0  0.16 0.04 0  0.17 0.04 0  0.18 0.04 0  0.19 0.04 0  0.2 0.04 0  0.21 0.04 0  0.22 0.04 0  0.23 0.04 0  0.24 0.04 0  0.25 0.04 0  0.26 0.04 0  0.27 0.04 0  0.28 0.04 0  0.29 0.04 0  0.3 0.04 0  0.31 0.04 0  0.32 0.04 0  0.33 0.04 0  0.34 0.04 0  0.35 0.04 0  0.36 0.04 0  0.37 0.04 0  0.38 0.04 0  0.39 0.04 0  0.4 0.04 0  0.41 0.04 0  0.42 0.04 0  0.43 0.04 0  0.44 0.04 0  0.45 0.04 0  0.46 0.04 0  0.47 0.04 0  0.48 0.04 0  0.49 0.04 0  0.5 0.04 0  0.51 0.04 0  0.52 0.04 0  0.53 0.04 0  0.54 0.04 0  0.55 0.04 0  0.5600000000000001 0.04 0  0.57 0.04 0  0.58 0.04 0  0.59 0.04 0  0.6 0.04 0  0.61 0.04 0  0.62 0.04 0  0.63 0.04 0  0.64 0.04 0  0.65 0.04 0  0.66 0.04 0  0.67 0.04 0  0.68 0.04 0  0.6899999999999999 0.04 0  0.7 0.04 0  0.71 0.04 0  0.72 0.04 0  0.73 0.04 0  0.74 0.04 0  0.75 0.04 0  0.76 0.04 0  0.77 0.04 0  0.78 0.04 0  0.79 0.04 0  0.8 0.04 0  0.8100000000000001 0.04 0  0.82 0.04 0  0.83 0.04 0  0.84 0.04 0  0.85 0.04 0  0.86 0.04 0  0.87 0.04 0  0.88 0.04 0  0.89 0.04 0  0.9 0.04 0  0.91 0.04 0  0.92 0.04 0  0.93 0.04 0  0.9399999999999999 0.04 0  0.95 0.04 0  0.96 0.04 0  0.97 0.04 0  0.98 0.04 0  0.99 0.04 0  1 0.04 0  0 0.05 0  0.01 0.05 0  0.02 0.05 0  0.03 0.05 0  0.04 0.05 0  0.05 0.05 0  0.06 0.05 0  0.07000000000000001 0.05 0  0.08 0.05 0  0.09 0.05 0  0.1 0.05 0  0.11 0.05 0  0.12 0.05 0  0.13 0.05 0  0.14 0.05 0  0.15 0.05 0  0.16 0.05 0  0.17 0.05 0  0.18 0.05 0  0.19 0.05 0  0.2 0.05 0  0.21 0.05 0  0.22 0.05 0  0.23 0.05 0  0.24 0.05 0  0.25 0.05 0  0.26 0.05 0  0.27 0.05 0  0.28 0.05 0  0.29 0.05 0  0.3 0.05 0  0.31 0.05 0  0.32 0.05 0  0.33 0.05 0  0.34 0.05 0  0.35 0.05 0  0.36 0.05 0  0.37 0.05 0  0.38 0.05 0  0.39 0.05 0  0.4 0.05 0  0.41 0.05 0  0.42 0.05 0  0.43 0.05 0  0.44 0.05 0  0.45 0.05 0  0.46 0.05 0  0.47 0.05 0  0.48 0.05 0  0.49 0.05 0  0.5 0.05 0  0.51 0.05 0  0.52 0.05 0  0.53 0.05 0  0.54 0.05 0  0.55 0.05 0  0.5600000000000001 0.05 0  0.57 0.05 0  0.58 0.05 0  0.59 0.05 0  0.6 0.05 0  0.61 0.05 0  0.62 0.05 0  0.63 0.05 0  0.64 0.05 0  0.65 0.05 0  0.66 0.05 0  0.67 0.05 0  0.68 0.05 0  0.6899999999999999 0.05 0  0.7 0.05 0  0.71 0.05 0  0.72 0.05 0  0.73 0.05 0  0.74 0.05 0  0.75 0.05 0  0.76 0.05 0  0.77 0.05 0  0.78 0.05 0  0.79 0.05 0  0.8 0.05 0  0.8100000000000001 0.05 0  0.82 0.05 0  0.83 0.05 0  0.84 0.05 0  0.85 0.05 0  0.86 0.05 0  0.87 0.05 0  0.88 0.05 0  0.89 0.05 0  0.9 0.05 0  0.91 0.05 0  0.92 0.05 0  0.93 0.05 0  0.9399999999999999 0.05 0  0.95 0.05 0  0.96 0.05 0  0.97 0.05 0  0.98 0.05 0  0.99 0.05 0  1 0.05 0  0 0.06 0  0.01 0.06 0  0.02 0.06 0  0.03 0.06 0  0.04 0.06 0  0.05 0.06 0  0.06 0.06 0  0.07000000000000001 0.06 0  0.08 0.06 0  0.09 0.06 0  0.1 0.06 0  0.11 0.06 0  0.12 0.06 0  0.13 0.06 0  0.14 0.06 0  0.15 0.06 0  0.16 0.06 0  0.17 0.06 0  0.18 0.06 0  0.19 0.06 0  0.2 0.06 0  0.21 0.06 0  0.22 0.06 0  0.23 0.06 0  0.24 0.06 0  0.25 0.06 0  0.26 0.06 0  0.27 0.06 0  0.28 0.06 0  0.29 0.06 0  0.3 0.06 0  0.31 0.06 0  0.32 0.06 0  0.33 0.06 0  0.34 0.06 0  0.35 0.06 0  0.36 0.06 0  0.37 0.06 0  0.38 0.06 0  0.39 0.06 0  0.4 0.06 0  0.41 0.06 0  0.42 0.06 0  0.43 0.06 0  0.44 0.06 0  0.45 0.06 0  0.46 0.06 0  0.47 0.06 0  0.48 0.06 0  0.49 0.06 0  0.5 0.06 0  0.51 0.06 0  0.52 0.06 0  0.53 0.06 0  0.54 0.06 0  0.55 0.06 0  0.5600000000000001 0.06 0  0.57 0.06 0  0.58 0.06 0  0.59 0.06 0  0.6 0.06 0  0.61 0.06 0  0.62 0.06 0  0.63 0.06 0  0.64 0.06 0  0.65 0.06 0  0.66 0.06 0  0.67 0.06 0  0.68 0.06 0  0.6899999999999999 0.06 0  0.7 0.06 0  0.71 0.06 0  0.72 0.06 0  0.73 0.06 0  0.74 0.06 0  0.75 0.06 0  0.76 0.06 0  0.77 0.06 0  0.78 0.06 0  0.79 0.06 0  0.8 0.06 0  0.8100000000000001 0.06 0  0.82 0.06 0  0.83 0.06 0  0.84 0.06 0  0.85 0.06 0  0.86 0.06 0  0.87 0.06 0  0.88 0.06 0  0.89 0.06 0  0.9 0.06 0  0.91 0.06 0  0.92 0.06 0  0.93 0.06 0  0.9399999999999999 0.06 0  0.95 0.06 0  0.96 0.06 0  0.97 0.06 0  0.98 0.06 0  0.99 0.06 0  1 0.06 0  0 0.07000000000000001 0  0.01 0.07000000000000001 0  0.02 0.07000000000000001 0  0.03 0.07000000000000001 0  0.04 0.07000000000000001 0  0.05 0.07000000000000001 0  0.06 0.07000000000000001 0  0.07000000000000001 0.07000000000000001 0  0.08 0.07000000000000001 0  0.09 0.07000000000000001 0  0.1 0.07000000000000001 0  0.11 0.07000000000000001 0  0.12 0.07000000000000001 0  0.13 0.07000000000000001 0  0.14 0.07000000000000001 0  0.15 0.07000000000000001 0  0.16 0.07000000000000001 0  0.17 0.0700
[...]
<PointData  Scalars="Indicator Function"> 
<DataArray  type="Float64"  Name="Indicator Function"  format="ascii">-1.2037062152420224e-35  -6.6803407073938181e-20  1.9040067358191357e-20  3.2993263361146750e-19  3.4441784120031795e-19  -3.5653827146286073e-20  -3.1211457803850416e-20  6.5289361050963016e-19  9.3234836726944212e-19  -9.0277966143151681e-36  4.9939948469621422e-18  2.9026815945663501e-18  -4.2049297292970522e-20  -3.6405724765770129e-20  7.6730365577372818e-18  -9.0354403134253003e-21  -6.2703318331855183e-21  2.1691114110581008e-18  -3.5763710910766263e-20  -4.5138983071575840e-35  5.5915423014339356e-18  6.0185310762101120e-36  -3.8812189224650497e-20  1.3187377156834840e-17  -5.2708360692356958e-20  -2.6354180346178482e-20  -1.9805957556826827e-20  -4.6128671298988326e-20  4.1424486040985691e-17  -1.7616949073236870e-20  -8.4597046147337325e-20  -3.0272797413219875e-20  -4.9710908837577203e-20  -1.5378188281737169e-20  2.4302372201850323e-17  -9.7929620456073755e-20  -1.3023998562876989e-19  -1.4766977597465545e-19  -1.5278296946210453e-19  -1.4864647902475312e-19  8.7417160798347098e-18  -8.7743603008319064e-20  -2.5627416181636405e-20  -3.4089454103575601e-20  -1.9802954151381724e-20  -2.2869689804440354e-20  2.9887444064930131e-17  -1.4712129081588271e-20  -8.2773153353924838e-21  -1.2951089566404719e-21  -2.2741791194427240e-20  -1.1370895597213620e-20  -8.2378961185005365e-21  -9.2501001715508509e-21  -8.5635072787187718e-21  -4.9838633577397936e-21  2.4092914345589896e-19  -1.0928589796977663e-21  -3.1971922950188564e-22  -3.4825255999540844e-22  -3.7233673325794335e-22  -6.1669379106421036e-22  -4.8211759144714034e-22  -1.4323505649160525e-21  -2.0564432306502287e-21  -7.7131791338923770e-22  -2.6258066626255405e-21  -2.7369796409043651e-21  2.8010551367519130e-18  0.0000000000000000e+00  -7.2117099868440567e-23  -3.2336391961381912e-22  -4.7723573056739956e-22  -6.2617364500354508e-22  -6.3149978080756721e-22  -6.2677440034851344e-22  -6.1625571263485679e-22  -4.0640460677312328e-22  -5.7675445957207685e-22  -6.4793106129063049e-22  -6.2594144205848194e-22  -2.3499901870758292e-20  -3.6534324272680407e-22  -6.0590942181682406e-23  -4.7019774032891500e-38  -1.1429296084715229e-22  -3.0390732902454754e-22  -1.7594399720927608e-22  -1.5833661004202713e-22  -6.7815602967494527e-23  -8.0095000441434457e-23  -4.0162415397432445e-23  -2.9705434573381245e-22  7.7942675584638964e-19  -1.5464862540850659e-22  -1.5143810037326334e-22  -4.3382150823940059e-23  -9.5634843506641758e-23  -3.3869923821348598e-23  -4.6019556674608182e-23  -9.4039548065783001e-38  -3.6131485790823537e-20  5.7006881773633618e-04  2.3616424166918209e-04  1.5861903044424262e-04  3.5454172829474227e-04  2.8448847281368632e-04  5.0003801419454090e-04  3.1223663184317297e-04  7.0519466025234490e-04  5.4594164873557860e-05  3.1072384685070030e-05  4.4045833454132673e-04  7.5924621391990587e-04  3.7786969151930002e-04  4.6689238819744912e-04  2.7905776126006397e-04  2.3239141884650095e-05  7.8583143099258002e-04  1.3364546721089034e-04  6.4426174052445234e-04  2.1638778677095184e-04  3.1873643194797475e-04  2.5247591219776372e-04  5.7294028761939919e-04  2.1324211022937068e-04  9.4950941429363387e-04  7.1358482458112914e-04  9.4454013775940968e-04  3.5871019861317277e-04  6.3471748225307659e-04  8.6654485765211211e-04  1.0906924731971161e-03  6.8290899589301169e-04  5.5405762412213944e-04  1.5597739511446030e-05  8.6749348144399253e-04  1.3303964680560353e-03  1.6809967689578496e-03  1.8196838077344463e-03  1.8424513934851444e-03  1.7565512134406858e-03  1.4052518956015224e-03  8.7802228344888047e-04  4.6166248786434522e-04  3.8326976726033425e-04  8.2396741185088856e-04  6.0125544568735874e-04  5.3006031239734058e-04  2.8728216790965778e-04  5.4697730855777775e-06  2.0595722315331921e-05  4.0967968939584052e-04  1.0977515460653572e-04  9.3513166255115642e-05  1.1987840761538683e-04  9.4327228949996135e-05  6.8874167792262064e-05  4.5482852103873066e-05  2.4881260751362374e-05  1.4919926085995923e-05  1.0805008081872727e-05  7.7605147304313349e-06  7.2291103453382343e-06  1.4582142441486441e-05  1.8511862660936191e-05  2.7789656538591689e-05  1.1994006103942090e-05  4.1305324577418353e-05  2.8652379674881381e-05  1.4820715171513978e-05  4.9386841166541926e-06  1.2991461763782000e-06  5.1756334233223348e-06  6.0092979217437447e-06  8.2754926163568890e-06  7.2383424019395889e-06  7.6717926224499266e-06  7.2655796799241604e-06  9.1948829271940767e-06  9.0736252510768564e-06  8.4018844160984195e-06  7.0750163727920966e-06  9.0139335638381714e-06  4.4757552326709820e-06  2.6447105117176118e-06  3.7322283700378008e-06  4.1524158925886528e-07  6.3390505621581673e-06  2.8710531448513052e-06  1.4168122195118693e-06  2.8857265131382731e-06  2.1377288102861731e-07  6.1661531555839368e-07  5.3512553630221837e-06  9.1156560066055603e-07  2.3301191667221619e-06  1.5630067062818160e-06  1.0050231438269006e-06  1.2202926104071396e-06  1.6580292663321647e-06  4.6019556674608029e-23  -1.2812661675949239e-20  6.5088698377558090e-04  1.6748572351846006e-04  9.5313853334406772e-05  9.9724484713741664e-06  3.3859042938139854e-04  5.4468636121175870e-04  6.5922074335229635e-04  7.8292837927941930e-04  7.1693294828393693e-05  1.8211481304638533e-04  4.9073442429803979e-04  6.7334689625690974e-04  1.0029875754755738e-03  9.5598492139505097e-04  6.3847679190456093e-04  1.2476345387235188e-03  8.1228040718813875e-05  4.9276583957138913e-04  1.0059244850537177e-03  4.8081447206466794e-04  1.6466377045135066e-03  1.0729550874849880e-03  1.7779542732046804e-03  1.0245765744402069e-03  1.2971143928409909e-03  4.0939284055628935e-05  3.2682683627727378e-04  1.7592969116680503e-03  1.2803342338438223e-03  3.8634233057116245e-05  1.7606387825070387e-03  1.1604749314341991e-04  1.1887006224634937e-03  6.7827795702247540e-04  1.1842406614767579e-03  1.6449916242738129e-03  2.1907019763348239e-03  2.5238829141457217e-03  2.6188856111483924e-03  2.5475175758706290e-03  2.3440145589443502e-03  1.7676134317922121e-03  2.3858905155680691e-04  1.0965312933161123e-03  9.5265576157777530e-04  9.1400759628492529e-04  1.2934385429583532e-03  1.1053605058751967e-03  3.8611322668153655e-04  3.6936869227798306e-04  6.6921253465836129e-04  2.0820486996478795e-04  2.8950297142170866e-04  1.1854026501565367e-04  1.2797543793458636e-04  9.5468753430570945e-05  8.0033235475230363e-05  4.7063762402859608e-05  2.7159194400342366e-05  1.8443930687297299e-05  1.1947479944134048e-05  1.3713986630315263e-05  1.1951593119311240e-05  2.5694004940820036e-05  3.1960222893825236e-05  1.8179300592253992e-05  5.7729276598690440e-05  4.9069079586136625e-05  2.0097070291346133e-05  1.1122338347340635e-05  2.0855373684157668e-06  4.4483248103469687e-06  8.0547339482640482e-06  8.9437907269126554e-06  1.0697582418624452e-05  1.2678428939854929e-05  1.1651516547299060e-05  8.3183805877623574e-06  1.2403569019488051e-05  1.3118079380026753e-05  1.4954897159406622e-05  1.0296972188202920e-05  7.6635068189088277e-06  6.5883655831166166e-06  8.4307181884344563e-07  7.0349184844615422e-06  7.1978265353534611e-06  2.5745887555587320e-06  8.6259462965610739e-06  8.8604282392356831e-06  2.5245414823940411e-06  4.2653926766492177e-06  1.0962701160315363e-05  4.8398903631024816e-06  8.3778927077227764e-06  1.4903070405583182e-06  1.2939071489547147e-06  4.9405574659184632e-06  1.7875685831172551e-06  4.4653495479150277e-22  -2.4196558225013539e-20  2.3081239339771764e-04  4.5485463774504111e-04  7.5673996030633167e-05  5.3712535399213590e-04  7.4768585533068778e-04  6.6477007599273919e-04  8.7878951899390725e-04  2.2446396036244858e-04  1.3445660916143354e-03  5.1071279462091472e-04  7.4102370557808899e-06  1.0653058714387123e-03  1.2711323581339419e-03  2.7547309765138859e-04  1.0287057492768027e-03  1.9013166621148511e-04  3.2756544241477835e-04  1.5697552889331432e-03  8.3992649256858169e-04  1.7794727050423390e-03  4.3767615477439812e-04  1.1477863556717230e-03  3.1540180970281579e-04  1.6884063445033565e-03  1.4537497313358244e-03  2.5078848797982839e-03  2.1262367480605077e-03  2.0426028689094532e-03  7.8549020333568186e-04  2.1824805048970019e-03  1.9997885647590513e-03  2.1555175364933420e-03  2.2681541823313125e-03  1.0182326921005392e-03  2.7482589059205862e-04  2.0214269188511681e-03  2.2687623201193890e-03  2.7768169243639978e-03  2.9942625175172631e-03  3.0316810786374720e-03  2.8476912217792879e-03  2.1711041358901790e-03  1.4081802040435951e-03  1.4090177936371144e-03  7.5702639307897372e-04  2.3927438036380330e-03  1.3806879371411030e-03  8.1057238026196988e-04  4.4972556018099138e-04  1.2125685148593798e-04  1.7618425023560656e-04  1.0402022439891198e-03  4.7056215651236763e-04  2.2149866957260495e-04  1.1004800428619018e-04  8.2394194238555061e-05  8.1112509868853659e-05  7.1231734998437475e-05  3.8872023250887377e-05  2.5303461334209164e-05  2.0268088666400204e-05  1.2930730942174421e-05  1.3615829743569828e-05  2.4786194965914737e-05  2.7611963521128647e-05  4.3982646638051515e-05  3.6371811595939991e-05  7.8132157114970411e-05  2.6858158812468678e-05  8.7820895220921962e-06  5.9365056710141054e-06  3.3070322686209570e-07  7.0637140854933958e-06  8.9363495652678814e-06  1.2372008940954918e-05  9.7552804733280163e-06  1.3690307098676463e-05  1.3278482917126300e-05  1.3791110134534185e-05  1.3939214344009801e-05  1.2687379127979842e-05  1.3683195766332218e-05  1.5888675679935435e-05  5.3215599566618741e-06  6.1972534349977881e-06  6.7712192489538540e-06  1.2656027850169202e-06  1.6276362051176299e-05  6.6991823249373682e-06  2.6020429790396678e-06  1.4059647697013739e-05  1.7518104901480723e-07  2.5130827633389546e-06  1.7485882311011280e-05  4.9744828572960723e-06  6.5206716440782016e-06  2.6199681221360384e-07  4.7525130994652888e-06  5.6634587265828549e-06  -7.8596278465831869e-22  -1.8772036089945803e-20  4.3588644242327875e-04  6.1390410091704780e-04  2.2467760642446577e-06  1.5459252415956663e-04  4.9025378249372060e-04  6.9759145476347222e-04  1.1725917911832486e-03  1.0633641221430197e-03  6.8076237897583846e-04  2.1333325644206294e-04  1.1541952618112597e-05  4.7771865675130625e-04  1.0225665631007424e-03  1.5136112889042833e-03  7.7375234463722973e-04  9.8354271210523655e-04  1.8061668373294587e-03  3.5736384160667056e-04  1.1922235700113351e-03  6.9533344734167848e-04  4.2481279699330902e-04  2.1669832573162537e-03  1.7073350369676730e-03  2.5494366831766853e-03  1.3460607896759790e-03  1.3734728655251298e-03  5.2333404865608098e-04  1.4968136663463430e-03  3.3449566060572357e-03  2.0305714169405117e-03  7.1720809991242696e-04  3.2645599894194437e-03  3.8972295674588982e-04  2.6923456865158421e-03  8.5891672314958615e-04  2.0295235422581812e-03  2.4523783384851924e-03  2.8369178007397132e-03  3.2228305515974646e-03  3.3214761840805553e-03  3.2358544068368180e-03  2.9746837940757141e-03  2.0688270512849941e-03  5.6250482300338606e-04  2.0242560764827441e-03  1.5380516727560428e-03  2.0943911481937252e-03  2.8766307077362284e-03  2.2853874510755218e-03  1.0340952218200869e-03  3.8753357272377896e-04  9.8450811659889790e-04  4.6730649555821346e-04  7.3206113913126120e-04  1.3542907457771112e-04  8.4258622929302059e-05  5.3810538107948711e-05  7.4201758041382123e-05  5.0790535379942243e-05  3.0131453509312836e-05  2.2572916540994030e-05  1.5796593398031090e-05  1.7579630310334754e-05  1.2627198276191985e-05  3.4848485224152466e-05  3.6803722042999975e-05  2.6692721564193501e-05  9.5718789079552724e-05  6.1591264795187283e-05  3.8620120396055013e-06  3.2675650942926419e-06  1.4002172321478714e-06  2.8313189419337220e-06  8.2523693088485847e-06  9.1921378312686705e-06  1.3437760496365628e-05  1.2871823820269263e-05  1.2747239083707357e-05  1.0014072730709748e-05  1.6790017001129864e-05  1.6390985638736529e-05  1.6323515823159098e-05  1.0845381098915975e-05  1.1218569505728992e-05  6.9996428978307605e-06  2.7097980066176649e-06  1.3948330939510151e-05  7.0008138581602832e-06  8.6347906698420082e-06  1.3118468949260141e-05  1.5666216374948698e-05  9.8152840484325446e-06  4.7027832598929833e-06  1.5859708488309072e-05  7.0332178603714647e-07  1.2776295769404846e-05  8.0953392488553882e-07  1.0233198460789433e-06  4.4378624810522849e-06  1.0542581309379657e-21  -2.3202904915084849e-20  3.3816693895866124e-04  5.9006193457577334e-04  9.5907159593256722e-04  1.3280704538405080e-04  5.6106780723364012e-04  7.2164087783486541e-04  6.8559149805137579e-04  1.3273783918760977e-03  4.0799768627918144e-04  1.6862119372397612e-03  9.1674900194626565e-04  2.2570809315804622e-05  1.4127931671383512e-03  1.4780559895286901e-03  3.8639987751505443e-04  1.2745995103147373e-03  9.6879549358981187e-04  1.0422229683043573e-03  1.5386130909885562e-03  9.8263555696778367e-04  2.3404346553361579e-03  1.1307341078531129e-03  2.0816871129071021e-03  1.1939242018728208e-03  2.8101324289467639e-03  2.5439541427491647e-03  3.6386649361615916e-03  2.8280295904211587e-03  2.1741383084245957e-03  1.7075758770147712e-03  3.6197789759131777e-03  2.5051457040789942e-03  3.5342988045688039e-03  3.1262198812596551e-03  1.8524627760356453e-03  3.7218379461305683e-04  3.0822057766734111e-03  2.9126717770148365e-03  3.3702963642075700e-03  3.5972240338633227e-03  3.6212928059873779e-03  3.3878078190510102e-03  2.5904430216247272e-03  1.6468478727951924e-03  2.2789003577103339e-03  1.3798404047728296e-03  3.7058867471191454e-03  1.3406673169685092e-03  5.5566885454966018e-05  1.7278711770433159e-04  1.4745181739495624e-04  4.0686821100166287e-04  1.5826312801124622e-03  5.7981391390838982e-04  4.9852584841150868e-04  8.6464475103450482e-05  4.1687847443938844e-05  5.5014791458594658e-05  7.2023021206119934e-05  3.6706175414997337e-05  2.4619236972113128e-05  2.1995075087233488e-05  1.2212544503586855e-05  1.5463704703400920e-05  2.4085957853523651e-05  3.2060568066673489e-05  5.3220055809998430e-05  4.2976871175498626e-05  1.1035942519418137e-04  2.2378756218460778e-05  4.6774770703487833e-06  2.8576591985097455e-06  1.1258526573250078e-06  5.7976262097900885e-06  8.1398557750919268e-06  1.0996823649247953e-05  1.0984350536361846e-05  1.4760677580796009e-05  1.3211898510170947e-05  1.1808047013096030e-05  1.5824227750123095e-05  1.4740195838637214e-05  1.6173063747666501e-05  1.4743681226761283e-05  4.4678174929656779e-06  5.9189266335529420e-06  5.8877174269414075e-06  6.3311379002117405e-06  2.0949999346474451e-05  6.6517638262620121e-06  5.5729128844951757e-06  2.5265034388985758e-05  2.5972088688995823e-06  2.9728143808463729e-06  2.7926988498882846e-05  6.2919163230302542e-06  1.6224299681941561e-05  3.7417926135596856e-06  4.6681401459712624e-07  3.7615819226313200e-37  -1.2745458335063260e-20  4.1798637571795693e-04  6.5234528363053142e-04  5.6146094987390637e-04  6.0593818514156678e-04  2.4786113192670637e-04  6.0145411218731431e-04  1.0746921375061607e-03  1.5332940576639087e-03  1.3810689903685166e-03  6.0409025740841853e-04  5.3910934361181074e-04  4.0997603844003207e-04  4.4607971430396640e-04  1.4994954864119266e-03  1.8694822301595008e-03  5.4572425900001483e-04  8.7785608176438519e-04  1.5099126110955422e-03  1.8617237229195637e-04  1.6712951606063001e-03  1.9946006127873625e-04  1.1172822344035794e-04  1.8345040822296277e-03  1.5212322246688226e-03  2.4542954861402661e-03  9.2128120316973205e-04  8.0493317996690084e-04  1.4208216037462876e-03  2.5000802260514185e-03  4.4964331546165871e-03  2.1634980382992915e-03  1.8459460898755762e-03  4.5078967638773710e-03  9.7508508482197105e-04  4.0999388662911768e-03  1.2009919039149693e-03  2.5207091649741757e-03  3.4395228492012514e-03  3.4739064917851171e-03  3.8518895721619453e-03  3.9447991267590049e-03  3.8457041941282700e-03  3.5010625525635406e-03  2.2928633472719235e-03  7.1303744606507238e-04  3.1115135823869080e-03  1.7852357203011252e-03  3.3965181872448427e-03  3.6996134643904051e-03  2.5512249841408161e-03  1.1788386814807360e-03  3.7456945996358149e-04  9.7057814104417790e-04  8.7013455433576268e-04  1.0564731749648840e-03  2.2773779492592445e-04  3.1245150312371480e-05  9.8201191537073603e-06  6.2784004328019077e-05  5.8704811208123264e-05  3.2195789765808787e-05  2.3399882891068964e-05  1.7766230427178697e-05  1.7043707973986079e-05  1.2234364030137160e-05  3.8177628102642750e-05  3.7661039725259429e-05  3.6330697618434123e-05  1.2118365246841695e-04  7.7833754867261999e-05  1.0982142277988579e-05  5.9230260103617957e-06  2.5436937377030580e-06  1.8044712306769814e-06  7.5633547647673213e-06  8.1690419539779513e-06  1.2041583485970586e-05  1.1315451616441381e-05  1.3073519258724940e-05  1.1020696627854141e-05  1.5363238182046516e-05  1.6332229025174438e-05  1.5254601452915993e-05  1.3290568939055496e-05  1.1122518259350058e-05  3.9071899239120067e-06  3.4628195706797763e-06  1.3105266504208210e-05  5.0482949628493197e-06  1.3342130843029689e-05  1.7579399435950589e-05  1.5051811519106278e-05  2.0412981270000321e-05  5.3037456008298009e-06  1.5644874339831504e-05  1.1119304818566390e-05  1.0805294202940009e-05  7.8817193595817557e-06  4.7458350810270746e-06  3.2913841823024050e-37  -2.0890817202690395e-20  2.2960176563382840e-04  5.3100400749247730e-04  8.7295436435993210e-04  9.0927374399387936e-04  6.3853086607005638e-05  7.0576455076189670e-04  4.7387190137392266e-04  3.9833362281288157e-04  1.7596205371193504e-03  6.4735776026625662e-04  1.6669892696555798e-03  9.1247559946110255e-04  1.7125306734905085e-04  1.5257589069986547e-03  1.8228001934584759e-03  6.7683947283869977e-04  1.1194461805671158e-03  1.1973411144560310e-03  1.3423842886841723e-03  1.3539426998213026e-03  5.4899446838540362e-04  2.1291429826122464e-03  9.5064569101077937e-04  2.3322768093740655e-03  1.4294344887794063e-03  3.2087293874491366e-03  2.7625954002738298e-03  3.8327585867278489e-03  2.7150976628049312e-03  1.7708544249285560e-03  2.7240569739742570e-03  4.4516721041797710e-03  2.5124584593758906e-03  5.0478021872767953e-03  3.5155861770805740e-03  3.1446146001832811e-03  4.4721286582299978e-04  3.9541937892525530e-03  3.7942915419608967e-03  4.0798921812332687e-03  4.2979116967408453e-03  4.3033642422167203e-03  4.0253097094381492e-03  3.0642742505113119e-03  1.7486075559764978e-03  2.8699099297158676e-03  2.2011366933735372e-03  4.5693150008806098e-03  8.9902731089875167e-04  8.0408961324609834e-04  8.4540368151274847e-04  6.0107179260108872e-04  3.6711724790668908e-04  1.8573493140063178e-03  4.3079924346593745e-04  8.7576684731349805e-04  8.5178622938518372e-05  1.5253954271109835e-05  1.1101669790957461e-05  6.5118278901745891e-05  4.0738065861597543e-05  2.8962007196198656e-05  2.5319416421559225e-05  1.3355019570509487e-05  1.7456266028830611e-05  2.2487911074961337e-05  3.8716385652897251e-05  5.6552839555388368e-05  4.1452158574755780e-05  1.4377477791608056e-04  2.4524430424306485e-05  1.9475666257540602e-05  3.2134279705682283e-06  4.2006033072958733e-07  2.5437470809142810e-06  7.4481181764495693e-06  9.7217513061736824e-06  1.0602094024143983e-05  1.1642299531105912e-05  1.1360086966685926e-05  1.1117466982130767e-05  1.5679273831414256e-05  1.4329468143152813e-05  1.3658086332084041e-05  1.4340605778556576e-05  4.8261803309157918e-06  1.3127380733554202e-06  6.4557998905533475e-06  9.7633011878940419e-06  1.6880375074977876e-05  5.9787060731456036e-06  1.3570101480993177e-05  2.4973612685049447e-05  5.8932912039129206e-06  4.9743704248528458e-06  2.8547073721670346e-05  1.8261007729148928e-06  1.7055835107347453e-05  5.9270810572606758e-06  -8.2254773232380206e-22  -1.4829310250711368e-20  3.7633550627800779e-04  6.4548134454643451e-04  7.0964026138238111e-04  6.9446413871625213e-04  9.8322676809969086e-04  1.2801154815614488e-04  5.0669765067196516e-04  1.0020318508389768e-03  1.5927549274534433e-03  1.7662456718216797e-03  7.6001001066460688e-04  5.6439886355955646e-04  6.4696188609472921e-04  4.2089933850778530e-04  1.8267764254900865e-03  2.1401348016430745e-