<?xml version="1.0"?>
<VTKFile type="UnstructuredGrid"  version="0.1"  >
<UnstructuredGrid>
<Piece  NumberOfPoints="10201" NumberOfCells="20000">
<Points>
<DataArray  type="Float64"  NumberOfComponents="3"  format="ascii">0 0 0  0.01 0 0  0.02 0 0  0.03 0 0  0.04 0 0  0.05 0 0  0.06 0 0  0.07000000000000001 0 0  0.08 0 0  0.09 0 0  0.1 0 0  0.11 0 0  0.12 0 0  0.13 0 0  0.14 0 0  0.15 0 0  0.16 0 0  0.17 0 0  0.18 0 0  0.19 0 0  0.2 0 0  0.21 0 0  0.22 0 0  0.23 0 0  0.24 0 0  0.25 0 0  0.26 0 0  0.27 0 0  0.28 0 0  0.29 0 0  0.3 0 0  0.31 0 0  0.32 0 0  0.33 0 0  0.34 0 0  0.35 0 0  0.36 0 0  0.37 0 0  0.38 0 0  0.39 0 0  0.4 0 0  0.41 0 0  0.42 0 0  0.43 0 0  0.44 0 0  0.45 0 0  0.46 0 0  0.47 0 0  0.48 0 0  0.49 0 0  0.5 0 0  0.51 0 0  0.52 0 0  0.53 0 0  0.54 0 0  0.55 0 0  0.5600000000000001 0 0  0.57 0 0  0.58 0 0  0.59 0 0  0.6 0 0  0.61 0 0  0.62 0 0  0.63 0 0  0.64 0 0  0.65 0 0  0.66 0 0  0.67 0 0  0.68 0 0  0.6899999999999999 0 0  0.7 0 0  0.71 0 0  0.72 0 0  0.73 0 0  0.74 0 0  0.75 0 0  0.76 0 0  0.77 0 0  0.78 0 0  0.79 0 0  0.8 0 0  0.8100000000000001 0 0  0.82 0 0  0.83 0 0  0.84 0 0  0.85 0 0  0.86 0 0  0.87 0 0  0.88 0 0  0.89 0 0  0.9 0 0  0.91 0 0  0.92 0 0  0.93 0 0  0.9399999999999999 0 0  0.95 0 0  0.96 0 0  0.97 0 0  0.98 0 0  0.99 0 0  1 0 0  0 0.01 0  0.01 0.01 0  0.02 0.01 0  0.03 0.01 0  0.04 0.01 0  0.05 0.01 0  0.06 0.01 0  0.07000000000000001 0.01 0  0.08 0.01 0  0.09 0.01 0  0.1 0.01 0  0.11 0.01 0  0.12 0.01 0  0.13 0.01 0  0.14 0.01 0  0.15 0.01 0  0.16 0.01 0  0.17 0.01 0  0.18 0.01 0  0.19 0.01 0  0.2 0.01 0  0.21 0.01 0  0.22 0.01 0  0.23 0.01 0  0.24 0.01 0  0.25 0.01 0  0.26 0.01 0  0.27 0.01 0  0.28 0.01 0  0.29 0.01 0  0.3 0.01 0  0.31 0.01 0  0.32 0.01 0  0.33 0.01 0  0.34 0.01 0  0.35 0.01 0  0.36 0.01 0  0.37 0.01 0  0.38 0.01 0  0.39 0.01 0  0.4 0.01 0  0.41 0.01 0  0.42 0.01 0  0.43 0.01 0  0.44 0.01 0  0.45 0.01 0  0.46 0.01 0  0.47 0.01 0  0.48 0.01 0  0.49 0.01 0  0.5 0.01 0  0.51 0.01 0  0.52 0.01 0  0.53 0.01 0  0.54 0.01 0  0.55 0.01 0  0.5600000000000001 0.01 0  0.57 0.01 0  0.58 0.01 0  0.59 0.01 0  0.6 0.01 0  0.61 0.01 0  0.62 0.01 0  0.63 0.01 0  0.64 0.01 0  0.65 0.01 0  0.66 0.01 0  0.67 0.01 0  0.68 0.01 0  0.6899999999999999 0.01 0  0.7 0.01 0  0.71 0.01 0  0.72 0.01 0  0.73 0.01 0  0.74 0.01 0  0.75 0.01 0  0.76 0.01 0  0.77 0.01 0  0.78 0.01 0  0.79 0.01 0  0.8 0.01 0  0.8100000000000001 0.01 0  0.82 0.01 0  0.83 0.01 0  0.84 0.01 0  0.85 0.01 0  0.86 0.01 0  0.87 0.01 0  0.88 0.01 0  0.89 0.01 0  0.9 0.01 0  0.91 0.01 0  0.92 0.01 0  0.93 0.01 0  0.9399999999999999 0.01 0  0.95 0.01 0  0.96 0.01 0  0.97 0.01 0  0.98 0.01 0  0.99 0.01 0  1 0.01 0  0 0.02 0  0.01 0.02 0  0.02 0.02 0  0.03 0.02 0  0.04 0.02 0  0.05 0.02 0  0.06 0.02 0  0.07000000000000001 0.02 0  0.08 0.02 0  0.09 0.02 0  0.1 0.02 0  0.11 0.02 0  0.12 0.02 0  0.13 0.02 0  0.14 0.02 0  0.15 0.02 0  0.16 0.02 0  0.17 0.02 0  0.18 0.02 0  0.19 0.02 0  0.2 0.02 0  0.21 0.02 0  0.22 0.02 0  0.23 0.02 0  0.24 0.02 0  0.25 0.02 0  0.26 0.02 0  0.27 0.02 0  0.28 0.02 0  0.29 0.02 0  0.3 0.02 0  0.31 0.02 0  0.32 0.02 0  0.33 0.02 0  0.34 0.02 0  0.35 0.02 0  0.36 0.02 0  0.37 0.02 0  0.38 0.02 0  0.39 0.02 0  0.4 0.02 0  0.41 0.02 0  0.42 0.02 0  0.43 0.02 0  0.44 0.02 0  0.45 0.02 0  0.46 0.02 0  0.47 0.02 0  0.48 0.02 0  0.49 0.02 0  0.5 0.02 0  0.51 0.02 0  0.52 0.02 0  0.53 0.02 0  0.54 0.02 0  0.55 0.02 0  0.5600000000000001 0.02 0  0.57 0.02 0  0.58 0.02 0  0.59 0.02 0  0.6 0.02 0  0.61 0.02 0  0.62 0.02 0  0.63 0.02 0  0.64 0.02 0  0.65 0.02 0  0.66 0.02 0  0.67 0.02 0  0.68 0.02 0  0.6899999999999999 0.02 0  0.7 0.02 0  0.71 0.02 0  0.72 0.02 0  0.73 0.02 0  0.74 0.02 0  0.75 0.02 0  0.76 0.02 0  0.77 0.02 0  0.78 0.02 0  0.79 0.02 0  0.8 0.02 0  0.8100000000000001 0.02 0  0.82 0.02 0  0.83 0.02 0  0.84 0.02 0  0.85 0.02 0  0.86 0.02 0  0.87 0.02 0  0.88 0.02 0  0.89 0.02 0  0.9 0.02 0  0.91 0.02 0  0.92 0.02 0  0.93 0.02 0  0.9399999999999999 0.02 0  0.95 0.02 0  0.96 0.02 0  0.97 0.02 0  0.98 0.02 0  0.99 0.02 0  1 0.02 0  0 0.03 0  0.01 0.03 0  0.02 0.03 0  0.03 0.03 0  0.04 0.03 0  0.05 0.03 0  0.06 0.03 0  0.07000000000000001 0.03 0  0.08 0.03 0  0.09 0.03 0  0.1 0.03 0  0.11 0.03 0  0.12 0.03 0  0.13 0.03 0  0.14 0.03 0  0.15 0.03 0  0.16 0.03 0  0.17 0.03 0  0.18 0.03 0  0.19 0.03 0  0.2 0.03 0  0.21 0.03 0  0.22 0.03 0  0.23 0.03 0  0.24 0.03 0  0.25 0.03 0  0.26 0.03 0  0.27 0.03 0  0.28 0.03 0  0.29 0.03 0  0.3 0.03 0  0.31 0.03 0  0.32 0.03 0  0.33 0.03 0  0.34 0.03 0  0.35 0.03 0  0.36 0.03 0  0.37 0.03 0  0.38 0.03 0  0.39 0.03 0  0.4 0.03 0  0.41 0.03 0  0.42 0.03 0  0.43 0.03 0  0.44 0.03 0  0.45 0.03 0  0.46 0.03 0  0.47 0.03 0  0.48 0.03 0  0.49 0.03 0  0.5 0.03 0  0.51 0.03 0  0.52 0.03 0  0.53 0.03 0  0.54 0.03 0  0.55 0.03 0  0.5600000000000001 0.03 0  0.57 0.03 0  0.58 0.03 0  0.59 0.03 0  0.6 0.03 0  0.61 0.03 0  0.62 0.03 0  0.63 0.03 0  0.64 0.03 0  0.65 0.03 0  0.66 0.03 0  0.67 0.03 0  0.68 0.03 0  0.6899999999999999 0.03 0  0.7 0.03 0  0.71 0.03 0  0.72 0.03 0  0.73 0.03 0  0.74 0.03 0  0.75 0.03 0  0.76 0.03 0  0.77 0.03 0  0.78 0.03 0  0.79 0.03 0  0.8 0.03 0  0.8100000000000001 0.03 0  0.82 0.03 0  0.83 0.03 0  0.84 0.03 0  0.85 0.03 0  0.86 0.03 0  0.87 0.03 0  0.88 0.03 0  0.89 0.03 0  0.9 0.03 0  0.91 0.03 0  0.92 0.03 0  0.93 0.03 0  0.9399999999999999 0.03 0  0.95 0.03 0  0.96 0.03 0  0.97 0.03 0  0.98 0.03 0  0.99 0.03 0  1 0.03 0  0 0.04 0  0.01 0.04 0  0.02 0.04 0  0.03 0.04 0  0.04 0.04 0  0.05 0.04 0  0.06 0.04 0  0.07000000000000001 0.04 0  0.08 0.04 0  0.09 0.04 0  0.1 0.04 0  0.11 0.04 0  0.12 0.04 0  0.13 0.04 0  0.14 0.04 0  0.15 0.04 0  0.16 0.04 0  0.17 0.04 0  0.18 0.04 0  0.19 0.04 0  0.2 0.04 0  0.21 0.04 0  0.22 0.04 0  0.23 0.04 0  0.24 0.04 0  0.25 0.04 0  0.26 0.04 0  0.27 0.04 0  0.28 0.04 0  0.29 0.04 0  0.3 0.04 0  0.31 0.04 0  0.32 0.04 0  0.33 0.04 0  0.34 0.04 0  0.35 0.04 0  0.36 0.04 0  0.37 0.04 0  0.38 0.04 0  0.39 0.04 0  0.4 0.04 0  0.41 0.04 0  0.42 0.04 0  0.43 0.04 0  0.44 0.04 0  0.45 0.04 0  0.46 0.04 0  0.47 0.04 0  0.48 0.04 0  0.49 0.04 0  0.5 0.04 0  0.51 0.04 0  0.52 0.04 0  0.53 0.04 0  0.54 0.04 0  0.55 0.04 0  0.5600000000000001 0.04 0  0.57 0.04 0  0.58 0.04 0  0.59 0.04 0  0.6 0.04 0  0.61 0.04 0  0.62 0.04 0  0.63 0.04 0  0.64 0.04 0  0.65 0.04 0  0.66 0.04 0  0.67 0.04 0  0.68 0.04 0  0.6899999999999999 0.04 0  0.7 0.04 0  0.71 0.04 0  0.72 0.04 0  0.73 0.04 0  0.74 0.04 0  0.75 0.04 0  0.76 0.04 0  0.77 0.04 0  0.78 0.04 0  0.79 0.04 0  0.8 0.04 0  0.8100000000000001 0.04 0  0.82 0.04 0  0.83 0.04 0  0.84 0.04 0  0.85 0.04 0  0.86 0.04 0  0.87 0.04 0  0.88 0.04 0  0.89 0.04 0  0.9 0.04 0  0.91 0.04 0  0.92 0.04 0  0.93 0.04 0  0.9399999999999999 0.04 0  0.95 0.04 0  0.96 0.04 0  0.97 0.04 0  0.98 0.04 0  0.99 0.04 0  1 0.04 0  0 0.05 0  0.01 0.05 0  0.02 0.05 0  0.03 0.05 0  0.04 0.05 0  0.05 0.05 0  0.06 0.05 0  0.07000000000000001 0.05 0  0.08 0.05 0  0.09 0.05 0  0.1 0.05 0  0.11 0.05 0  0.12 0.05 0  0.13 0.05 0  0.14 0.05 0  0.15 0.05 0  0.16 0.05 0  0.17 0.05 0  0.18 0.05 0  0.19 0.05 0  0.2 0.05 0  0.21 0.05 0  0.22 0.05 0  0.23 0.05 0  0.24 0.05 0  0.25 0.05 0  0.26 0.05 0  0.27 0.05 0  0.28 0.05 0  0.29 0.05 0  0.3 0.05 0  0.31 0.05 0  0.32 0.05 0  0.33 0.05 0  0.34 0.05 0  0.35 0.05 0  0.36 0.05 0  0.37 0.05 0  0.38 0.05 0  0.39 0.05 0  0.4 0.05 0  0.41 0.05 0  0.42 0.05 0  0.43 0.05 0  0.44 0.05 0  0.45 0.05 0  0.46 0.05 0  0.47 0.05 0  0.48 0.05 0  0.49 0.05 0  0.5 0.05 0  0.51 0.05 0  0.52 0.05 0  0.53 0.05 0  0.54 0.05 0  0.55 0.05 0  0.5600000000000001 0.05 0  0.57 0.05 0  0.58 0.05 0  0.59 0.05 0  0.6 0.05 0  0.61 0.05 0  0.62 0.05 0  0.63 0.05 0  0.64 0.05 0  0.65 0.05 0  0.66 0.05 0  0.67 0.05 0  0.68 0.05 0  0.6899999999999999 0.05 0  0.7 0.05 0  0.71 0.05 0  0.72 0.05 0  0.73 0.05 0  0.74 0.05 0  0.75 0.05 0  0.76 0.05 0  0.77 0.05 0  0.78 0.05 0  0.79 0.05 0  0.8 0.05 0  0.8100000000000001 0.05 0  0.82 0.05 0  0.83 0.05 0  0.84 0.05 0  0.85 0.05 0  0.86 0.05 0  0.87 0.05 0  0.88 0.05 0  0.89 0.05 0  0.9 0.05 0  0.91 0.05 0  0.92 0.05 0  0.93 0.05 0  0.9399999999999999 0.05 0  0.95 0.05 0  0.96 0.05 0  0.97 0.05 0  0.98 0.05 0  0.99 0.05 0  1 0.05 0  0 0.06 0  0.01 0.06 0  0.02 0.06 0  0.03 0.06 0  0.04 0.06 0  0.05 0.06 0  0.06 0.06 0  0.07000000000000001 0.06 0  0.08 0.06 0  0.09 0.06 0  0.1 0.06 0  0.11 0.06 0  0.12 0.06 0  0.13 0.06 0  0.14 0.06 0  0.15 0.06 0  0.16 0.06 0  0.17 0.06 0  0.18 0.06 0  0.19 0.06 0  0.2 0.06 0  0.21 0.06 0  0.22 0.06 0  0.23 0.06 0  0.24 0.06 0  0.25 0.06 0  0.26 0.06 0  0.27 0.06 0  0.28 0.06 0  0.29 0.06 0  0.3 0.06 0  0.31 0.06 0  0.32 0.06 0  0.33 0.06 0  0.34 0.06 0  0.35 0.06 0  0.36 0.06 0  0.37 0.06 0  0.38 0.06 0  0.39 0.06 0  0.4 0.06 0  0.41 0.06 0  0.42 0.06 0  0.43 0.06 0  0.44 0.06 0  0.45 0.06 0  0.46 0.06 0  0.47 0.06 0  0.48 0.06 0  0.49 0.06 0  0.5 0.06 0  0.51 0.06 0  0.52 0.06 0  0.53 0.06 0  0.54 0.06 0  0.55 0.06 0  0.5600000000000001 0.06 0  0.57 0.06 0  0.58 0.06 0  0.59 0.06 0  0.6 0.06 0  0.61 0.06 0  0.62 0.06 0  0.63 0.06 0  0.64 0.06 0  0.65 0.06 0  0.66 0.06 0  0.67 0.06 0  0.68 0.06 0  0.6899999999999999 0.06 0  0.7 0.06 0  0.71 0.06 0  0.72 0.06 0  0.73 0.06 0  0.74 0.06 0  0.75 0.06 0  0.76 0.06 0  0.77 0.06 0  0.78 0.06 0  0.79 0.06 0  0.8 0.06 0  0.8100000000000001 0.06 0  0.82 0.06 0  0.83 0.06 0  0.84 0.06 0  0.85 0.06 0  0.86 0.06 0  0.87 0.06 0  0.88 0.06 0  0.89 0.06 0  0.9 0.06 0  0.91 0.06 0  0.92 0.06 0  0.93 0.06 0  0.9399999999999999 0.06 0  0.95 0.06 0  0.96 0.06 0  0.97 0.06 0  0.98 0.06 0  0.99 0.06 0  1 0.06 0  0 0.07000000000000001 0  0.01 0.07000000000000001 0  0.02 0.07000000000000001 0  0.03 0.07000000000000001 0  0.04 0.07000000000000001 0  0.05 0.07000000000000001 0  0.06 0.07000000000000001 0  0.07000000000000001 0.07000000000000001 0  0.08 0.07000000000000001 0  0.09 0.07000000000000001 0  0.1 0.07000000000000001 0  0.11 0.07000000000000001 0  0.12 0.07000000000000001 0  0.13 0.07000000000000001 0  0.14 0.07000000000000001 0  0.15 0.07000000000000001 0  0.16 0.07000000000000001 0  0.17 0.0700
[...]
<PointData  Scalars="u"> 
<DataArray  type="Float64"  Name="u"  format="ascii">0.0000000000000000e+00  0.0000000000000000e+00  0.0000000000000000e+00  0.0000000000000000e+00  0.0000000000000000e+00  0.0000000000000000e+00  0.0000000000000000e+00  0.0000000000000000e+00  0.0000000000000000e+00  0.0000000000000000e+00  0.0000000000000000e+00  0.0000000000000000e+00  0.0000000000000000e+00  0.0000000000000000e+00  0.0000000000000000e+00  0.0000000000000000e+00  0.0000000000000000e+00  0.0000000000000000e+00  0.0000000000000000e+00  0.0000000000000000e+00  0.0000000000000000e+00  0.0000000000000000e+00  0.0000000000000000e+00  0.0000000000000000e+00  0.0000000000000000e+00  0.0000000000000000e+00  0.0000000000000000e+00  0.0000000000000000e+00  0.0000000000000000e+00  0.0000000000000000e+00  0.0000000000000000e+00  0.0000000000000000e+00  0.0000000000000000e+00  0.0000000000000000e+00  0.0000000000000000e+00  0.0000000000000000e+00  0.0000000000000000e+00  0.0000000000000000e+00  0.0000000000000000e+00  0.0000000000000000e+00  0.0000000000000000e+00  0.0000000000000000e+00  0.0000000000000000e+00  0.0000000000000000e+00  0.0000000000000000e+00  0.0000000000000000e+00  0.0000000000000000e+00  0.0000000000000000e+00  0.0000000000000000e+00  0.0000000000000000e+00  0.0000000000000000e+00  0.0000000000000000e+00  0.0000000000000000e+00  0.0000000000000000e+00  0.0000000000000000e+00  0.0000000000000000e+00  0.0000000000000000e+00  0.0000000000000000e+00  0.0000000000000000e+00  0.0000000000000000e+00  0.0000000000000000e+00  0.0000000000000000e+00  0.0000000000000000e+00  0.0000000000000000e+00  0.0000000000000000e+00  0.0000000000000000e+00  0.0000000000000000e+00  0.0000000000000000e+00  0.0000000000000000e+00  0.0000000000000000e+00  0.0000000000000000e+00  0.0000000000000000e+00  0.0000000000000000e+00  0.0000000000000000e+00  0.0000000000000000e+00  0.0000000000000000e+00  0.0000000000000000e+00  0.0000000000000000e+00  0.0000000000000000e+00  0.0000000000000000e+00  0.0000000000000000e+00  0.0000000000000000e+00  0.0000000000000000e+00  0.0000000000000000e+00  0.0000000000000000e+00  0.0000000000000000e+00  0.0000000000000000e+00  0.0000000000000000e+00  0.0000000000000000e+00  0.0000000000000000e+00  0.0000000000000000e+00  0.0000000000000000e+00  0.0000000000000000e+00  0.0000000000000000e+00  0.0000000000000000e+00  0.0000000000000000e+00  0.0000000000000000e+00  0.0000000000000000e+00  0.0000000000000000e+00  0.0000000000000000e+00  0.0000000000000000e+00  0.0000000000000000e+00  5.3252135996195654e-07  1.0792243436082818e-06  1.6404464510358736e-06  2.2163921805647216e-06  2.8072332856224734e-06  3.4131102386042302e-06  4.0341276850652982e-06  4.6703493516074242e-06  5.3217925287627062e-06  5.9884221226459733e-06  6.6701442738748121e-06  7.3667995489458317e-06  8.0781557179164695e-06  8.8039001426581958e-06  9.5436318122654917e-06  1.0296853076519074e-05  1.1062961144759136e-05  1.1841239436011200e-05  1.2630848886901063e-05  1.3430819346349030e-05  1.4240041210292438e-05  1.5057257475025917e-05  1.5881056413798467e-05  1.6709865107108290e-05  1.7541944081806150e-05  1.8375383336270685e-05  1.9208100047261071e-05  2.0037838266753715e-05  2.0862170922482288e-05  2.1678504431939054e-05  2.2484086224456134e-05  2.3276015437806282e-05  2.4051257013038971e-05  2.4806659352757983e-05  2.5538975633460195e-05  2.6244888771912781e-05  2.6921039940360262e-05  2.7564060407706675e-05  2.8170606357422263e-05  2.8737396202329448e-05  2.9261249787299487e-05  2.9739128749927150e-05  3.0168177203244201e-05  3.0545761820848653e-05  3.0869510349875172e-05  3.1137347556826354e-05  3.1347527629471774e-05  3.1498662116935670e-05  3.1589742589496579e-05  3.1620157336716849e-05  3.1589701592114028e-05  3.1498580967115753e-05  3.1347407987323203e-05  3.1137191839663909e-05  3.0869321649199231e-05  3.0545543798603200e-05  3.0167933972640540e-05  2.9738864746658864e-05  2.9260969637137260e-05  2.8737104590842558e-05  2.8170307907019800e-05  2.7563759566365941e-05  2.6920740885421227e-05  2.6244595331205236e-05  2.5538691224987721e-05  2.4806386943095552e-05  2.4050999093767890e-05  2.3275774018564574e-05  2.2483862840634528e-05  2.1678300164756459e-05  2.0861986428938971e-05  2.0037673817018344e-05  1.9207955567086183e-05  1.8375258452274775e-05  1.7541838167733102e-05  1.6709777329454008e-05  1.5880985775523402e-05  1.5057202856392118e-05  1.4240001406119566e-05  1.3430793099293467e-05  1.2630834916514051e-05  1.1841236463575307e-05  1.1062967914008466e-05  1.0296868370470080e-05  9.5436544664473770e-06  8.8039290551094542e-06  8.0781898562887455e-06  7.3668379551236338e-06  6.6701860664516051e-06  5.9884664976224611e-06  5.3218387587878489e-06  4.6703967840464195e-06  4.0341757391087112e-06  3.4131584012834689e-06  2.8072811041702535e-06  2.2164392309144300e-06  1.6404921293461956e-06  1.0792662997756995e-06  5.3254658569057483e-07  0.0000000000000000e+00  0.0000000000000000e+00  1.0791694300249276e-06  2.1885368838104855e-06  3.3286430206100822e-06  4.5000291330910016e-06  5.7031628337313351e-06  6.9384453362270180e-06  8.2062088772354008e-06  9.5067064372397471e-06  1.0840099988221334e-05  1.2206447710110240e-05  1.3605690166333185e-05  1.5037635431118783e-05  1.6501943178596961e-05  1.7998107765332712e-05  1.9525440364128192e-05  2.1083050238106364e-05  2.2669825280468909e-05  2.4284411987327527e-05  2.5925195078468197e-05  2.7590277033960257e-05  2.9277457872461874e-05  3.0984215559375688e-05  3.2707687498302791e-05  3.4444653625895369e-05  3.6191521696059656e-05  3.7944315401406084e-05  3.9698666034781030e-05  4.1449808437154578e-05  4.3192582005757047e-05  4.4921437543031035e-05  4.6630450707369273e-05  4.8313342775804970e-05  4.9963509341982629e-05  5.1574057446077651e-05  5.3137851464672135e-05  5.4647567877195599e-05  5.6095758773715494e-05  5.7474923681234559e-05  5.8777588970383182e-05  5.9996393772791080e-05  6.1124181005722800e-05  6.2154091781901688e-05  6.3079661197216726e-05  6.3894913256859725e-05  6.4594452539469790e-05  6.5173550125515109e-05  6.5628221342379188e-05  6.5955293011473972e-05  6.6152458122600835e-05  6.6218316201224582e-05  6.6152398061813803e-05  6.5955174135328757e-05  6.5628046096180464e-05  6.5173322065928459e-05  6.4594176208004227e-05  6.3894594022297871e-05  6.3079305075370331e-05  6.2153705241865177e-05  6.1123770771984260e-05  5.9995966632037174e-05  5.8777151590907887e-05  5.7474482451403554e-05  5.6095319664355808e-05  5.4647136330970527e-05  5.3137432313831099e-05  5.1573654858407229e-05  4.9963126793440767e-05  4.8312983047317127e-05  4.6630115902507107e-05  4.4921129122888792e-05  4.3192300837174334e-05  4.1449554850525099e-05  3.9698439887912891e-05  3.7944116146306380e-05  3.6191348445962452e-05  3.4444505220353797e-05  3.2707562564630199e-05  3.0984112569261069e-05  2.9277375192895989e-05  2.7590212972086271e-05  2.5925147920195234e-05  2.4284380029820469e-05  2.2669806858800618e-05  2.1083043746495512e-05  1.9525444272254876e-05  1.7998120630285610e-05  1.6501963653015762e-05  1.5037662268075827e-05  1.3605722221491665e-05  1.2206483941640852e-05  1.0840139454924174e-05  9.5067482952631574e-06  8.2062523756778096e-06  6.9384898115702236e-06  5.7032077004537474e-06  4.5000738580713593e-06  3.3286873767806183e-06  2.1885868274358877e-06  1.0792476691531501e-06  0.0000000000000000e+00  0.0000000000000000e+00  1.6403987934993170e-06  3.3286599853826514e-06  5.0657411785802147e-06  6.8526610415718583e-06  8.6902922876299936e-06  1.0579441112277754e-05  1.2520813369896203e-05  1.4515001145122299e-05  1.6562464741370643e-05  1.8663512245173871e-05  2.0818277197801510e-05  2.3026694366912878e-05  2.5288473599162927e-05  2.7603071766639248e-05  2.9969662860858099e-05  3.2387106337758105e-05  3.4853913876729608e-05  3.7368214786777914e-05  3.9927720373953217e-05  4.2529687676453371e-05  4.5170883076845504e-05  4.7847546413985609e-05  5.0555356338560838e-05  5.3289397783497653e-05  5.6044132549726729e-05  5.8813374134739649e-05  6.1590268049307155e-05  6.4367278969709816e-05  6.7136186150001205e-05  6.9888088561286010e-05  7.2613421222668634e-05  7.5301984130011237e-05  7.7942985064495353e-05  8.0525097363175836e-05  8.3036533452536548e-05  8.5465134579573474e-05  8.7798476724781764e-05  9.0023992154599704e-05  9.2129105480714182e-05  9.4101382460311548e-05  9.5928689122266555e-05  9.7599358171710022e-05  9.9102359047558016e-05  1.0042746752294495e-04  1.0156543038693478e-04  1.0250812056101449e-04  1.0324867801382953e-04  1.0378163205827561e-04  1.0410300105037569e-04  1.0421036614771197e-04  1.0410291660083148e-04  1.0378146500423553e-04  1.0324843197404526e-04  1.0250780078950473e-04  1.0156504357573167e-04  1.0042702155742688e-04  9.9101862728082156e-05  9.7598820916479606e-05  9.5928120666388848e-05  9.4100792565117672e-05  9.2128503665485603e-05  9.0023387460570168e-05  8.7797877518283379e-05  8.5464548398482096e-05  8.3035966897236396e-05  8.0524556030957893e-05  7.7942473524187058e-05  7.5301505932182938e-05  7.2612978939804709e-05  6.9887683851798963e-05  6.7135819839898010e-05  6.4366951146115347e-05  6.1589978160434970e-05  5.8813121091801260e-05  5.6043914826915466e-05  5.3289213513112197e-05  5.0555203399064999e-05  4.7847422509527735e-05  4.5170785807442190e-05  4.2529614598449599e-05  3.9927669050940320e-05  3.7368182831318606e-05  3.4853898983577413e-05  3.2387106309337988e-05  2.9969675625892767e-05  2.7603095392797685e-05  2.5288506300644499e-05  2.3026734507776063e-05  2.0818323291843823e-05  1.8663562953054077e-05  1.6562518865602798e-05  1.4515057623487325e-05  1.2520871267736038e-05  1.0579499614550867e-05  8.6903507266808790e-06  6.8527195672315161e-06  5.0658047193254679e-06  3.3287217974634547e-06  1.6405026118950712e-06  0.0000000000000000e+00  0.0000000000000000e+00  2.2163540429600022e-06  4.5000276901391705e-06  6.8526934500364675e-06  9.2758019765901530e-06  1.1770892327903118e-05  1.4339317931091751e-05  1.6982328256467412e-05  1.9701032606584696e-05  2.2496373625581821e-05  2.5369098828857550e-05  2.8319728824101932e-05  3.1348522455574970e-05  3.4455438840448411e-05  3.7640096256271331e-05  4.0901727890475928e-05  4.4239134531702226e-05  4.7650634367342354e-05  5.1134010153815860e-05  5.4686454147003713e-05  5.8304511320788779e-05  6.1984021562429679e-05  6.5720061713589806e-05  6.9506888523951837e-05  7.3337883797076057e-05  7.7205503230794767e-05  8.1101230679976594e-05  8.5015539788703859e-05  8.8937865140190789e-05  9.2856585241501874e-05  9.6759019780463576e-05  1.0063144364486319e-04  1.0445912015941990e-04  1.0822635585559279e-04  1.1191657882234753e-04  1.1551244227962554e-04  1.1899595445895532e-04  1.2234863516587285e-04  1.2555169854306796e-04  1.2858626057143233e-04  1.3143356876924367e-04  1.3407525042231523e-04  1.3649357455810976e-04  1.3867172182943660e-04  1.4059405557209604e-04  1.4224638661767714e-04  1.4361622404481962e-04  1.4469300399401315e-04  1.4546828898736054e-04  1.4593593089697401e-04  1.4609219177731916e-04  1.4593581817266656e-04  1.4546806616007535e-04  1.4469267619869500e-04  1.4361579872148694e-04  1.4224587321519949e-04  1.4059346518248392e-04  1.3867106677436841e-04  1.3649286795101195e-04  1.3407450572912874e-04  1.3143279938925310e-04  1.2858547945627393e-04  1.2555091786792838e-04  1.2234786606232613e-04  1.1899520681416365e-04  1.1551172460258171e-04  1.1191589817388303e-04  1.0822571783616417e-04  1.0445852894667638e-04  1.0063090207172098e-04  9.6758529444111935e-05  9.2856146633908757e-05  8.8937477791597199e-05  8.5015202416315383e-05  8.1100941335700557e-05  7.7205259442912998e-05  7.3337682702079472e-05  6.9506726986036157e-05  6.5719936430261511e-05  6.1983929155582802e-05  5.8304448413304660e-05  5.4686417425455317e-05  5.1133996418238772e-05  4.7650640569265633e-05  4.4239157801791207e-05  4.0901765557167044e-05  3.7640145856770711e-05  3.4455498125388520e-05  3.1348589388535399e-05  2.8319801577070281e-05  2.5369175774592971e-05  2.2496453327707783e-05  1.9701113808198966e-05  1.6982409870877043e-05  1.4339399092950015e-05  1.1770972909167798e-05  9.2758827529746559e-06  6.8527633246136697e-06  4.5001513716158281e-06  2.2164869343425186e-06  0.0000000000000000e+00  0.0000000000000000e+00  2.8072037301926502e-06  5.7031794285729214e-06  8.6903194055208918e-06  1.1770925273289994e-05  1.4947186971098563e-05  1.8221259936050529e-05  2.1595134282403132e-05  2.5070643608625459e-05  2.8649431788868430e-05  3.2332913498469117e-05  3.6122232097297752e-05  4.0018213013257548e-05  4.4021312432081485e-05  4.8131561182650219e-05  5.2348503735065576e-05  5.6671132310290179e-05  6.1097816209602985e-05  6.5626226608221349e-05  7.0253257223030371e-05  7.4974941461785949e-05  7.9786366892162916e-05  8.4681588134347753e-05  8.9653539579482918e-05  9.4693949665205100e-05  9.9793258793294044e-05  1.0494054334382555e-04  1.1012344861312201e-04  1.1532813386184774e-04  1.2053923298345007e-04  1.2573983456631036e-04  1.3091148529437697e-04  1.3603422068011052e-04  1.4108662700709342e-04  1.4604593806183657e-04  1.5088816969471432e-04  1.5558829448018363e-04  1.6012045770221492e-04  1.6445823459872915e-04  1.6857492726631454e-04  1.7244389790882443e-04  1.7603893327180434e-04  1.7933463323509456e-04  1.8230681474895165e-04  1.8493292071809103e-04  1.8719242219314162e-04  1.8906720144173096e-04  1.9054190324372771e-04  1.9160424215884398e-04  1.9224525457463978e-04  1.9245948604191022e-04  1.9224510666628910e-04  1.9160395003058202e-04  1.9054147411063122e-04  1.8906664573296623e-04  1.8719175310966289e-04  1.8493215368947042e-04  1.8230596682370674e-04  1.7933372244056611e-04  1.7603797797941106e-04  1.7244291623680821e-04  1.6857393654650719e-04  1.6445725092689961e-04  1.6011949558416639e-04  1.5558736657869408e-04  1.5088728667576697e-04  1.4604510853285447e-04  1.4108585753675880e-04  1.3603351588568349e-04  1.3091084798247588e-04  1.2573926591096375e-04  1.2053873272975089e-04  1.1532770054015200e-04  1.1012307975548748e-04  1.0494023569313133e-04  9.9793008499005629e-05  9.4693752461337254e-05  8.9653390942139667e-05  8.4681483417570972e-05  7.9786301441989505e-05  7.4974910709393034e-05  7.0253256758321940e-05  6.5626252235755880e-05  6.1097863988887664e-05  5.6671198582599359e-05  5.2348585138884592e-05  4.8131654659751319e-05  4.4021415226042505e-05  4.0018322662112722e-05  3.6122346421723424e-05  3.2333030586777018e-05  2.8649549980086825e-05  2.5070761479662334e-05  2.1595250687785901e-05  1.8221374156185198e-05  1.4947297398410770e-05  1.1771028910498678e-05  8.6904501891432609e-06  5.7033398919512655e-06  2.8073763885090112e-06  0.0000000000000000e+00  0.0000000000000000e+00  3.4130907302948903e-06  6.9384774463063535e-06  1.0579475189788327e-05  1.4339373795272556e-05  1.8221290677924375e-05  2.2228358829737392e-05  2.6363543812911960e-05  3.0629655511092531e-05  3.5029296620024434e-05  3.9564820628147686e-05  4.4238277908172195e-05  4.9051356152428779e-05  5.4005314349612911e-05  5.9100909820260560e-05  6.4338318060618512e-05  6.9717045234724857e-05  7.5235833281291320e-05  8.0892557770307545e-05  8.6684118856186692e-05  9.2606325934577194e-05  9.8653776922655027e-05  1.0481973345135259e-04  1.1109599368345466e-04  1.1747276495249222e-04  1.2393853894866456e-04  1.3047997274978954e-04  1.3708177959173605e-04  1.4372663387128313e-04  1.5039509544693407e-04  1.5706555880479274e-04  1.6371423305418787e-04  1.7031515894239550e-04  1.7684026908466137e-04  1.8325949731732536e-04  1.8954094248348511e-04  1.9565109091743900e-04  2.0155510049066857e-04  2.0721714719534556e-04  2.1260083296457174e-04  2.1766965079048683e-04  2.2238750031167056e-04  2.2671924402131033e-04  2.3063129131201400e-04  2.3409219488733566e-04  2.3707324189081667e-04  2.3954902062081171e-04  2.4149794311161145e-04  2.4290270430574049e-04  2.4375066007349927e-04  2.4403410893598525e-04  2.4375046590747838e-04  2.4290232118565194e-04  2.4149738121641840e-04  2.3954829462452602e-04  2.3707237029728403e-04  2.3409119921872631e-04  2.3063019520478504e-04  2.2671807228643473e-04  2.2238627801544937e-04  2.1766840240392587e-04  2.1259958161897903e-04  2.0721591407267450e-04  2.0155390436142051e-04  1.9564994783290534e-04  1.8953986561329468e-04  1.8325849691944548e-04  1.7683935258893410e-04  1.7031433112561789e-04  1.6371349627867680e-04  1.5706491330658384e-04  1.5039453964418013e-04  1.4372616468122211e-04  1.3708139274045075e-04  1.3047966306409866e-04  1.2393830062169028e-04  1.1747259177961461e-04  1.1109587926544883e-04  1.0481967136466952e-04  9.8653760857970302e-05  9.2606349805730728e-05  8.6684176882391816e-05  8.0892644534795460e-05  7.5235943769761526e-05  6.9717174856820453e-05  6.4338462657561452e-05  5.9101065661428709e-05  5.4005478120600452e-05  4.9051524936751445e-05  4.4238449164508192e-05  3.9564992165106342e-05  3.5029466574775058e-05  3.0629822350591724e-05  2.6363706227336585e-05  2.2228514966068185e-05  1.8221442799491136e-05  1.4339523455823398e-05  1.0579666856259174e-05  6.9386883604036335e-06  3.4133116077399513e-06  0.0000000000000000e+00  0.0000000000000000e+00  4.0341189837110443e-06  8.2062572400264897e-06  1.2520871935312518e-05  1.6982383232764551e-05  2.1595206046539832e-05  2.6363576201042318e-05  3.1291767458172366e-05  3.6383831193647223e-05  4.1643638094433758e-05  4.7074803414507486e-05  5.2680625146629745e-05  5.8464011404523669e-05  6.4427398470581169e-05  7.0572659369441684e-05  7.6901002325157483e-05  8.3412858651025099e-05  9.0107759776039903e-05  9.6984203304352443e-05  1.0403950825796543e-04  1.1126965997663642e-04  1.1866914555059784e-04  1.2623078114903794e-04  1.3394553318575648e-04  1.4180233593586350e-04  1.4978790898034764e-04  1.5788657870193090e-04  1.6608010896672660e-04  1.7434754707514231e-04  1.8266509201515565e-04  1.9100599294597469e-04  1.9934048660457914e-04  2.0763578290570396e-04  2.1585610830295455e-04  2.2396281627046105e-04  2.3191457378927277e-04  2.3966763136295581e-04  2.4717618231957030e-04  2.5439281450170560e-04  2.6126905421985550e-04  2.6775599833925778e-04  2.7380502599558254e-04  2.7936857669327294e-04  2.8440097673638017e-04  2.8885929157948439e-04  2.9270417787657845e-04  2.9590070634703185e-04  2.9841912526883314e-04  3.0023553474652336e-04  3.0133244406713140e-04  3.0169918832575945e-04  3.0133218602617062e-04  3.0023502612993029e-04  2.9841838063009878e-04  2.9589974660390893e-04  2.9270302929454873e-04  2.8885798454303510e-04  2.8439954438630032e-04  2.7936705353193337e-04  2.7380344654345259e-04  2.6775439591255777e-04  2.6126745989210761e-04  2.5439125627045117e-04  2.4717468451741477e-04  2.3966621429699387e-04  2.3191325359105550e-04  2.2396160494834064e-04  2.1585501394134836e-04  2.0763480998790089e-04  1.9933963640793279e-04  1.9100526400283484e-04  1.8266448056944340e-04  1.7434704755096660e-04  1.6607971440843551e-04  1.5788628117483888e-04  1.4978769992807919e-04  1.4180220648808445e-04  1.3394547441516525e-04  1.2623078427972950e-04  1.1866920212106556e-04  1.1126976196173543e-04  1.0403964815508419e-04  9.6984374188912892e-05  9.0107955331528765e-05  8.3413073178372591e-05  7.6901230735841391e-05  7.0572897166172707e-05  6.4427641718942441e-05  5.8464256698360323e-05  5.2680869570037779e-05  4.7075044505070371e-05  4.1643873802199259e-05  3.6384059728833576e-05  3.1291987386377442e-05  2.6363789241020474e-05  2.1595401969485484e-05  1.6982616222011197e-05  1.2521119547659001e-05  8.2065300657494355e-06  4.0343981968246743e-06  0.0000000000000000e+00  0.0000000000000000e+00  4.6703523766554555e-06  9.5067730914995750e-06  1.4515081086325638e-05  1.9701112373164444e-05  2.5070725432732777e-05  3.0629732309483813e-05  3.6383867788628296e-05  4.2338824649556547e-05  4.8500085756264062e-05  5.4872909622680583e-05  6.1462248919910714e-05  6.8272663566727566e-05  7.5308223003744151e-05  8.2572395189028970e-05  9.0067921828684489e-05  9.7796678977301964e-05  1.0575952226443564e-04  1.1395611621959363e-04  1.2238474745221171e-04  1.3104212182107574e-04  1.3992314621640836e-04  1