<?xml version="1.0"?>
<VTKFile type="UnstructuredGrid"  version="0.1"  >
<UnstructuredGrid>
<Piece  NumberOfPoints="10201" NumberOfCells="20000">
<Points>
<DataArray  type="Float64"  NumberOfComponents="3"  format="ascii">0 0 0  0.01 0 0  0.02 0 0  0.03 0 0  0.04 0 0  0.05 0 0  0.06 0 0  0.07000000000000001 0 0  0.08 0 0  0.09 0 0  0.1 0 0  0.11 0 0  0.12 0 0  0.13 0 0  0.14 0 0  0.15 0 0  0.16 0 0  0.17 0 0  0.18 0 0  0.19 0 0  0.2 0 0  0.21 0 0  0.22 0 0  0.23 0 0  0.24 0 0  0.25 0 0  0.26 0 0  0.27 0 0  0.28 0 0  0.29 0 0  0.3 0 0  0.31 0 0  0.32 0 0  0.33 0 0  0.34 0 0  0.35 0 0  0.36 0 0  0.37 0 0  0.38 0 0  0.39 0 0  0.4 0 0  0.41 0 0  0.42 0 0  0.43 0 0  0.44 0 0  0.45 0 0  0.46 0 0  0.47 0 0  0.48 0 0  0.49 0 0  0.5 0 0  0.51 0 0  0.52 0 0  0.53 0 0  0.54 0 0  0.55 0 0  0.5600000000000001 0 0  0.57 0 0  0.58 0 0  0.59 0 0  0.6 0 0  0.61 0 0  0.62 0 0  0.63 0 0  0.64 0 0  0.65 0 0  0.66 0 0  0.67 0 0  0.68 0 0  0.6899999999999999 0 0  0.7 0 0  0.71 0 0  0.72 0 0  0.73 0 0  0.74 0 0  0.75 0 0  0.76 0 0  0.77 0 0  0.78 0 0  0.79 0 0  0.8 0 0  0.8100000000000001 0 0  0.82 0 0  0.83 0 0  0.84 0 0  0.85 0 0  0.86 0 0  0.87 0 0  0.88 0 0  0.89 0 0  0.9 0 0  0.91 0 0  0.92 0 0  0.93 0 0  0.9399999999999999 0 0  0.95 0 0  0.96 0 0  0.97 0 0  0.98 0 0  0.99 0 0  1 0 0  0 0.01 0  0.01 0.01 0  0.02 0.01 0  0.03 0.01 0  0.04 0.01 0  0.05 0.01 0  0.06 0.01 0  0.07000000000000001 0.01 0  0.08 0.01 0  0.09 0.01 0  0.1 0.01 0  0.11 0.01 0  0.12 0.01 0  0.13 0.01 0  0.14 0.01 0  0.15 0.01 0  0.16 0.01 0  0.17 0.01 0  0.18 0.01 0  0.19 0.01 0  0.2 0.01 0  0.21 0.01 0  0.22 0.01 0  0.23 0.01 0  0.24 0.01 0  0.25 0.01 0  0.26 0.01 0  0.27 0.01 0  0.28 0.01 0  0.29 0.01 0  0.3 0.01 0  0.31 0.01 0  0.32 0.01 0  0.33 0.01 0  0.34 0.01 0  0.35 0.01 0  0.36 0.01 0  0.37 0.01 0  0.38 0.01 0  0.39 0.01 0  0.4 0.01 0  0.41 0.01 0  0.42 0.01 0  0.43 0.01 0  0.44 0.01 0  0.45 0.01 0  0.46 0.01 0  0.47 0.01 0  0.48 0.01 0  0.49 0.01 0  0.5 0.01 0  0.51 0.01 0  0.52 0.01 0  0.53 0.01 0  0.54 0.01 0  0.55 0.01 0  0.5600000000000001 0.01 0  0.57 0.01 0  0.58 0.01 0  0.59 0.01 0  0.6 0.01 0  0.61 0.01 0  0.62 0.01 0  0.63 0.01 0  0.64 0.01 0  0.65 0.01 0  0.66 0.01 0  0.67 0.01 0  0.68 0.01 0  0.6899999999999999 0.01 0  0.7 0.01 0  0.71 0.01 0  0.72 0.01 0  0.73 0.01 0  0.74 0.01 0  0.75 0.01 0  0.76 0.01 0  0.77 0.01 0  0.78 0.01 0  0.79 0.01 0  0.8 0.01 0  0.8100000000000001 0.01 0  0.82 0.01 0  0.83 0.01 0  0.84 0.01 0  0.85 0.01 0  0.86 0.01 0  0.87 0.01 0  0.88 0.01 0  0.89 0.01 0  0.9 0.01 0  0.91 0.01 0  0.92 0.01 0  0.93 0.01 0  0.9399999999999999 0.01 0  0.95 0.01 0  0.96 0.01 0  0.97 0.01 0  0.98 0.01 0  0.99 0.01 0  1 0.01 0  0 0.02 0  0.01 0.02 0  0.02 0.02 0  0.03 0.02 0  0.04 0.02 0  0.05 0.02 0  0.06 0.02 0  0.07000000000000001 0.02 0  0.08 0.02 0  0.09 0.02 0  0.1 0.02 0  0.11 0.02 0  0.12 0.02 0  0.13 0.02 0  0.14 0.02 0  0.15 0.02 0  0.16 0.02 0  0.17 0.02 0  0.18 0.02 0  0.19 0.02 0  0.2 0.02 0  0.21 0.02 0  0.22 0.02 0  0.23 0.02 0  0.24 0.02 0  0.25 0.02 0  0.26 0.02 0  0.27 0.02 0  0.28 0.02 0  0.29 0.02 0  0.3 0.02 0  0.31 0.02 0  0.32 0.02 0  0.33 0.02 0  0.34 0.02 0  0.35 0.02 0  0.36 0.02 0  0.37 0.02 0  0.38 0.02 0  0.39 0.02 0  0.4 0.02 0  0.41 0.02 0  0.42 0.02 0  0.43 0.02 0  0.44 0.02 0  0.45 0.02 0  0.46 0.02 0  0.47 0.02 0  0.48 0.02 0  0.49 0.02 0  0.5 0.02 0  0.51 0.02 0  0.52 0.02 0  0.53 0.02 0  0.54 0.02 0  0.55 0.02 0  0.5600000000000001 0.02 0  0.57 0.02 0  0.58 0.02 0  0.59 0.02 0  0.6 0.02 0  0.61 0.02 0  0.62 0.02 0  0.63 0.02 0  0.64 0.02 0  0.65 0.02 0  0.66 0.02 0  0.67 0.02 0  0.68 0.02 0  0.6899999999999999 0.02 0  0.7 0.02 0  0.71 0.02 0  0.72 0.02 0  0.73 0.02 0  0.74 0.02 0  0.75 0.02 0  0.76 0.02 0  0.77 0.02 0  0.78 0.02 0  0.79 0.02 0  0.8 0.02 0  0.8100000000000001 0.02 0  0.82 0.02 0  0.83 0.02 0  0.84 0.02 0  0.85 0.02 0  0.86 0.02 0  0.87 0.02 0  0.88 0.02 0  0.89 0.02 0  0.9 0.02 0  0.91 0.02 0  0.92 0.02 0  0.93 0.02 0  0.9399999999999999 0.02 0  0.95 0.02 0  0.96 0.02 0  0.97 0.02 0  0.98 0.02 0  0.99 0.02 0  1 0.02 0  0 0.03 0  0.01 0.03 0  0.02 0.03 0  0.03 0.03 0  0.04 0.03 0  0.05 0.03 0  0.06 0.03 0  0.07000000000000001 0.03 0  0.08 0.03 0  0.09 0.03 0  0.1 0.03 0  0.11 0.03 0  0.12 0.03 0  0.13 0.03 0  0.14 0.03 0  0.15 0.03 0  0.16 0.03 0  0.17 0.03 0  0.18 0.03 0  0.19 0.03 0  0.2 0.03 0  0.21 0.03 0  0.22 0.03 0  0.23 0.03 0  0.24 0.03 0  0.25 0.03 0  0.26 0.03 0  0.27 0.03 0  0.28 0.03 0  0.29 0.03 0  0.3 0.03 0  0.31 0.03 0  0.32 0.03 0  0.33 0.03 0  0.34 0.03 0  0.35 0.03 0  0.36 0.03 0  0.37 0.03 0  0.38 0.03 0  0.39 0.03 0  0.4 0.03 0  0.41 0.03 0  0.42 0.03 0  0.43 0.03 0  0.44 0.03 0  0.45 0.03 0  0.46 0.03 0  0.47 0.03 0  0.48 0.03 0  0.49 0.03 0  0.5 0.03 0  0.51 0.03 0  0.52 0.03 0  0.53 0.03 0  0.54 0.03 0  0.55 0.03 0  0.5600000000000001 0.03 0  0.57 0.03 0  0.58 0.03 0  0.59 0.03 0  0.6 0.03 0  0.61 0.03 0  0.62 0.03 0  0.63 0.03 0  0.64 0.03 0  0.65 0.03 0  0.66 0.03 0  0.67 0.03 0  0.68 0.03 0  0.6899999999999999 0.03 0  0.7 0.03 0  0.71 0.03 0  0.72 0.03 0  0.73 0.03 0  0.74 0.03 0  0.75 0.03 0  0.76 0.03 0  0.77 0.03 0  0.78 0.03 0  0.79 0.03 0  0.8 0.03 0  0.8100000000000001 0.03 0  0.82 0.03 0  0.83 0.03 0  0.84 0.03 0  0.85 0.03 0  0.86 0.03 0  0.87 0.03 0  0.88 0.03 0  0.89 0.03 0  0.9 0.03 0  0.91 0.03 0  0.92 0.03 0  0.93 0.03 0  0.9399999999999999 0.03 0  0.95 0.03 0  0.96 0.03 0  0.97 0.03 0  0.98 0.03 0  0.99 0.03 0  1 0.03 0  0 0.04 0  0.01 0.04 0  0.02 0.04 0  0.03 0.04 0  0.04 0.04 0  0.05 0.04 0  0.06 0.04 0  0.07000000000000001 0.04 0  0.08 0.04 0  0.09 0.04 0  0.1 0.04 0  0.11 0.04 0  0.12 0.04 0  0.13 0.04 0  0.14 0.04 0  0.15 0.04 0  0.16 0.04 0  0.17 0.04 0  0.18 0.04 0  0.19 0.04 0  0.2 0.04 0  0.21 0.04 0  0.22 0.04 0  0.23 0.04 0  0.24 0.04 0  0.25 0.04 0  0.26 0.04 0  0.27 0.04 0  0.28 0.04 0  0.29 0.04 0  0.3 0.04 0  0.31 0.04 0  0.32 0.04 0  0.33 0.04 0  0.34 0.04 0  0.35 0.04 0  0.36 0.04 0  0.37 0.04 0  0.38 0.04 0  0.39 0.04 0  0.4 0.04 0  0.41 0.04 0  0.42 0.04 0  0.43 0.04 0  0.44 0.04 0  0.45 0.04 0  0.46 0.04 0  0.47 0.04 0  0.48 0.04 0  0.49 0.04 0  0.5 0.04 0  0.51 0.04 0  0.52 0.04 0  0.53 0.04 0  0.54 0.04 0  0.55 0.04 0  0.5600000000000001 0.04 0  0.57 0.04 0  0.58 0.04 0  0.59 0.04 0  0.6 0.04 0  0.61 0.04 0  0.62 0.04 0  0.63 0.04 0  0.64 0.04 0  0.65 0.04 0  0.66 0.04 0  0.67 0.04 0  0.68 0.04 0  0.6899999999999999 0.04 0  0.7 0.04 0  0.71 0.04 0  0.72 0.04 0  0.73 0.04 0  0.74 0.04 0  0.75 0.04 0  0.76 0.04 0  0.77 0.04 0  0.78 0.04 0  0.79 0.04 0  0.8 0.04 0  0.8100000000000001 0.04 0  0.82 0.04 0  0.83 0.04 0  0.84 0.04 0  0.85 0.04 0  0.86 0.04 0  0.87 0.04 0  0.88 0.04 0  0.89 0.04 0  0.9 0.04 0  0.91 0.04 0  0.92 0.04 0  0.93 0.04 0  0.9399999999999999 0.04 0  0.95 0.04 0  0.96 0.04 0  0.97 0.04 0  0.98 0.04 0  0.99 0.04 0  1 0.04 0  0 0.05 0  0.01 0.05 0  0.02 0.05 0  0.03 0.05 0  0.04 0.05 0  0.05 0.05 0  0.06 0.05 0  0.07000000000000001 0.05 0  0.08 0.05 0  0.09 0.05 0  0.1 0.05 0  0.11 0.05 0  0.12 0.05 0  0.13 0.05 0  0.14 0.05 0  0.15 0.05 0  0.16 0.05 0  0.17 0.05 0  0.18 0.05 0  0.19 0.05 0  0.2 0.05 0  0.21 0.05 0  0.22 0.05 0  0.23 0.05 0  0.24 0.05 0  0.25 0.05 0  0.26 0.05 0  0.27 0.05 0  0.28 0.05 0  0.29 0.05 0  0.3 0.05 0  0.31 0.05 0  0.32 0.05 0  0.33 0.05 0  0.34 0.05 0  0.35 0.05 0  0.36 0.05 0  0.37 0.05 0  0.38 0.05 0  0.39 0.05 0  0.4 0.05 0  0.41 0.05 0  0.42 0.05 0  0.43 0.05 0  0.44 0.05 0  0.45 0.05 0  0.46 0.05 0  0.47 0.05 0  0.48 0.05 0  0.49 0.05 0  0.5 0.05 0  0.51 0.05 0  0.52 0.05 0  0.53 0.05 0  0.54 0.05 0  0.55 0.05 0  0.5600000000000001 0.05 0  0.57 0.05 0  0.58 0.05 0  0.59 0.05 0  0.6 0.05 0  0.61 0.05 0  0.62 0.05 0  0.63 0.05 0  0.64 0.05 0  0.65 0.05 0  0.66 0.05 0  0.67 0.05 0  0.68 0.05 0  0.6899999999999999 0.05 0  0.7 0.05 0  0.71 0.05 0  0.72 0.05 0  0.73 0.05 0  0.74 0.05 0  0.75 0.05 0  0.76 0.05 0  0.77 0.05 0  0.78 0.05 0  0.79 0.05 0  0.8 0.05 0  0.8100000000000001 0.05 0  0.82 0.05 0  0.83 0.05 0  0.84 0.05 0  0.85 0.05 0  0.86 0.05 0  0.87 0.05 0  0.88 0.05 0  0.89 0.05 0  0.9 0.05 0  0.91 0.05 0  0.92 0.05 0  0.93 0.05 0  0.9399999999999999 0.05 0  0.95 0.05 0  0.96 0.05 0  0.97 0.05 0  0.98 0.05 0  0.99 0.05 0  1 0.05 0  0 0.06 0  0.01 0.06 0  0.02 0.06 0  0.03 0.06 0  0.04 0.06 0  0.05 0.06 0  0.06 0.06 0  0.07000000000000001 0.06 0  0.08 0.06 0  0.09 0.06 0  0.1 0.06 0  0.11 0.06 0  0.12 0.06 0  0.13 0.06 0  0.14 0.06 0  0.15 0.06 0  0.16 0.06 0  0.17 0.06 0  0.18 0.06 0  0.19 0.06 0  0.2 0.06 0  0.21 0.06 0  0.22 0.06 0  0.23 0.06 0  0.24 0.06 0  0.25 0.06 0  0.26 0.06 0  0.27 0.06 0  0.28 0.06 0  0.29 0.06 0  0.3 0.06 0  0.31 0.06 0  0.32 0.06 0  0.33 0.06 0  0.34 0.06 0  0.35 0.06 0  0.36 0.06 0  0.37 0.06 0  0.38 0.06 0  0.39 0.06 0  0.4 0.06 0  0.41 0.06 0  0.42 0.06 0  0.43 0.06 0  0.44 0.06 0  0.45 0.06 0  0.46 0.06 0  0.47 0.06 0  0.48 0.06 0  0.49 0.06 0  0.5 0.06 0  0.51 0.06 0  0.52 0.06 0  0.53 0.06 0  0.54 0.06 0  0.55 0.06 0  0.5600000000000001 0.06 0  0.57 0.06 0  0.58 0.06 0  0.59 0.06 0  0.6 0.06 0  0.61 0.06 0  0.62 0.06 0  0.63 0.06 0  0.64 0.06 0  0.65 0.06 0  0.66 0.06 0  0.67 0.06 0  0.68 0.06 0  0.6899999999999999 0.06 0  0.7 0.06 0  0.71 0.06 0  0.72 0.06 0  0.73 0.06 0  0.74 0.06 0  0.75 0.06 0  0.76 0.06 0  0.77 0.06 0  0.78 0.06 0  0.79 0.06 0  0.8 0.06 0  0.8100000000000001 0.06 0  0.82 0.06 0  0.83 0.06 0  0.84 0.06 0  0.85 0.06 0  0.86 0.06 0  0.87 0.06 0  0.88 0.06 0  0.89 0.06 0  0.9 0.06 0  0.91 0.06 0  0.92 0.06 0  0.93 0.06 0  0.9399999999999999 0.06 0  0.95 0.06 0  0.96 0.06 0  0.97 0.06 0  0.98 0.06 0  0.99 0.06 0  1 0.06 0  0 0.07000000000000001 0  0.01 0.07000000000000001 0  0.02 0.07000000000000001 0  0.03 0.07000000000000001 0  0.04 0.07000000000000001 0  0.05 0.07000000000000001 0  0.06 0.07000000000000001 0  0.07000000000000001 0.07000000000000001 0  0.08 0.07000000000000001 0  0.09 0.07000000000000001 0  0.1 0.07000000000000001 0  0.11 0.07000000000000001 0  0.12 0.07000000000000001 0  0.13 0.07000000000000001 0  0.14 0.07000000000000001 0  0.15 0.07000000000000001 0  0.16 0.07000000000000001 0  0.17 0.0700
[...]
<PointData  Scalars="Indicator Function"> 
<DataArray  type="Float64"  Name="Indicator Function"  format="ascii">-1.8055593228630336e-35  -5.7903573764878635e-20  2.5624930375765233e-20  7.5332284637187189e-20  3.3041422558856771e-19  -3.1738347513187670e-20  -2.6953185032698154e-20  6.5864223951377645e-19  8.4834098264807336e-19  3.0092655381050560e-36  4.3283432502446513e-18  1.7011203321672264e-18  -3.3752838702006577e-20  -3.3794494476642428e-20  8.2665947771086390e-18  -8.8699044404084065e-21  -4.5106015138828063e-23  2.0075938581258420e-18  -3.4823726175995546e-20  -1.5046327690525280e-35  6.4766918576126554e-18  6.0185310762101120e-36  -3.6699936321234875e-20  1.0675994476949271e-17  -4.7337976238694196e-20  -2.4362464303549652e-20  -1.8317701274163957e-20  -4.3061038173417637e-20  4.1135939012029621e-17  -1.6735363506249147e-20  -7.4795707774290864e-20  -2.7209717785722956e-20  -4.5055916395829831e-20  -2.4205810844551473e-20  7.8723864599483110e-18  -8.0654748216006516e-20  -1.1204483425180273e-19  -1.2958182765701160e-19  -1.3556969268223499e-19  -1.3287615463335285e-19  9.0825144569325740e-18  -6.8902083135404609e-20  -2.3792095627761706e-20  -3.0245642462346402e-20  -2.5205470430110225e-20  -2.0904167048268251e-20  2.1494968048844654e-17  -1.4999619720322469e-20  -9.8743350407605760e-21  -6.6529235552500718e-21  -2.2384725881456333e-20  -1.1523815805024547e-20  -8.5046950918647886e-21  -1.1496992776309741e-20  -8.7257368869995434e-21  -1.7029235845334233e-21  5.2448328101068501e-19  1.8807909613156600e-37  9.4039548065783001e-38  -4.7019774032891500e-38  1.4105932209867450e-37  -2.3266183410847116e-23  -1.9239354459293287e-23  -4.4093988869174972e-22  -9.2122228100391370e-23  0.0000000000000000e+00  -1.4345754662174985e-23  -1.1567905059472196e-22  2.9848338206926050e-19  -1.2603601190301679e-22  -1.3092472019855648e-23  -3.1472803744647798e-23  -1.0592932596050641e-22  -5.6658052126061838e-23  -6.0227160063176849e-23  -3.0113580031588536e-23  -2.0186298233283858e-22  -1.2031108181292072e-22  -1.7659965879912408e-23  -3.0404161229046153e-22  -5.3763329998396698e-22  2.6549799869465579e-20  -1.6768911969982374e-22  -5.4418919344612924e-22  -5.4237563637193116e-22  -4.2617940456066927e-22  -6.9367934578653920e-23  -1.3737768244568113e-22  -1.6915344337605622e-22  -1.9896443101933580e-22  -1.7510733982646594e-22  -1.5080761874282861e-22  -1.8213606436717734e-22  1.2017571650229478e-19  -1.0491298469576910e-22  -5.8376441926322145e-23  -4.4226564099331365e-23  -4.3406905871676097e-23  -2.8317536472219919e-23  -2.0447930138507852e-24  -2.2040519077917891e-39  -2.9844649308604004e-20  4.7875042464496433e-04  2.1873034507657207e-04  1.3100208669453433e-04  3.4012648759738982e-04  2.4986552242856915e-04  4.4681447892070449e-04  2.6213817681847845e-04  6.6787802437817277e-04  8.4294977126982899e-05  3.9904435025732647e-06  4.1538703067034812e-04  6.9572543469925143e-04  2.6017436985458723e-04  4.7870030600142871e-04  1.9748872839410361e-04  6.1041629133488999e-05  7.2394674592998992e-04  1.3232271129161647e-04  6.2732848091946291e-04  1.4320411656762637e-04  3.1844537981737595e-04  1.7285212394114443e-04  5.7470121619276947e-04  2.3793974774559727e-04  8.7775028127434534e-04  6.5996474106087073e-04  8.2968929383269168e-04  3.6087405497161289e-04  6.0295501480522721e-04  7.3413257519945780e-04  9.8033339904510632e-04  6.1475687898048350e-04  5.0427679367413966e-04  1.8391472596181657e-04  6.5958262807297300e-04  1.1231554620085859e-03  1.4568425641365377e-03  1.6059174009321520e-03  1.6392477693197083e-03  1.5740601173129145e-03  1.2510237483514598e-03  6.1571770955890631e-04  4.2860029201420319e-04  3.3055691048491649e-04  7.5315199143260677e-04  6.1142886414421768e-04  5.4041825426514721e-04  3.5576041288080598e-04  1.2828543840700396e-04  1.1984841617739450e-04  4.1518922052315806e-04  4.7747052049243871e-05  1.2933344056186583e-04  1.4244468925214633e-04  8.5966556945223349e-05  6.2069096986694586e-05  3.4244564928888784e-05  1.5205107782437871e-05  5.8878736238516651e-06  5.2911265840179646e-06  8.3825259951539507e-07  6.9317079658977701e-07  9.1536355681341363e-06  7.9432668736198081e-06  1.6595265285818511e-06  5.1686028280736216e-07  4.1677770332235838e-06  6.6748143670695992e-06  5.6810409127072069e-06  4.7170601687984227e-07  1.1339272577336020e-06  3.8165061833867551e-06  1.5051524820720577e-06  1.8959299076839358e-06  1.0849560624724253e-06  1.1486226287699490e-06  3.0621288936713011e-06  6.3626732604919229e-07  1.1313205869381237e-06  4.9114664737967278e-06  7.2294072809807192e-06  4.6982890825676336e-06  4.6295673105015357e-06  7.4884573400413846e-06  6.0263421854171648e-06  4.6641945375810554e-06  1.0703570363552447e-06  2.4747763178855670e-06  1.8098093792845883e-06  2.6793198599523590e-06  3.2649131461427093e-06  1.0842519692279835e-06  2.7389456618450069e-06  1.8620867774399899e-06  9.5890092640877409e-07  1.5405697510339664e-06  4.3496951675861602e-07  9.3327283267628682e-07  4.8019160455872570e-07  1.3327994390319918e-23  -1.4215272530933734e-20  5.3763340602092828e-04  1.4079560114158845e-04  9.9404105822002635e-05  1.7438037529852240e-05  3.8782307419061435e-04  5.0378246955536902e-04  6.1257132807585870e-04  7.3350737236385979e-04  1.5262333416657341e-05  3.3559443397992577e-04  4.1456468653982051e-04  5.3066321573198025e-04  9.7662260351905430e-04  7.6201884486180112e-04  5.2189843732560923e-04  1.1673505909542152e-03  3.2839913627886807e-05  5.3287110943606901e-04  8.5257284317073864e-04  4.0304086811384488e-04  1.4830869751121811e-03  9.6722497243304656e-04  1.6083325316984605e-03  8.9262831356817980e-04  1.1187214062159676e-03  4.6650412160823106e-05  3.6380625712266874e-04  1.6365584163481387e-03  1.1074368710034654e-03  1.5865689648840466e-04  1.6159143224727627e-03  1.8337242591591178e-04  1.1497923622303624e-03  5.6544246973797875e-04  6.4395491681809352e-04  1.4168898601549891e-03  1.8762850018761601e-03  2.2062151904829125e-03  2.3251062416585855e-03  2.2672859803092773e-03  2.0510958861632649e-03  1.4913386764716739e-03  3.1174703922231585e-04  1.0148868007377055e-03  8.8599600688292696e-04  7.5225061040374501e-04  1.0993011054307223e-03  8.8743182702890678e-04  2.0904969049546332e-04  3.8977854757988472e-04  5.1375514024326380e-04  3.6161518958642032e-04  3.5948952622893613e-04  1.7469713831554172e-04  1.3396649158638064e-04  7.2288478094072018e-05  7.0916486074132953e-05  3.2201154340055180e-05  1.7093344457230538e-05  5.2480346030648936e-06  4.6370507350658227e-06  2.5826771810751136e-06  5.4203565490544880e-07  9.0890818879222096e-06  7.9486349793623145e-06  4.7294752679218441e-06  9.4898047682849526e-06  8.9424572771656604e-06  2.2922527851043860e-06  2.3548309376681613e-07  9.3549737008880769e-06  8.2792122895642708e-06  8.6827335502965461e-06  4.2883846829290279e-06  1.6361774089475879e-06  2.7969573302662047e-06  6.5820069372534330e-06  2.3204794586581199e-06  4.8729502735848298e-06  8.7501098406884663e-06  9.1336624325233067e-06  4.7634872352879681e-06  1.0113277675090846e-06  1.0215568067321437e-05  1.0814777271315499e-05  5.6161543263486297e-06  2.6866116912842498e-06  9.0417818601886917e-07  3.4690520432554505e-06  4.1146975981503591e-06  2.6169349217513595e-06  4.5918677801192957e-06  3.2943478542750241e-06  2.9196230327171748e-06  2.8376636539678132e-06  1.5103947292604478e-06  7.6034901986144997e-07  6.7379834983808145e-07  9.5364353511813200e-07  2.3822032724394289e-22  -2.1750755996513003e-20  2.5607958429313356e-04  4.4694184520943056e-04  5.0022210151928753e-05  4.6239302211139308e-04  6.6741644303927464e-04  5.7415039922642465e-04  7.9499408702381051e-04  1.8347244423413508e-04  1.3227660959470699e-03  4.8346136269125900e-04  2.8282051491213786e-07  1.0201414700602958e-03  1.1113648322517132e-03  1.2148804545456295e-04  1.0853720877104015e-03  3.0371873124576551e-04  4.4387947621429954e-04  1.3586392898988378e-03  7.5242429761193305e-04  1.6851009675957821e-03  5.2824926109698209e-04  1.1365483610619685e-03  4.1155276434910103e-04  1.6826106550329979e-03  1.4284183123294532e-03  2.3060472864600010e-03  1.9078012146003917e-03  1.7728058909926622e-03  8.2883054144725109e-04  2.0112763147297351e-03  1.6711276198679798e-03  1.9829649746648768e-03  1.9977161443698378e-03  9.6297972385152840e-04  6.5628647823783972e-05  1.6240203671901937e-03  1.9967963168993899e-03  2.3935219390044328e-03  2.6173021843939313e-03  2.6770660980784369e-03  2.5366321864639186e-03  1.8978916171957130e-03  8.8261992077458523e-04  1.1676453431498383e-03  6.2098471614052339e-04  2.1493253492088980e-03  1.4337862744368043e-03  9.4964411507032298e-04  6.9459216226390441e-04  5.0618225042208074e-04  4.8509055883363711e-04  1.0416532125865669e-03  2.6801171238213475e-04  3.7879927657759517e-04  1.5756231078510946e-04  4.5574449128760090e-05  7.2215718921683251e-05  6.1569029118275289e-05  2.8706032631446111e-05  1.4183548085532927e-05  1.0463482920908560e-05  5.3838353539028271e-07  2.8787139152750429e-06  1.1796829154839554e-05  1.3359487718595060e-05  4.7763148055707873e-06  4.0765612650205495e-06  3.6437322102326517e-06  2.4469559929283842e-06  8.0373933899932655e-06  4.2082225211966019e-06  1.0164195236963008e-05  6.9265334375159953e-06  6.0232476445493498e-06  4.5078752435563505e-06  1.1497820011287941e-06  8.0502344283286212e-06  6.5876619240309396e-06  3.2376516617496600e-06  4.3757238922281721e-07  1.1858736856287208e-05  8.8998353405433248e-06  1.5386849485067910e-06  1.0167184658465681e-05  1.2519636979422643e-05  7.4195917680754663e-06  3.7977867853239453e-06  1.3844482537461124e-06  1.6364017480823677e-06  3.7987181364269367e-06  3.5912286269865506e-06  3.9304382156563505e-06  4.2984418489474068e-06  3.2132900126995217e-06  3.8713432186670829e-06  2.1540215878839535e-06  2.0007031116025845e-06  9.6807889063074538e-07  3.8190126144759679e-07  -1.1754943508222875e-37  -1.8873908014923380e-20  3.9182678640369088e-04  5.2828981151946505e-04  6.2396138510047456e-05  1.4428477697927517e-04  4.9416965488289707e-04  7.3471384014516872e-04  1.1138010693911978e-03  9.9443543682121603e-04  6.1743148822901634e-04  1.3580475721717671e-04  2.5943635643217234e-04  3.0385182600310402e-04  8.4477511419667986e-04  1.5113159026352312e-03  4.5980204736002680e-04  6.9706436553820892e-04  1.6041911237915604e-03  4.2065475601371199e-04  1.2216947637884855e-03  5.0719533915534909e-04  2.7836235001494638e-04  1.8765103804228806e-03  1.4856513529067506e-03  2.2328288552807842e-03  1.0912524123847503e-03  1.0975892115317023e-03  6.3342047959226238e-04  1.4640496152585544e-03  3.0674225560496180e-03  1.7206194910694503e-03  8.5437241694045151e-04  2.9671705738103303e-03  4.8118894872254520e-04  2.5446578181293629e-03  6.7157026266597829e-04  1.1059398782615607e-03  2.2355306842476836e-03  2.4711397808088952e-03  2.7883226079583900e-03  2.9105108851572130e-03  2.8391195324511962e-03  2.5789959923005709e-03  1.7366396718788194e-03  7.2619965746162525e-04  1.7541737982557017e-03  1.4606053832339010e-03  1.7683311982977720e-03  2.5453071162610066e-03  1.9820813219165383e-03  8.5003993355199875e-04  2.9155921373597384e-04  6.2612609687622955e-04  7.3905558566248353e-04  7.7042352244348605e-04  2.6211457951003044e-04  8.4809632750527234e-05  1.0623628830872079e-06  7.4467909389861568e-05  4.1761167166351252e-05  2.3892449182761927e-05  8.8306202305716207e-06  8.6992759050002397e-06  6.0811353964278031e-07  2.2994707334047286e-06  5.2827704339392616e-06  1.0786366927896080e-05  2.0327222634564336e-07  1.5157710772892914e-06  1.1835307384201022e-05  5.8051266179970476e-06  7.3393627804818343e-06  1.5144785460927905e-07  5.6815429107973068e-06  2.5722361892788365e-06  1.2346002274007430e-06  3.7358120131016937e-06  3.4510055971313841e-06  1.3861542204846058e-05  1.4829213202688113e-06  7.6656099120066237e-07  8.2017839203312959e-06  1.3835706012691032e-05  5.3872644106184411e-06  6.3933157867935883e-06  1.4983174920610979e-05  1.1154218448437164e-05  4.9439381003122391e-06  9.1144391006654165e-07  3.7716289656835677e-07  1.8286525575855057e-06  4.8162990741837483e-06  3.1885430284006884e-06  2.7848841779880664e-06  4.6920890391404271e-06  2.2148441877122652e-06  3.0293410285783945e-06  2.2177407306722004e-06  6.1927092547994531e-07  4.4548946085740148e-07  1.1128334775113987e-22  -1.8572878730696280e-20  3.4000210041213553e-04  5.5935323155545586e-04  8.7395201326772134e-04  1.2869534909935317e-04  4.9526340829796848e-04  5.8304061168902956e-04  5.4910819581306810e-04  1.2296991208687617e-03  3.8751054576487354e-04  1.6498854629589544e-03  9.2517525294815849e-04  1.5107093103813456e-04  1.3007146102799068e-03  1.2163599626251076e-03  2.9252376642839161e-04  1.2857775014455031e-03  9.7895715412715150e-04  1.1225643682078871e-03  1.2260925036888185e-03  8.0166454260363217e-04  2.1524632899839109e-03  1.1538879989046722e-03  1.9960347355989830e-03  1.2202134761302730e-03  2.7172337214081453e-03  2.4264766434505865e-03  3.2752915871964924e-03  2.4669590185083389e-03  1.8103140471374874e-03  1.7251267127033709e-03  3.2753440373733170e-03  2.0094435879291087e-03  3.2545439535718590e-03  2.6790777793629359e-03  1.7571907816813258e-03  3.5851783674386831e-05  2.3135770287611682e-03  2.6465561665351420e-03  2.8955192781042584e-03  3.1037915553408010e-03  3.1621966576698027e-03  2.9829577949720197e-03  2.2174614305823879e-03  9.8077195796259669e-04  1.9165976519910674e-03  1.1176284636456228e-03  3.3212055496764678e-03  1.4714168645621880e-03  3.5263195734448565e-04  2.2435080908896193e-04  4.0031539251791953e-04  8.0019666150358290e-04  1.4860942042843402e-03  2.3310231802307346e-04  7.3293193777056620e-04  1.6275951014265599e-04  2.3882304538033151e-05  2.7273983831075704e-05  6.8483130668206942e-05  3.1864372153962241e-05  1.7472589753729232e-05  1.1262322080714014e-05  2.1380014751244915e-06  2.5575556019089172e-06  7.9140364416548330e-06  9.7428873576299758e-06  3.6268124857728562e-06  2.4640430307638696e-06  4.1921937074412572e-06  4.0680310344665021e-06  6.2004021454606974e-06  1.0277959473479300e-05  2.9957100525197009e-07  3.7610601039480023e-06  1.8021130033696152e-06  3.5689621612315436e-06  1.1108304336853320e-06  1.1886893634638611e-05  1.5171153411784706e-05  2.3154841209009738e-06  8.0315193919052544e-06  1.2372909438228539e-05  9.4743599272505670e-06  9.3319618407074360e-07  1.5792566480369344e-05  1.7095823255310715e-05  5.7006025765363075e-06  2.2917240032058035e-06  1.5646055123709993e-06  2.3746673845861114e-06  2.9510281322034715e-06  3.0783945828797975e-06  3.4851521695028637e-06  3.0583018595340438e-06  3.1600028289694482e-06  2.8183431523239503e-06  2.0310881495801807e-06  1.1421947592723285e-06  8.4463511843617617e-07  -4.6886667794741783e-23  -8.7543915584279724e-21  3.3457923892304481e-04  5.9484414188922918e-04  4.8195871621619155e-04  6.0543545818942019e-04  2.1464504480543141e-04  5.7535927168136838e-04  1.0548249761339204e-03  1.4300452268380167e-03  1.2822373078828083e-03  5.4767024434975104e-04  5.0286334404397363e-04  1.4476865199419275e-04  2.7122897936818414e-04  1.3096730800933631e-03  1.8073645573204878e-03  2.0236959514495292e-04  4.9014560649029016e-04  1.2848351950031532e-03  1.9195467833556278e-04  1.6047338988531409e-03  6.3677835380587249e-05  2.5535090274106587e-04  1.5052264444498423e-03  1.2498428288708480e-03  2.0763177830149240e-03  6.1022373423432310e-04  5.0734503339481749e-04  1.4694789613599894e-03  2.3708097909086829e-03  4.0427227239929918e-03  1.7597555664664421e-03  1.9199769726973329e-03  4.0055010798034866e-03  1.0731037500635644e-03  3.7624246256424106e-03  9.6669142236229812e-04  1.4085729942337193e-03  3.0533455713506342e-03  3.0627452067335218e-03  3.2867389794968790e-03  3.3995390223628074e-03  3.3275649501555362e-03  3.0142345679987303e-03  1.8896086407929774e-03  9.5256651978270599e-04  2.6026820432672681e-03  1.7021553089653985e-03  2.8862191074771298e-03  3.3516463082809392e-03  2.2979428950181207e-03  1.1121851223438882e-03  6.6982319183634469e-05  4.3258005894413300e-04  1.1797319602943220e-03  9.8383836637140360e-04  4.6360051020285581e-04  4.0570195164483376e-05  7.8711702651354051e-05  6.3197687624457277e-05  5.3901856441101189e-05  2.8762180234086231e-05  1.3243256651022639e-05  9.3790075119016278e-06  2.1399375324662529e-06  5.2943142728287959e-06  4.3828996631399196e-07  2.7900702820205242e-06  1.7894730659551868e-06  1.3826660410177698e-06  5.1624640997510900e-06  8.7437254970275992e-06  9.2764594586764364e-06  1.0826089593985449e-05  2.9115227165808751e-06  7.0465328542101069e-07  1.3198977915123082e-06  1.1048949981278631e-05  3.8778816348652262e-06  1.7547681306026552e-05  1.2657762403421708e-05  1.8639558336198524e-06  1.3841205735972892e-05  1.6637070142881873e-05  5.3665061651172340e-06  9.5975372226443351e-06  2.0246170493883509e-05  1.3096349747440302e-05  2.8613625583439709e-06  8.9267757600386979e-08  3.2496472701687169e-07  2.3575663878366363e-06  3.1057612889789183e-06  3.1411938652282302e-06  2.1660702043858453e-06  2.9591914724155234e-06  2.7241063525970740e-06  1.5428637656302573e-06  2.3085010810188592e-06  8.1246934715944075e-07  -4.5101108800929021e-23  -1.9423446999317666e-20  1.5770509824156658e-04  4.5655763185672174e-04  7.6866495030667847e-04  8.0452015576157158e-04  6.6035168739983087e-05  6.2439291786274608e-04  3.4362798428316788e-04  2.5153335791426780e-04  1.6262501012582957e-03  6.1826485841211644e-04  1.5893941343144489e-03  8.9803629792898319e-04  6.6382886770754635e-05  1.3187742330644792e-03  1.5066844718844721e-03  6.1852133174404903e-04  1.0577814107142088e-03  1.0708627214165850e-03  1.3524311410629437e-03  1.0645347952352162e-03  3.6553632561714053e-04  1.9042203709861080e-03  9.4264903569834808e-04  2.1766891794530200e-03  1.3901458863162014e-03  3.0374532714993537e-03  2.5506383448144479e-03  3.3659158334128055e-03  2.2750186044893667e-03  1.3832101606906881e-03  2.6656057909673139e-03  3.9516358645048473e-03  1.8942338016872974e-03  4.5790972197861605e-03  2.9318337243719379e-03  2.9220118824109706e-03  8.2993305471502419e-05  2.8304116003885602e-03  3.4857059508407759e-03  3.5077208439956054e-03  3.6482193524371236e-03  3.6966189229829115e-03  3.4851545887612779e-03  2.5747522552165090e-03  9.8841842262929898e-04  2.5035983617243572e-03  1.7014127914872158e-03  4.0878079125741618e-03  1.0886998719321509e-03  4.4543266955716644e-04  4.3069530437713871e-04  9.0547514584902615e-05  6.8225273702179629e-04  1.5841365300854756e-03  1.1521850917444815e-05  1.0676549962933791e-03  2.2888475049115915e-04  9.1890570098839382e-05  4.6426356701867925e-05  7.0344607208210554e-05  4.0363306287952994e-05  2.2593838433469952e-05  1.4048048899596974e-05  4.8339996087639662e-06  1.2257880462812139e-06  9.4167536553462106e-06  1.0608405028131398e-05  5.3222195985679057e-06  1.0579680838895953e-06  5.0656696784523460e-06  5.9473391214205897e-06  1.8708063864650989e-05  3.4169718975973358e-06  2.8810380197527662e-06  7.8336512991918527e-08  1.0211754886693742e-06  7.6335502710468511e-07  1.5257999994720241e-05  1.5325504534813305e-05  1.5886669652643233e-05  1.2175641131467460e-05  1.4148232654399265e-05  1.7215349237588535e-05  1.5572138984702059e-05  3.3250813181569236e-07  1.8473976287108943e-05  2.0016158761263762e-05  6.0929125321392318e-06  9.7001443187311984e-07  5.5465983452258666e-07  2.0012917802944410e-06  4.0830871606995771e-06  1.3502194792600425e-06  2.6710029322556057e-06  2.6145401654975247e-06  1.9891134603037713e-06  2.8236479076783321e-06  2.1574466123402044e-06  9.3520814328142400e-07  -1.2978620168599740e-22  -8.9797480094070643e-21  3.4990171467351141e-04  5.6108529259360691e-04  6.3987524510248522e-04  5.6716025740424303e-04  9.1361627917098279e-04  9.4333177388070615e-05  4.6812325763426345e-04  9.5085052753819568e-04  1.4377981823183814e-03  1.6363190795930624e-03  7.0528923065061482e-04  5.3545318879614254e-04  4.3456921566530413e-04  3.5620053080163240e-04  1.5675742363145978e-03  1.9806338368560735e-03 