<?xml version="1.0"?>
<VTKFile type="UnstructuredGrid"  version="0.1"  >
<UnstructuredGrid>
<Piece  NumberOfPoints="10201" NumberOfCells="20000">
<Points>
<DataArray  type="Float64"  NumberOfComponents="3"  format="ascii">0 0 0  0.01 0 0  0.02 0 0  0.03 0 0  0.04 0 0  0.05 0 0  0.06 0 0  0.07000000000000001 0 0  0.08 0 0  0.09 0 0  0.1 0 0  0.11 0 0  0.12 0 0  0.13 0 0  0.14 0 0  0.15 0 0  0.16 0 0  0.17 0 0  0.18 0 0  0.19 0 0  0.2 0 0  0.21 0 0  0.22 0 0  0.23 0 0  0.24 0 0  0.25 0 0  0.26 0 0  0.27 0 0  0.28 0 0  0.29 0 0  0.3 0 0  0.31 0 0  0.32 0 0  0.33 0 0  0.34 0 0  0.35 0 0  0.36 0 0  0.37 0 0  0.38 0 0  0.39 0 0  0.4 0 0  0.41 0 0  0.42 0 0  0.43 0 0  0.44 0 0  0.45 0 0  0.46 0 0  0.47 0 0  0.48 0 0  0.49 0 0  0.5 0 0  0.51 0 0  0.52 0 0  0.53 0 0  0.54 0 0  0.55 0 0  0.5600000000000001 0 0  0.57 0 0  0.58 0 0  0.59 0 0  0.6 0 0  0.61 0 0  0.62 0 0  0.63 0 0  0.64 0 0  0.65 0 0  0.66 0 0  0.67 0 0  0.68 0 0  0.6899999999999999 0 0  0.7 0 0  0.71 0 0  0.72 0 0  0.73 0 0  0.74 0 0  0.75 0 0  0.76 0 0  0.77 0 0  0.78 0 0  0.79 0 0  0.8 0 0  0.8100000000000001 0 0  0.82 0 0  0.83 0 0  0.84 0 0  0.85 0 0  0.86 0 0  0.87 0 0  0.88 0 0  0.89 0 0  0.9 0 0  0.91 0 0  0.92 0 0  0.93 0 0  0.9399999999999999 0 0  0.95 0 0  0.96 0 0  0.97 0 0  0.98 0 0  0.99 0 0  1 0 0  0 0.01 0  0.01 0.01 0  0.02 0.01 0  0.03 0.01 0  0.04 0.01 0  0.05 0.01 0  0.06 0.01 0  0.07000000000000001 0.01 0  0.08 0.01 0  0.09 0.01 0  0.1 0.01 0  0.11 0.01 0  0.12 0.01 0  0.13 0.01 0  0.14 0.01 0  0.15 0.01 0  0.16 0.01 0  0.17 0.01 0  0.18 0.01 0  0.19 0.01 0  0.2 0.01 0  0.21 0.01 0  0.22 0.01 0  0.23 0.01 0  0.24 0.01 0  0.25 0.01 0  0.26 0.01 0  0.27 0.01 0  0.28 0.01 0  0.29 0.01 0  0.3 0.01 0  0.31 0.01 0  0.32 0.01 0  0.33 0.01 0  0.34 0.01 0  0.35 0.01 0  0.36 0.01 0  0.37 0.01 0  0.38 0.01 0  0.39 0.01 0  0.4 0.01 0  0.41 0.01 0  0.42 0.01 0  0.43 0.01 0  0.44 0.01 0  0.45 0.01 0  0.46 0.01 0  0.47 0.01 0  0.48 0.01 0  0.49 0.01 0  0.5 0.01 0  0.51 0.01 0  0.52 0.01 0  0.53 0.01 0  0.54 0.01 0  0.55 0.01 0  0.5600000000000001 0.01 0  0.57 0.01 0  0.58 0.01 0  0.59 0.01 0  0.6 0.01 0  0.61 0.01 0  0.62 0.01 0  0.63 0.01 0  0.64 0.01 0  0.65 0.01 0  0.66 0.01 0  0.67 0.01 0  0.68 0.01 0  0.6899999999999999 0.01 0  0.7 0.01 0  0.71 0.01 0  0.72 0.01 0  0.73 0.01 0  0.74 0.01 0  0.75 0.01 0  0.76 0.01 0  0.77 0.01 0  0.78 0.01 0  0.79 0.01 0  0.8 0.01 0  0.8100000000000001 0.01 0  0.82 0.01 0  0.83 0.01 0  0.84 0.01 0  0.85 0.01 0  0.86 0.01 0  0.87 0.01 0  0.88 0.01 0  0.89 0.01 0  0.9 0.01 0  0.91 0.01 0  0.92 0.01 0  0.93 0.01 0  0.9399999999999999 0.01 0  0.95 0.01 0  0.96 0.01 0  0.97 0.01 0  0.98 0.01 0  0.99 0.01 0  1 0.01 0  0 0.02 0  0.01 0.02 0  0.02 0.02 0  0.03 0.02 0  0.04 0.02 0  0.05 0.02 0  0.06 0.02 0  0.07000000000000001 0.02 0  0.08 0.02 0  0.09 0.02 0  0.1 0.02 0  0.11 0.02 0  0.12 0.02 0  0.13 0.02 0  0.14 0.02 0  0.15 0.02 0  0.16 0.02 0  0.17 0.02 0  0.18 0.02 0  0.19 0.02 0  0.2 0.02 0  0.21 0.02 0  0.22 0.02 0  0.23 0.02 0  0.24 0.02 0  0.25 0.02 0  0.26 0.02 0  0.27 0.02 0  0.28 0.02 0  0.29 0.02 0  0.3 0.02 0  0.31 0.02 0  0.32 0.02 0  0.33 0.02 0  0.34 0.02 0  0.35 0.02 0  0.36 0.02 0  0.37 0.02 0  0.38 0.02 0  0.39 0.02 0  0.4 0.02 0  0.41 0.02 0  0.42 0.02 0  0.43 0.02 0  0.44 0.02 0  0.45 0.02 0  0.46 0.02 0  0.47 0.02 0  0.48 0.02 0  0.49 0.02 0  0.5 0.02 0  0.51 0.02 0  0.52 0.02 0  0.53 0.02 0  0.54 0.02 0  0.55 0.02 0  0.5600000000000001 0.02 0  0.57 0.02 0  0.58 0.02 0  0.59 0.02 0  0.6 0.02 0  0.61 0.02 0  0.62 0.02 0  0.63 0.02 0  0.64 0.02 0  0.65 0.02 0  0.66 0.02 0  0.67 0.02 0  0.68 0.02 0  0.6899999999999999 0.02 0  0.7 0.02 0  0.71 0.02 0  0.72 0.02 0  0.73 0.02 0  0.74 0.02 0  0.75 0.02 0  0.76 0.02 0  0.77 0.02 0  0.78 0.02 0  0.79 0.02 0  0.8 0.02 0  0.8100000000000001 0.02 0  0.82 0.02 0  0.83 0.02 0  0.84 0.02 0  0.85 0.02 0  0.86 0.02 0  0.87 0.02 0  0.88 0.02 0  0.89 0.02 0  0.9 0.02 0  0.91 0.02 0  0.92 0.02 0  0.93 0.02 0  0.9399999999999999 0.02 0  0.95 0.02 0  0.96 0.02 0  0.97 0.02 0  0.98 0.02 0  0.99 0.02 0  1 0.02 0  0 0.03 0  0.01 0.03 0  0.02 0.03 0  0.03 0.03 0  0.04 0.03 0  0.05 0.03 0  0.06 0.03 0  0.07000000000000001 0.03 0  0.08 0.03 0  0.09 0.03 0  0.1 0.03 0  0.11 0.03 0  0.12 0.03 0  0.13 0.03 0  0.14 0.03 0  0.15 0.03 0  0.16 0.03 0  0.17 0.03 0  0.18 0.03 0  0.19 0.03 0  0.2 0.03 0  0.21 0.03 0  0.22 0.03 0  0.23 0.03 0  0.24 0.03 0  0.25 0.03 0  0.26 0.03 0  0.27 0.03 0  0.28 0.03 0  0.29 0.03 0  0.3 0.03 0  0.31 0.03 0  0.32 0.03 0  0.33 0.03 0  0.34 0.03 0  0.35 0.03 0  0.36 0.03 0  0.37 0.03 0  0.38 0.03 0  0.39 0.03 0  0.4 0.03 0  0.41 0.03 0  0.42 0.03 0  0.43 0.03 0  0.44 0.03 0  0.45 0.03 0  0.46 0.03 0  0.47 0.03 0  0.48 0.03 0  0.49 0.03 0  0.5 0.03 0  0.51 0.03 0  0.52 0.03 0  0.53 0.03 0  0.54 0.03 0  0.55 0.03 0  0.5600000000000001 0.03 0  0.57 0.03 0  0.58 0.03 0  0.59 0.03 0  0.6 0.03 0  0.61 0.03 0  0.62 0.03 0  0.63 0.03 0  0.64 0.03 0  0.65 0.03 0  0.66 0.03 0  0.67 0.03 0  0.68 0.03 0  0.6899999999999999 0.03 0  0.7 0.03 0  0.71 0.03 0  0.72 0.03 0  0.73 0.03 0  0.74 0.03 0  0.75 0.03 0  0.76 0.03 0  0.77 0.03 0  0.78 0.03 0  0.79 0.03 0  0.8 0.03 0  0.8100000000000001 0.03 0  0.82 0.03 0  0.83 0.03 0  0.84 0.03 0  0.85 0.03 0  0.86 0.03 0  0.87 0.03 0  0.88 0.03 0  0.89 0.03 0  0.9 0.03 0  0.91 0.03 0  0.92 0.03 0  0.93 0.03 0  0.9399999999999999 0.03 0  0.95 0.03 0  0.96 0.03 0  0.97 0.03 0  0.98 0.03 0  0.99 0.03 0  1 0.03 0  0 0.04 0  0.01 0.04 0  0.02 0.04 0  0.03 0.04 0  0.04 0.04 0  0.05 0.04 0  0.06 0.04 0  0.07000000000000001 0.04 0  0.08 0.04 0  0.09 0.04 0  0.1 0.04 0  0.11 0.04 0  0.12 0.04 0  0.13 0.04 0  0.14 0.04 0  0.15 0.04 0  0.16 0.04 0  0.17 0.04 0  0.18 0.04 0  0.19 0.04 0  0.2 0.04 0  0.21 0.04 0  0.22 0.04 0  0.23 0.04 0  0.24 0.04 0  0.25 0.04 0  0.26 0.04 0  0.27 0.04 0  0.28 0.04 0  0.29 0.04 0  0.3 0.04 0  0.31 0.04 0  0.32 0.04 0  0.33 0.04 0  0.34 0.04 0  0.35 0.04 0  0.36 0.04 0  0.37 0.04 0  0.38 0.04 0  0.39 0.04 0  0.4 0.04 0  0.41 0.04 0  0.42 0.04 0  0.43 0.04 0  0.44 0.04 0  0.45 0.04 0  0.46 0.04 0  0.47 0.04 0  0.48 0.04 0  0.49 0.04 0  0.5 0.04 0  0.51 0.04 0  0.52 0.04 0  0.53 0.04 0  0.54 0.04 0  0.55 0.04 0  0.5600000000000001 0.04 0  0.57 0.04 0  0.58 0.04 0  0.59 0.04 0  0.6 0.04 0  0.61 0.04 0  0.62 0.04 0  0.63 0.04 0  0.64 0.04 0  0.65 0.04 0  0.66 0.04 0  0.67 0.04 0  0.68 0.04 0  0.6899999999999999 0.04 0  0.7 0.04 0  0.71 0.04 0  0.72 0.04 0  0.73 0.04 0  0.74 0.04 0  0.75 0.04 0  0.76 0.04 0  0.77 0.04 0  0.78 0.04 0  0.79 0.04 0  0.8 0.04 0  0.8100000000000001 0.04 0  0.82 0.04 0  0.83 0.04 0  0.84 0.04 0  0.85 0.04 0  0.86 0.04 0  0.87 0.04 0  0.88 0.04 0  0.89 0.04 0  0.9 0.04 0  0.91 0.04 0  0.92 0.04 0  0.93 0.04 0  0.9399999999999999 0.04 0  0.95 0.04 0  0.96 0.04 0  0.97 0.04 0  0.98 0.04 0  0.99 0.04 0  1 0.04 0  0 0.05 0  0.01 0.05 0  0.02 0.05 0  0.03 0.05 0  0.04 0.05 0  0.05 0.05 0  0.06 0.05 0  0.07000000000000001 0.05 0  0.08 0.05 0  0.09 0.05 0  0.1 0.05 0  0.11 0.05 0  0.12 0.05 0  0.13 0.05 0  0.14 0.05 0  0.15 0.05 0  0.16 0.05 0  0.17 0.05 0  0.18 0.05 0  0.19 0.05 0  0.2 0.05 0  0.21 0.05 0  0.22 0.05 0  0.23 0.05 0  0.24 0.05 0  0.25 0.05 0  0.26 0.05 0  0.27 0.05 0  0.28 0.05 0  0.29 0.05 0  0.3 0.05 0  0.31 0.05 0  0.32 0.05 0  0.33 0.05 0  0.34 0.05 0  0.35 0.05 0  0.36 0.05 0  0.37 0.05 0  0.38 0.05 0  0.39 0.05 0  0.4 0.05 0  0.41 0.05 0  0.42 0.05 0  0.43 0.05 0  0.44 0.05 0  0.45 0.05 0  0.46 0.05 0  0.47 0.05 0  0.48 0.05 0  0.49 0.05 0  0.5 0.05 0  0.51 0.05 0  0.52 0.05 0  0.53 0.05 0  0.54 0.05 0  0.55 0.05 0  0.5600000000000001 0.05 0  0.57 0.05 0  0.58 0.05 0  0.59 0.05 0  0.6 0.05 0  0.61 0.05 0  0.62 0.05 0  0.63 0.05 0  0.64 0.05 0  0.65 0.05 0  0.66 0.05 0  0.67 0.05 0  0.68 0.05 0  0.6899999999999999 0.05 0  0.7 0.05 0  0.71 0.05 0  0.72 0.05 0  0.73 0.05 0  0.74 0.05 0  0.75 0.05 0  0.76 0.05 0  0.77 0.05 0  0.78 0.05 0  0.79 0.05 0  0.8 0.05 0  0.8100000000000001 0.05 0  0.82 0.05 0  0.83 0.05 0  0.84 0.05 0  0.85 0.05 0  0.86 0.05 0  0.87 0.05 0  0.88 0.05 0  0.89 0.05 0  0.9 0.05 0  0.91 0.05 0  0.92 0.05 0  0.93 0.05 0  0.9399999999999999 0.05 0  0.95 0.05 0  0.96 0.05 0  0.97 0.05 0  0.98 0.05 0  0.99 0.05 0  1 0.05 0  0 0.06 0  0.01 0.06 0  0.02 0.06 0  0.03 0.06 0  0.04 0.06 0  0.05 0.06 0  0.06 0.06 0  0.07000000000000001 0.06 0  0.08 0.06 0  0.09 0.06 0  0.1 0.06 0  0.11 0.06 0  0.12 0.06 0  0.13 0.06 0  0.14 0.06 0  0.15 0.06 0  0.16 0.06 0  0.17 0.06 0  0.18 0.06 0  0.19 0.06 0  0.2 0.06 0  0.21 0.06 0  0.22 0.06 0  0.23 0.06 0  0.24 0.06 0  0.25 0.06 0  0.26 0.06 0  0.27 0.06 0  0.28 0.06 0  0.29 0.06 0  0.3 0.06 0  0.31 0.06 0  0.32 0.06 0  0.33 0.06 0  0.34 0.06 0  0.35 0.06 0  0.36 0.06 0  0.37 0.06 0  0.38 0.06 0  0.39 0.06 0  0.4 0.06 0  0.41 0.06 0  0.42 0.06 0  0.43 0.06 0  0.44 0.06 0  0.45 0.06 0  0.46 0.06 0  0.47 0.06 0  0.48 0.06 0  0.49 0.06 0  0.5 0.06 0  0.51 0.06 0  0.52 0.06 0  0.53 0.06 0  0.54 0.06 0  0.55 0.06 0  0.5600000000000001 0.06 0  0.57 0.06 0  0.58 0.06 0  0.59 0.06 0  0.6 0.06 0  0.61 0.06 0  0.62 0.06 0  0.63 0.06 0  0.64 0.06 0  0.65 0.06 0  0.66 0.06 0  0.67 0.06 0  0.68 0.06 0  0.6899999999999999 0.06 0  0.7 0.06 0  0.71 0.06 0  0.72 0.06 0  0.73 0.06 0  0.74 0.06 0  0.75 0.06 0  0.76 0.06 0  0.77 0.06 0  0.78 0.06 0  0.79 0.06 0  0.8 0.06 0  0.8100000000000001 0.06 0  0.82 0.06 0  0.83 0.06 0  0.84 0.06 0  0.85 0.06 0  0.86 0.06 0  0.87 0.06 0  0.88 0.06 0  0.89 0.06 0  0.9 0.06 0  0.91 0.06 0  0.92 0.06 0  0.93 0.06 0  0.9399999999999999 0.06 0  0.95 0.06 0  0.96 0.06 0  0.97 0.06 0  0.98 0.06 0  0.99 0.06 0  1 0.06 0  0 0.07000000000000001 0  0.01 0.07000000000000001 0  0.02 0.07000000000000001 0  0.03 0.07000000000000001 0  0.04 0.07000000000000001 0  0.05 0.07000000000000001 0  0.06 0.07000000000000001 0  0.07000000000000001 0.07000000000000001 0  0.08 0.07000000000000001 0  0.09 0.07000000000000001 0  0.1 0.07000000000000001 0  0.11 0.07000000000000001 0  0.12 0.07000000000000001 0  0.13 0.07000000000000001 0  0.14 0.07000000000000001 0  0.15 0.07000000000000001 0  0.16 0.07000000000000001 0  0.17 0.0700
[...]
<PointData  Scalars="Indicator Function"> 
<DataArray  type="Float64"  Name="Indicator Function"  format="ascii">-1.8055593228630336e-35  -6.6546840483182734e-20  2.0554467155489298e-20  3.2656769147651719e-19  3.4400509517775911e-19  -3.5511950999289925e-20  -3.1084046817883548e-20  6.5258133684577294e-19  9.2889970629802129e-19  -9.0277966143151681e-36  4.9736208632190132e-18  2.8607217191803772e-18  -4.1736212195760142e-20  -3.6311606805784222e-20  7.7064821303001225e-18  -9.0407915017929450e-21  -5.9892215935245818e-21  2.1638205971422524e-18  -3.5715368375713411e-20  -4.5138983071575840e-35  5.6225288080542617e-18  0.0000000000000000e+00  -3.8731944148478078e-20  1.3091614154416131e-17  -5.2572194536179183e-20  -2.6286097268089603e-20  -1.9755082440605421e-20  -4.6005925302698491e-20  4.1418197046675652e-17  -1.7586307388660508e-20  -8.4228703925599907e-20  -3.0156494208516998e-20  -4.9538433297684533e-20  -1.5322149728044265e-20  2.3689238931621845e-17  -9.7261534999059316e-20  -1.2952242703655202e-19  -1.4695437168700308e-19  -1.5209677983831759e-19  -1.4801989076090295e-19  8.7920015644826390e-18  -8.6893542955053377e-20  -2.5576536548156299e-20  -3.4056433027498532e-20  -1.9925204991904007e-20  -2.2773155820319849e-20  2.9613080915695714e-17  -1.4708691585342443e-20  -8.1552053057910204e-21  -1.3470678960380495e-21  -2.2766023005217268e-20  -1.1383011502608641e-20  -8.2951112925428007e-21  -9.4021200584737269e-21  -8.6673601595705569e-21  -5.0235516812857846e-21  2.4451962174233089e-19  -1.0032868626453084e-21  -3.4305821375164004e-22  -5.2971893474593862e-22  -3.2740602711689385e-22  -6.4288410848169509e-22  -7.0997242767942210e-22  -1.5151362092657276e-21  -1.9735140808507200e-21  -7.2049110812035859e-22  -2.7513534937143443e-21  -2.5654826537453922e-21  2.3281764507352794e-18  0.0000000000000000e+00  -9.7026206717238784e-23  -3.8711031606487980e-22  -5.7687062190256935e-22  -6.6546056859402039e-22  -6.1669435187720857e-22  -6.5202175772303928e-22  -6.8413058251881578e-22  -4.7143197087819578e-22  -6.4672489679216948e-22  -6.4406295870654173e-22  -6.8937563787320652e-22  6.9145950695470874e-21  -3.9108191418219794e-22  0.0000000000000000e+00  4.7019774032891500e-38  -1.0994402526233221e-22  -2.0928949425790601e-22  -1.9158368218296609e-22  -2.6796491554877764e-22  -8.3900772728997762e-23  -1.3756118237564860e-22  0.0000000000000000e+00  -3.6237877833631658e-22  5.9570631615777424e-19  -2.3742646402995349e-22  -1.7120650294407299e-22  -5.1197451447254630e-23  -6.4942515921692102e-23  -1.9671895099032417e-23  -3.1773854838370846e-23  0.0000000000000000e+00  -3.5940301241395783e-20  5.6716745166357236e-04  2.3518797986830269e-04  1.5739867592287900e-04  3.5411684993282347e-04  2.8331171225151310e-04  4.9807058102464905e-04  3.1092511615242577e-04  7.0387321298954401e-04  5.5959504786396917e-05  2.9818056566414836e-05  4.3940167990212257e-04  7.5688388767755871e-04  3.7341081493194589e-04  4.6742634805304066e-04  2.7564170565635071e-04  2.5043568126260867e-05  7.8375694576408113e-04  1.3386859037010926e-04  6.4339087883305145e-04  2.1359204710776213e-04  3.1857050082501710e-04  2.4938466125787556e-04  5.7304034630874918e-04  2.1433279298268499e-04  9.4705646289274317e-04  7.1175185534547169e-04  9.4013695668139984e-04  3.5870059385956899e-04  6.3361349921915494e-04  8.6165445962140973e-04  1.0865022086422212e-03  6.8073291302795812e-04  5.5203862244590149e-04  7.5124267852745957e-06  8.5997507242842233e-04  1.3221205149027727e-03  1.6722083591003654e-03  1.8111904347300270e-03  1.8343367866513842e-03  1.7493209061712042e-03  1.3985109956195637e-03  8.6607941288334032e-04  4.6074592187081827e-04  3.8313319543343324e-04  8.2048940853157867e-04  6.0252271912448780e-04  5.2993646354284598e-04  2.9050206463566373e-04  1.6600859873294002e-06  2.3436574904894192e-05  4.1011621089201850e-04  1.0860934578979945e-04  9.5126767609470450e-05  1.2181015376260448e-04  9.5232203058409103e-05  6.9675213605480363e-05  4.5950588815515428e-05  2.5445457828972969e-05  1.4456395164346249e-05  9.6119547899639852e-06  8.6860067792750304e-06  7.2381671359647836e-06  1.6215570027388999e-05  1.9186482456164204e-05  2.5958427888436808e-05  2.1078233187760677e-05  3.9024861682345395e-05  2.6703196052560713e-05  1.3473555079712971e-05  4.5557647458086225e-06  1.7478687536677164e-06  6.0996251238904127e-06  7.3421647094203828e-06  8.3167895202889643e-06  6.9509830531182605e-06  8.2702882539166081e-06  8.3792100386751873e-06  7.9740520181996285e-06  8.2785419520802769e-06  7.4631358272955427e-06  9.4008556513290022e-06  8.5769758228822839e-06  2.7566175404880046e-06  2.9497632102616026e-06  3.3276739237019759e-06  3.1673852296121654e-07  6.9025295975157856e-06  3.6087657297361586e-06  3.0228439103872833e-06  4.5224968338872265e-06  2.1683354180684835e-07  5.1923284385679920e-07  6.2684193024010836e-06  1.1654417332688347e-06  3.6943740730983558e-06  1.2369951349001528e-06  9.2229129304069952e-07  7.0875471550138987e-07  1.1447737664816879e-06  3.1773854838370951e-23  -1.2847434256754926e-20  6.4744290911333358e-04  1.6621491111738757e-04  9.5364900774607076e-05  1.0064996490415917e-05  3.3938131142932220e-04  5.4269736617745107e-04  6.5804955818262660e-04  7.8132541147645082e-04  6.8680910637455904e-05  1.8714634979549773e-04  4.8787587540666580e-04  6.6805517996661277e-04  1.0017567351923926e-03  9.4917254515276307e-04  6.3465813283860347e-04  1.2457329220145175e-03  7.5617420293078773e-05  4.9503494520441115e-04  9.9949490748440064e-04  4.7799349578059449e-04  1.6404983011599212e-03  1.0690381688369371e-03  1.7715622898387764e-03  1.0196821712193489e-03  1.2902809306527625e-03  3.7267191842935723e-05  3.2818772917456407e-04  1.7545989436762895e-03  1.2740724142871450e-03  4.2787999474347234e-05  1.7546248472563170e-03  1.1921587993450719e-04  1.1873834730626491e-03  6.7596404403748160e-04  1.1663642626977039e-03  1.6354542028090651e-03  2.1784489842102384e-03  2.5114735570911230e-03  2.6071353191059387e-03  2.5361141926814618e-03  2.3322620511509393e-03  1.7565052371631411e-03  2.4444537835446064e-04  1.0942862014654189e-03  9.4811035095667144e-04  9.0680028031364939e-04  1.2881538276607082e-03  1.0966660493977134e-03  3.7849171976813659e-04  3.7125527835610083e-04  6.6535894965825547e-04  2.1380708435933665e-04  2.9330336055888512e-04  1.2164949102006688e-04  1.3077487557605353e-04  9.5208789555532595e-05  8.0445349185741675e-05  4.6336371658847203e-05  2.7806812269119297e-05  1.9985924410418610e-05  1.1491355655686909e-05  1.4139104537478981e-05  1.4707959314474034e-05  2.4258811697421347e-05  3.6779135344328275e-05  3.2181057127861721e-06  5.9769779648206946e-05  3.9744951395672846e-05  2.1641612577952571e-05  9.8434602181224769e-06  3.4967624950448620e-07  3.9673244633521790e-06  8.9751674323461786e-06  1.0830425007110324e-05  1.2925264177853679e-05  1.1112931005611169e-05  1.1294096074942878e-05  9.9093841707478677e-06  1.3965227123013364e-05  1.3148659507377609e-05  1.2563012277996375e-05  1.0348124342287495e-05  9.8091433525968952e-06  4.8499609642426042e-06  2.3951222628512535e-06  7.8010716969756900e-06  4.1666298978261455e-06  2.9587360341111449e-06  8.5414174819310005e-06  8.0374862021985710e-06  2.3823946867648016e-06  2.9437302361804247e-06  1.0136119364628093e-05  1.5851199360127764e-06  7.5817739173315839e-06  3.6119603535709453e-07  1.5999144393788563e-06  3.2101210973932132e-06  3.7604390146157598e-07  2.8148681425790429e-23  -2.4141258887679695e-20  2.3143880052555447e-04  4.5468959231532600e-04  7.5988356307320676e-05  5.3383986647902106e-04  7.4521859779203470e-04  6.6229443765733551e-04  8.7527415245935189e-04  2.2418529887779467e-04  1.3434667365934527e-03  5.0899396283299065e-04  6.0101952425315682e-06  1.0635340416769964e-03  1.2654619636593681e-03  2.6935996033293242e-04  1.0312011168409478e-03  1.9553603613947060e-04  3.3367702033977397e-04  1.5613801969425101e-03  8.3700099524693843e-04  1.7755281405332050e-03  4.4090901218632678e-04  1.1471650656244010e-03  3.1905046782029279e-04  1.6884290396888236e-03  1.4531164953997819e-03  2.5008319131368689e-03  2.1183226307990681e-03  2.0325271530111733e-03  7.8720917185633621e-04  2.1760339827479485e-03  1.9880441686619880e-03  2.1485085212148624e-03  2.2582810636626264e-03  1.0151819633691288e-03  2.5961841100599349e-04  2.0078983368958829e-03  2.2573652075394794e-03  2.7620831341525951e-03  2.9795574220878840e-03  3.0176299440584889e-03  2.8353225959997681e-03  2.1588990583448794e-03  1.3851046741447251e-03  1.3992386711493476e-03  7.5466400815326186e-04  2.3832274503680323e-03  1.3835149138909850e-03  8.1493932858616293e-04  4.6059009399130273e-04  1.3465253149041296e-04  1.8514845580342470e-04  1.0410862016288461e-03  4.6537141484970002e-04  2.2717361343720650e-04  1.1364660861365480e-04  8.3626120179243431e-05  8.2040322915938489e-05  7.1403819979840233e-05  3.8705287971012822e-05  2.3530817372187780e-05  1.9074381064750227e-05  1.5694132260443224e-05  1.2492533824247366e-05  2.8856605113844414e-05  2.5822048980069615e-05  4.2932810721543157e-05  5.6555396639939680e-05  6.5914841643497401e-05  2.2076178895614244e-05  1.1772116116899292e-05  5.2805208557379025e-06  3.2612247780829407e-06  8.0746375882832793e-06  1.0203678989802217e-05  1.2884405873458051e-05  1.1081579390138124e-05  1.4732526766746182e-05  1.3887263003382659e-05  1.1141286459410092e-05  1.5219590259904067e-05  1.3231326898015629e-05  1.7573078567599535e-05  1.3312886343386641e-05  3.2774969740884372e-06  7.5828285431867084e-06  7.5337380333284952e-06  3.8317588499379590e-06  1.4966297124875324e-05  7.9689865995973146e-06  5.0345485399022026e-06  1.7509481112884935e-05  1.4680324189828858e-06  1.2999691555774881e-06  1.6396581931357069e-05  4.9249303241583388e-06  7.2978445084320536e-06  1.9201401697462152e-06  4.9329144796761410e-06  3.7429527725434603e-06  -5.1943904352028858e-22  -1.8782896253087840e-20  4.3489025812323649e-04  6.1137741799004392e-04  2.3014114715356517e-07  1.5459970749383931e-04  4.8877178254519980e-04  6.9709115991701046e-04  1.1697571845015837e-03  1.0613725453350045e-03  6.7903239757040746e-04  2.1029999946443426e-04  1.8706955437736752e-06  4.7107790212977169e-04  1.0160326925903274e-03  1.5133576445777520e-03  7.6258278993016819e-04  9.7357919403396394e-04  1.7995396823324498e-03  3.6108723694469960e-04  1.1947355257191366e-03  6.8692648362104233e-04  4.1937627131240896e-04  2.1562885574042362e-03  1.6990989727608923e-03  2.5374698714176768e-03  1.3363528467549501e-03  1.3628175139955812e-03  5.2825653750533848e-04  1.4957092921902033e-03  3.3342723954548027e-03  2.0190986482894933e-03  7.2169589926552409e-04  3.2529111054979544e-03  3.9400789589181645e-04  2.6873568930810797e-03  8.5379266144339347e-04  1.9977760870046831e-03  2.4422665618113282e-03  2.8219622124292273e-03  3.2059552355066345e-03  3.3052297002980806e-03  3.2199909105888910e-03  2.9592196233972664e-03  2.0549957427551165e-03  5.7408729663932685e-04  2.0129749771370087e-03  1.5320229071457486e-03  2.0816394653540801e-03  2.8658657703121444e-03  2.2751549754456988e-03  1.0261132465301942e-03  3.8640767013399323e-04  9.7527665845831887e-04  4.7707981855434127e-04  7.3588877539345428e-04  1.4018531533089331e-04  8.7031123519916003e-05  5.1979695426834559e-05  7.5564964275301246e-05  5.0610877049487748e-05  3.1943394760217986e-05  2.3531771567806552e-05  1.3292915281220639e-05  1.9314741313860661e-05  1.5373086944696831e-05  3.3070697558493458e-05  4.2903025955112367e-05  4.9403730532189433e-06  9.9936891959204129e-05  4.1198913565620154e-05  7.9105911191132481e-06  5.9278669192595220e-06  5.6674480857005077e-07  3.6927833550301386e-06  1.0892717607154473e-05  1.0863827487050512e-05  1.4709242146394417e-05  1.0613022380490121e-05  1.4188674366734308e-05  1.3070703936300967e-05  1.6328679565082206e-05  1.5868901181723772e-05  1.3318870470760531e-05  1.4593728154754658e-05  1.4054249497968214e-05  3.0412226132882766e-06  6.1921829060856192e-06  1.4040242943794740e-05  5.4030592655172990e-06  1.0587704907725344e-05  1.2513090190781820e-05  1.3155303209486927e-05  1.1541288465772377e-05  4.1763680958979247e-06  1.4407659442572381e-05  3.7826320544753841e-06  8.8394775417149081e-06  7.9328481428643389e-07  2.1097017045002735e-06  4.5525460418976454e-06  1.1372268231856967e-21  -2.3089077737450554e-20  3.3836257826537990e-04  5.8920693602336862e-04  9.5687088495087925e-04  1.3104037194475553e-04  5.5758899802058049e-04  7.1776170414812785e-04  6.8283822844819510e-04  1.3230201314821028e-03  4.0890003999277804e-04  1.6844575435687771e-03  9.1642840372212198e-04  2.5852784956579116e-05  1.4088580177843756e-03  1.4690421039429012e-03  3.8230982019126907e-04  1.2758856589821514e-03  9.7083311939261856e-04  1.0477564836806686e-03  1.5254634818738127e-03  9.7559277204513578e-04  2.3325244352711150e-03  1.1313354185093340e-03  2.0783557444533649e-03  1.1948830270703250e-03  2.8069290034706132e-03  2.5400228301818528e-03  3.6254537837675494e-03  2.8145892883460204e-03  2.1603930189580465e-03  1.7082871845802111e-03  3.6068886360261280e-03  2.4872843097040079e-03  3.5226715595196843e-03  3.1091254415428408e-03  1.8478108827943193e-03  3.5526894696131936e-04  3.0577152578194228e-03  2.8998937705025712e-03  3.3514651977675247e-03  3.5778330821040491e-03  3.6030310365004026e-03  3.3718244289973501e-03  2.5744840220187624e-03  1.6182278934597559e-03  2.2654447846938795e-03  1.3722250011610111e-03  3.6904421187318563e-03  1.3467382767601687e-03  6.5238566699344936e-05  1.5702808518342940e-04  1.2608281813630861e-04  4.1921469048614287e-04  1.5815176465639662e-03  5.6985034033113057e-04  5.0747703504851866e-04  9.0872385963868037e-05  4.1881764918268809e-05  5.3447001694303902e-05  7.1404149487182503e-05  3.6174229046724678e-05  2.3563572197522208e-05  2.1726307979390944e-05  1.3777199449999755e-05  1.3284166268262710e-05  2.9711956205737146e-05  2.7810267011935094e-05  5.4636410111187350e-05  7.4698122631055100e-05  9.2738385271333925e-05  1.1631958773154112e-05  2.7473940617389610e-06  2.4828299827849131e-06  1.8377880292404696e-06  5.2372552214955930e-06  1.1583036509874577e-05  1.2646477799183992e-05  1.1517723587227777e-05  1.3930113225451891e-05  1.3701784932502156e-05  1.1258320305754676e-05  1.7805949855285304e-05  1.5034103599598142e-05  1.7049281425104129e-05  1.3653633894866378e-05  4.6575056631905246e-06  5.4285746547473598e-06  9.4852657757399304e-06  9.2469582962129425e-06  1.6799816214963042e-05  5.9022293680517840e-06  6.7429105219571140e-06  2.8378710774159661e-05  1.7012193246195164e-06  9.2763756357431493e-07  2.5784192443571050e-05  4.4348229390424226e-06  1.4879007418362609e-05  7.7406877336046307e-07  1.9343170762387065e-06  -1.0737616774829117e-22  -1.2610223057069856e-20  4.1593584757884319e-04  6.5108986841371614e-04  5.5903457618513338e-04  6.0663907229207116e-04  2.4793818151289538e-04  5.9858345601547297e-04  1.0723110402791798e-03  1.5295074854294092e-03  1.3779060224700518e-03  6.0332162374378457e-04  5.3726798163748345e-04  4.0013251288611632e-04  4.3872787257857675e-04  1.4926252737084021e-03  1.8674948590460838e-03  5.3329287258093447e-04  8.6397093132564934e-04  1.5019176153991058e-03  1.8661719973901478e-04  1.6699818128626399e-03  1.9293170755542319e-04  1.1706041869544254e-04  1.8225233806787036e-03  1.5111555812304972e-03  2.4399941249781607e-03  9.0923650096008809e-04  7.9330929583286132e-04  1.4236850152948761e-03  2.4955056411250674e-03  4.4789522221666597e-03  2.1483142177401516e-03  1.8479305189128079e-03  4.4886786165160295e-03  9.7938716874816038e-04  4.0875831016100985e-03  1.1935491771164436e-03  2.4798711568307405e-03  3.4247952738387264e-03  3.4562248976037590e-03  3.8296718331958966e-03  3.9230428082852572e-03  3.8248579572173823e-03  3.4820285041631187e-03  2.2756372574980273e-03  7.2728755642712103e-04  3.0899181961416204e-03  1.7791574113627908e-03  3.3773502191648827e-03  3.6880373391162307e-03  2.5427470653872817e-03  1.1762271890278279e-03  3.6457949410230022e-04  9.5613440749256538e-04  8.8217193700326443e-04  1.0564250834406074e-03  2.3571843558625968e-04  3.4460507912271736e-05  7.1070376336209992e-06  6.3597137608862315e-05  5.7354672157016149e-05  3.3399912547603810e-05  2.3578076070215590e-05  1.5175593787618414e-05  1.9332416867585529e-05  1.2823199159813364e-05  3.7770509918782958e-05  4.2353095034949595e-05  1.3606760229452864e-05  1.3313031308572775e-04  4.8451605001257094e-05  6.1616570353308823e-06  2.9345686868004728e-06  8.0000970551679112e-07  2.2843499427475968e-06  6.8715033745213004e-06  9.5056641786863700e-06  1.4302934853435045e-05  8.7967375294862952e-06  1.3866560436494295e-05  1.1399962822339437e-05  1.4392337604540673e-05  1.6704830986940180e-05  1.3004245608928741e-05  1.4937711575316690e-05  1.3249058684376321e-05  1.1517233728752201e-06  4.9153577472079378e-06  1.4310757461643472e-05  7.0608907812262018e-06  1.1914488196137900e-05  1.5720724122092565e-05  1.2192250063284583e-05  2.3227513525756545e-05  5.1180232011442799e-06  1.6534776111341424e-05  1.4105228163193056e-05  8.5593095809839346e-06  8.2078025890270385e-06  1.7463322935483525e-06  3.7615819226313200e-37  -2.0821952013503371e-20  2.2716558344351460e-04  5.2895518582552219e-04  8.7002966738754185e-04  9.0650174345728021e-04  6.2222701590844897e-05  7.0176578447302238e-04  4.7050456943452428e-04  3.9611131157849379e-04  1.7539405054162517e-03  6.4795715312233849e-04  1.6642234867678832e-03  9.1169321648406514e-04  1.6353472270239569e-04  1.5179414803348974e-03  1.8118570119870882e-03  6.7404949097385068e-04  1.1183642479413477e-03  1.1943812160034324e-03  1.3449883314820559e-03  1.3418482367205189e-03  5.4144056190448704e-04  2.1194217729395919e-03  9.5010594700286049e-04  2.3266054163383742e-03  1.4279145279828744e-03  3.2026409572607300e-03  2.7551003840591390e-03  3.8155788275395629e-03  2.6982048193269189e-03  1.7559147958518923e-03  2.7217840165058302e-03  4.4328389638379146e-03  2.4899683807765318e-03  5.0288546380003662e-03  3.4929867746069953e-03  3.1352008473352856e-03  4.2876076374043318e-04  3.9163531741177376e-03  3.7790323711668142e-03  4.0564782249885890e-03  4.2721876294578949e-03  4.2789189024403746e-03  4.0036859524984784e-03  3.0433996999715911e-03  1.7149524305833663e-03  2.8572304024658858e-03  2.1830179740197032e-03  4.5501851009410697e-03  9.0649385032020278e-04  7.9116155152343204e-04  8.3088327008560951e-04  5.8087257634836472e-04  3.7706329063178813e-04  1.8516213976047179e-03  4.1766322116284355e-04  8.8351237345237008e-04  9.0652193816590543e-05  1.6157353601605005e-05  7.5312304777431887e-06  6.4770738105172148e-05  3.9703793844949766e-05  2.8167188808348784e-05  2.4824275950410148e-05  1.3762737614527515e-05  1.6352221379584795e-05  2.7503528262769148e-05  3.3634370303470115e-05  5.8386879940686660e-05  7.8846455313861887e-05  1.2646023456932371e-04  4.2375923719934462e-06  9.3065997230609465e-06  5.5042945440732434e-07  9.3939687325347998e-08  3.9280424950217899e-06  9.0148631425299472e-06  9.0116845440643748e-06  1.1990234513032552e-05  1.0424247131283406e-05  1.3177613932537333e-05  8.7678605602457620e-06  1.5626317547023167e-05  1.5287043462834868e-05  1.3990376821793636e-05  1.3578592433426477e-05  3.9892062784424790e-06  5.6791550637170423e-07  9.9838563074321692e-06  1.1365853828519831e-05  1.5619498288029582e-05  6.1216543648824324e-06  1.2163372885279108e-05  2.7076587876236097e-05  7.8047971627418161e-06  3.8508190066120797e-06  2.7863632543096715e-05  2.3489979238631537e-06  1.6849773223709155e-05  5.4919351663324178e-06  -6.0020311744332801e-22  -1.4611340539437738e-20  3.7509494131656189e-04  6.4287256236824958e-04  7.0753263842618993e-04  6.9033990550354746e-04  9.8199904245428672e-04  1.2835136311605398e-04  5.0280221871504868e-04  9.9931151293919211e-04  1.5883806077776987e-03  1.7619456729923311e-03  7.5966940068419343e-04  5.6278334661377801e-04  6.3920061879051203e-04  4.1749121702533074e-04  1.8173559176659774e-03  2.1350351364259174e-03  