<?xml version="1.0"?>
<VTKFile type="UnstructuredGrid"  version="0.1"  >
<UnstructuredGrid>
<Piece  NumberOfPoints="10201" NumberOfCells="20000">
<Points>
<DataArray  type="Float64"  NumberOfComponents="3"  format="ascii">0 0 0  0.01 0 0  0.02 0 0  0.03 0 0  0.04 0 0  0.05 0 0  0.06 0 0  0.07000000000000001 0 0  0.08 0 0  0.09 0 0  0.1 0 0  0.11 0 0  0.12 0 0  0.13 0 0  0.14 0 0  0.15 0 0  0.16 0 0  0.17 0 0  0.18 0 0  0.19 0 0  0.2 0 0  0.21 0 0  0.22 0 0  0.23 0 0  0.24 0 0  0.25 0 0  0.26 0 0  0.27 0 0  0.28 0 0  0.29 0 0  0.3 0 0  0.31 0 0  0.32 0 0  0.33 0 0  0.34 0 0  0.35 0 0  0.36 0 0  0.37 0 0  0.38 0 0  0.39 0 0  0.4 0 0  0.41 0 0  0.42 0 0  0.43 0 0  0.44 0 0  0.45 0 0  0.46 0 0  0.47 0 0  0.48 0 0  0.49 0 0  0.5 0 0  0.51 0 0  0.52 0 0  0.53 0 0  0.54 0 0  0.55 0 0  0.5600000000000001 0 0  0.57 0 0  0.58 0 0  0.59 0 0  0.6 0 0  0.61 0 0  0.62 0 0  0.63 0 0  0.64 0 0  0.65 0 0  0.66 0 0  0.67 0 0  0.68 0 0  0.6899999999999999 0 0  0.7 0 0  0.71 0 0  0.72 0 0  0.73 0 0  0.74 0 0  0.75 0 0  0.76 0 0  0.77 0 0  0.78 0 0  0.79 0 0  0.8 0 0  0.8100000000000001 0 0  0.82 0 0  0.83 0 0  0.84 0 0  0.85 0 0  0.86 0 0  0.87 0 0  0.88 0 0  0.89 0 0  0.9 0 0  0.91 0 0  0.92 0 0  0.93 0 0  0.9399999999999999 0 0  0.95 0 0  0.96 0 0  0.97 0 0  0.98 0 0  0.99 0 0  1 0 0  0 0.01 0  0.01 0.01 0  0.02 0.01 0  0.03 0.01 0  0.04 0.01 0  0.05 0.01 0  0.06 0.01 0  0.07000000000000001 0.01 0  0.08 0.01 0  0.09 0.01 0  0.1 0.01 0  0.11 0.01 0  0.12 0.01 0  0.13 0.01 0  0.14 0.01 0  0.15 0.01 0  0.16 0.01 0  0.17 0.01 0  0.18 0.01 0  0.19 0.01 0  0.2 0.01 0  0.21 0.01 0  0.22 0.01 0  0.23 0.01 0  0.24 0.01 0  0.25 0.01 0  0.26 0.01 0  0.27 0.01 0  0.28 0.01 0  0.29 0.01 0  0.3 0.01 0  0.31 0.01 0  0.32 0.01 0  0.33 0.01 0  0.34 0.01 0  0.35 0.01 0  0.36 0.01 0  0.37 0.01 0  0.38 0.01 0  0.39 0.01 0  0.4 0.01 0  0.41 0.01 0  0.42 0.01 0  0.43 0.01 0  0.44 0.01 0  0.45 0.01 0  0.46 0.01 0  0.47 0.01 0  0.48 0.01 0  0.49 0.01 0  0.5 0.01 0  0.51 0.01 0  0.52 0.01 0  0.53 0.01 0  0.54 0.01 0  0.55 0.01 0  0.5600000000000001 0.01 0  0.57 0.01 0  0.58 0.01 0  0.59 0.01 0  0.6 0.01 0  0.61 0.01 0  0.62 0.01 0  0.63 0.01 0  0.64 0.01 0  0.65 0.01 0  0.66 0.01 0  0.67 0.01 0  0.68 0.01 0  0.6899999999999999 0.01 0  0.7 0.01 0  0.71 0.01 0  0.72 0.01 0  0.73 0.01 0  0.74 0.01 0  0.75 0.01 0  0.76 0.01 0  0.77 0.01 0  0.78 0.01 0  0.79 0.01 0  0.8 0.01 0  0.8100000000000001 0.01 0  0.82 0.01 0  0.83 0.01 0  0.84 0.01 0  0.85 0.01 0  0.86 0.01 0  0.87 0.01 0  0.88 0.01 0  0.89 0.01 0  0.9 0.01 0  0.91 0.01 0  0.92 0.01 0  0.93 0.01 0  0.9399999999999999 0.01 0  0.95 0.01 0  0.96 0.01 0  0.97 0.01 0  0.98 0.01 0  0.99 0.01 0  1 0.01 0  0 0.02 0  0.01 0.02 0  0.02 0.02 0  0.03 0.02 0  0.04 0.02 0  0.05 0.02 0  0.06 0.02 0  0.07000000000000001 0.02 0  0.08 0.02 0  0.09 0.02 0  0.1 0.02 0  0.11 0.02 0  0.12 0.02 0  0.13 0.02 0  0.14 0.02 0  0.15 0.02 0  0.16 0.02 0  0.17 0.02 0  0.18 0.02 0  0.19 0.02 0  0.2 0.02 0  0.21 0.02 0  0.22 0.02 0  0.23 0.02 0  0.24 0.02 0  0.25 0.02 0  0.26 0.02 0  0.27 0.02 0  0.28 0.02 0  0.29 0.02 0  0.3 0.02 0  0.31 0.02 0  0.32 0.02 0  0.33 0.02 0  0.34 0.02 0  0.35 0.02 0  0.36 0.02 0  0.37 0.02 0  0.38 0.02 0  0.39 0.02 0  0.4 0.02 0  0.41 0.02 0  0.42 0.02 0  0.43 0.02 0  0.44 0.02 0  0.45 0.02 0  0.46 0.02 0  0.47 0.02 0  0.48 0.02 0  0.49 0.02 0  0.5 0.02 0  0.51 0.02 0  0.52 0.02 0  0.53 0.02 0  0.54 0.02 0  0.55 0.02 0  0.5600000000000001 0.02 0  0.57 0.02 0  0.58 0.02 0  0.59 0.02 0  0.6 0.02 0  0.61 0.02 0  0.62 0.02 0  0.63 0.02 0  0.64 0.02 0  0.65 0.02 0  0.66 0.02 0  0.67 0.02 0  0.68 0.02 0  0.6899999999999999 0.02 0  0.7 0.02 0  0.71 0.02 0  0.72 0.02 0  0.73 0.02 0  0.74 0.02 0  0.75 0.02 0  0.76 0.02 0  0.77 0.02 0  0.78 0.02 0  0.79 0.02 0  0.8 0.02 0  0.8100000000000001 0.02 0  0.82 0.02 0  0.83 0.02 0  0.84 0.02 0  0.85 0.02 0  0.86 0.02 0  0.87 0.02 0  0.88 0.02 0  0.89 0.02 0  0.9 0.02 0  0.91 0.02 0  0.92 0.02 0  0.93 0.02 0  0.9399999999999999 0.02 0  0.95 0.02 0  0.96 0.02 0  0.97 0.02 0  0.98 0.02 0  0.99 0.02 0  1 0.02 0  0 0.03 0  0.01 0.03 0  0.02 0.03 0  0.03 0.03 0  0.04 0.03 0  0.05 0.03 0  0.06 0.03 0  0.07000000000000001 0.03 0  0.08 0.03 0  0.09 0.03 0  0.1 0.03 0  0.11 0.03 0  0.12 0.03 0  0.13 0.03 0  0.14 0.03 0  0.15 0.03 0  0.16 0.03 0  0.17 0.03 0  0.18 0.03 0  0.19 0.03 0  0.2 0.03 0  0.21 0.03 0  0.22 0.03 0  0.23 0.03 0  0.24 0.03 0  0.25 0.03 0  0.26 0.03 0  0.27 0.03 0  0.28 0.03 0  0.29 0.03 0  0.3 0.03 0  0.31 0.03 0  0.32 0.03 0  0.33 0.03 0  0.34 0.03 0  0.35 0.03 0  0.36 0.03 0  0.37 0.03 0  0.38 0.03 0  0.39 0.03 0  0.4 0.03 0  0.41 0.03 0  0.42 0.03 0  0.43 0.03 0  0.44 0.03 0  0.45 0.03 0  0.46 0.03 0  0.47 0.03 0  0.48 0.03 0  0.49 0.03 0  0.5 0.03 0  0.51 0.03 0  0.52 0.03 0  0.53 0.03 0  0.54 0.03 0  0.55 0.03 0  0.5600000000000001 0.03 0  0.57 0.03 0  0.58 0.03 0  0.59 0.03 0  0.6 0.03 0  0.61 0.03 0  0.62 0.03 0  0.63 0.03 0  0.64 0.03 0  0.65 0.03 0  0.66 0.03 0  0.67 0.03 0  0.68 0.03 0  0.6899999999999999 0.03 0  0.7 0.03 0  0.71 0.03 0  0.72 0.03 0  0.73 0.03 0  0.74 0.03 0  0.75 0.03 0  0.76 0.03 0  0.77 0.03 0  0.78 0.03 0  0.79 0.03 0  0.8 0.03 0  0.8100000000000001 0.03 0  0.82 0.03 0  0.83 0.03 0  0.84 0.03 0  0.85 0.03 0  0.86 0.03 0  0.87 0.03 0  0.88 0.03 0  0.89 0.03 0  0.9 0.03 0  0.91 0.03 0  0.92 0.03 0  0.93 0.03 0  0.9399999999999999 0.03 0  0.95 0.03 0  0.96 0.03 0  0.97 0.03 0  0.98 0.03 0  0.99 0.03 0  1 0.03 0  0 0.04 0  0.01 0.04 0  0.02 0.04 0  0.03 0.04 0  0.04 0.04 0  0.05 0.04 0  0.06 0.04 0  0.07000000000000001 0.04 0  0.08 0.04 0  0.09 0.04 0  0.1 0.04 0  0.11 0.04 0  0.12 0.04 0  0.13 0.04 0  0.14 0.04 0  0.15 0.04 0  0.16 0.04 0  0.17 0.04 0  0.18 0.04 0  0.19 0.04 0  0.2 0.04 0  0.21 0.04 0  0.22 0.04 0  0.23 0.04 0  0.24 0.04 0  0.25 0.04 0  0.26 0.04 0  0.27 0.04 0  0.28 0.04 0  0.29 0.04 0  0.3 0.04 0  0.31 0.04 0  0.32 0.04 0  0.33 0.04 0  0.34 0.04 0  0.35 0.04 0  0.36 0.04 0  0.37 0.04 0  0.38 0.04 0  0.39 0.04 0  0.4 0.04 0  0.41 0.04 0  0.42 0.04 0  0.43 0.04 0  0.44 0.04 0  0.45 0.04 0  0.46 0.04 0  0.47 0.04 0  0.48 0.04 0  0.49 0.04 0  0.5 0.04 0  0.51 0.04 0  0.52 0.04 0  0.53 0.04 0  0.54 0.04 0  0.55 0.04 0  0.5600000000000001 0.04 0  0.57 0.04 0  0.58 0.04 0  0.59 0.04 0  0.6 0.04 0  0.61 0.04 0  0.62 0.04 0  0.63 0.04 0  0.64 0.04 0  0.65 0.04 0  0.66 0.04 0  0.67 0.04 0  0.68 0.04 0  0.6899999999999999 0.04 0  0.7 0.04 0  0.71 0.04 0  0.72 0.04 0  0.73 0.04 0  0.74 0.04 0  0.75 0.04 0  0.76 0.04 0  0.77 0.04 0  0.78 0.04 0  0.79 0.04 0  0.8 0.04 0  0.8100000000000001 0.04 0  0.82 0.04 0  0.83 0.04 0  0.84 0.04 0  0.85 0.04 0  0.86 0.04 0  0.87 0.04 0  0.88 0.04 0  0.89 0.04 0  0.9 0.04 0  0.91 0.04 0  0.92 0.04 0  0.93 0.04 0  0.9399999999999999 0.04 0  0.95 0.04 0  0.96 0.04 0  0.97 0.04 0  0.98 0.04 0  0.99 0.04 0  1 0.04 0  0 0.05 0  0.01 0.05 0  0.02 0.05 0  0.03 0.05 0  0.04 0.05 0  0.05 0.05 0  0.06 0.05 0  0.07000000000000001 0.05 0  0.08 0.05 0  0.09 0.05 0  0.1 0.05 0  0.11 0.05 0  0.12 0.05 0  0.13 0.05 0  0.14 0.05 0  0.15 0.05 0  0.16 0.05 0  0.17 0.05 0  0.18 0.05 0  0.19 0.05 0  0.2 0.05 0  0.21 0.05 0  0.22 0.05 0  0.23 0.05 0  0.24 0.05 0  0.25 0.05 0  0.26 0.05 0  0.27 0.05 0  0.28 0.05 0  0.29 0.05 0  0.3 0.05 0  0.31 0.05 0  0.32 0.05 0  0.33 0.05 0  0.34 0.05 0  0.35 0.05 0  0.36 0.05 0  0.37 0.05 0  0.38 0.05 0  0.39 0.05 0  0.4 0.05 0  0.41 0.05 0  0.42 0.05 0  0.43 0.05 0  0.44 0.05 0  0.45 0.05 0  0.46 0.05 0  0.47 0.05 0  0.48 0.05 0  0.49 0.05 0  0.5 0.05 0  0.51 0.05 0  0.52 0.05 0  0.53 0.05 0  0.54 0.05 0  0.55 0.05 0  0.5600000000000001 0.05 0  0.57 0.05 0  0.58 0.05 0  0.59 0.05 0  0.6 0.05 0  0.61 0.05 0  0.62 0.05 0  0.63 0.05 0  0.64 0.05 0  0.65 0.05 0  0.66 0.05 0  0.67 0.05 0  0.68 0.05 0  0.6899999999999999 0.05 0  0.7 0.05 0  0.71 0.05 0  0.72 0.05 0  0.73 0.05 0  0.74 0.05 0  0.75 0.05 0  0.76 0.05 0  0.77 0.05 0  0.78 0.05 0  0.79 0.05 0  0.8 0.05 0  0.8100000000000001 0.05 0  0.82 0.05 0  0.83 0.05 0  0.84 0.05 0  0.85 0.05 0  0.86 0.05 0  0.87 0.05 0  0.88 0.05 0  0.89 0.05 0  0.9 0.05 0  0.91 0.05 0  0.92 0.05 0  0.93 0.05 0  0.9399999999999999 0.05 0  0.95 0.05 0  0.96 0.05 0  0.97 0.05 0  0.98 0.05 0  0.99 0.05 0  1 0.05 0  0 0.06 0  0.01 0.06 0  0.02 0.06 0  0.03 0.06 0  0.04 0.06 0  0.05 0.06 0  0.06 0.06 0  0.07000000000000001 0.06 0  0.08 0.06 0  0.09 0.06 0  0.1 0.06 0  0.11 0.06 0  0.12 0.06 0  0.13 0.06 0  0.14 0.06 0  0.15 0.06 0  0.16 0.06 0  0.17 0.06 0  0.18 0.06 0  0.19 0.06 0  0.2 0.06 0  0.21 0.06 0  0.22 0.06 0  0.23 0.06 0  0.24 0.06 0  0.25 0.06 0  0.26 0.06 0  0.27 0.06 0  0.28 0.06 0  0.29 0.06 0  0.3 0.06 0  0.31 0.06 0  0.32 0.06 0  0.33 0.06 0  0.34 0.06 0  0.35 0.06 0  0.36 0.06 0  0.37 0.06 0  0.38 0.06 0  0.39 0.06 0  0.4 0.06 0  0.41 0.06 0  0.42 0.06 0  0.43 0.06 0  0.44 0.06 0  0.45 0.06 0  0.46 0.06 0  0.47 0.06 0  0.48 0.06 0  0.49 0.06 0  0.5 0.06 0  0.51 0.06 0  0.52 0.06 0  0.53 0.06 0  0.54 0.06 0  0.55 0.06 0  0.5600000000000001 0.06 0  0.57 0.06 0  0.58 0.06 0  0.59 0.06 0  0.6 0.06 0  0.61 0.06 0  0.62 0.06 0  0.63 0.06 0  0.64 0.06 0  0.65 0.06 0  0.66 0.06 0  0.67 0.06 0  0.68 0.06 0  0.6899999999999999 0.06 0  0.7 0.06 0  0.71 0.06 0  0.72 0.06 0  0.73 0.06 0  0.74 0.06 0  0.75 0.06 0  0.76 0.06 0  0.77 0.06 0  0.78 0.06 0  0.79 0.06 0  0.8 0.06 0  0.8100000000000001 0.06 0  0.82 0.06 0  0.83 0.06 0  0.84 0.06 0  0.85 0.06 0  0.86 0.06 0  0.87 0.06 0  0.88 0.06 0  0.89 0.06 0  0.9 0.06 0  0.91 0.06 0  0.92 0.06 0  0.93 0.06 0  0.9399999999999999 0.06 0  0.95 0.06 0  0.96 0.06 0  0.97 0.06 0  0.98 0.06 0  0.99 0.06 0  1 0.06 0  0 0.07000000000000001 0  0.01 0.07000000000000001 0  0.02 0.07000000000000001 0  0.03 0.07000000000000001 0  0.04 0.07000000000000001 0  0.05 0.07000000000000001 0  0.06 0.07000000000000001 0  0.07000000000000001 0.07000000000000001 0  0.08 0.07000000000000001 0  0.09 0.07000000000000001 0  0.1 0.07000000000000001 0  0.11 0.07000000000000001 0  0.12 0.07000000000000001 0  0.13 0.07000000000000001 0  0.14 0.07000000000000001 0  0.15 0.07000000000000001 0  0.16 0.07000000000000001 0  0.17 0.0700
[...]
<PointData  Scalars="Indicator Function"> 
<DataArray  type="Float64"  Name="Indicator Function"  format="ascii">-1.2037062152420224e-35  -6.7284868600116872e-20  1.5610378875383200e-20  3.3460206167275299e-19  3.4516211506649660e-19  -3.5932870978865015e-20  -3.1455008907438583e-20  6.5367241347155655e-19  9.3907821854963113e-19  -9.0277966143151681e-36  5.0327483462131816e-18  2.9870598799801404e-18  -4.2663130037622808e-20  -3.6589183291500436e-20  7.6082781307026114e-18  -9.0426207234157444e-21  -6.8516078325349417e-21  2.1792101667583911e-18  -3.5848759401781293e-20  -4.5138983071575840e-35  5.5281524611698708e-18  6.0185310762101120e-36  -3.8951111080803740e-20  1.3376269698291440e-17  -5.2952027252160696e-20  -2.6476013626080357e-20  -1.9908777084743019e-20  -4.6339913117443280e-20  4.1445580715240654e-17  -1.7680471162896798e-20  -8.5272055564668328e-20  -3.0483864213018880e-20  -5.0070966510475512e-20  -1.5497930334467682e-20  2.5478978065765186e-17  -9.9163639238542608e-20  -1.3156978025313101e-19  -1.4898628146050890e-19  -1.5403483209389059e-19  -1.4977310701383312e-19  8.6876453184819979e-18  -8.9271317820918442e-20  -2.5820669968030400e-20  -3.4294425554237558e-20  -1.9521940770279963e-20  -2.2994902479044769e-20  3.0570597702260732e-17  -1.4614806023281897e-20  -8.7595336110541811e-21  -1.3855293889652151e-21  -2.2551102497150895e-20  -1.1275551248575454e-20  -8.2448477182360203e-21  -8.9861880481325872e-21  -8.4133064006825753e-21  -5.0578402645649175e-21  2.3937404053065973e-19  -1.3002131744989215e-21  -5.2158052453596038e-22  -3.3991865146550387e-22  -6.5896002413937540e-22  -5.4008072489857294e-22  -6.2829159188010497e-22  -1.4024062558132829e-21  -2.1410374833938580e-21  -1.5636568176707213e-21  -1.6959066002250227e-21  -3.1359105433890155e-21  3.5281011890184808e-18  9.4039548065783001e-38  -7.0795116398168803e-23  -2.9814307219494634e-22  -7.2357059841046528e-22  -5.1716493204731445e-22  -2.1773131588161093e-22  -1.0886565794080551e-22  -1.0617203056582937e-21  -1.1704770515647410e-21  -9.5740222816106637e-22  -8.8795762444113187e-22  -4.3067776846403967e-22  4.6697120779755471e-20  -4.0162521102952747e-22  -2.9625615515799527e-22  2.3509887016445750e-38  -7.0529661049337250e-38  -7.9109621310381681e-23  -1.4513925337671726e-22  -6.6082485711097616e-23  9.4039548065783001e-38  -1.7978797082975735e-22  -1.1996443389450596e-22  -1.9240422892335782e-22  8.7876507088842110e-19  -5.0179377899544923e-23  -8.6097180539154341e-24  -4.3048590269577053e-24  3.5264830524668625e-38  -6.0391398008984006e-23  -5.5897479012903012e-23  0.0000000000000000e+00  -3.6503953396335776e-20  5.7572897221028533e-04  2.3822861611386289e-04  1.6128234003628741e-04  3.5530787949620147e-04  2.8678858678198005e-04  5.0391476401208423e-04  3.1468568357186273e-04  7.0780039814023125e-04  5.1977605380089551e-05  3.3535367655948034e-05  4.4253953183451549e-04  7.6381641391532406e-04  3.8664241920192635e-04  4.6581091934860385e-04  2.8588334195979817e-04  1.9955702301812325e-05  7.8978567108193437e-04  1.3315044134043326e-04  6.4579383793422719e-04  2.2188551722461140e-04  3.1884975246933983e-04  2.5846098609310405e-04  5.7245034435015035e-04  2.1107474830858248e-04  9.5389892080537304e-04  7.1728928848200746e-04  9.5284586695692597e-04  3.5836272831392960e-04  6.3700610672765467e-04  8.7565566916021794e-04  1.0982969560845168e-03  6.8725311648006201e-04  5.5837178623460140e-04  3.1289955509532335e-05  8.8116637660246228e-04  1.3457901265923799e-03  1.6972553899886852e-03  1.8352705516811118e-03  1.8572095738399344e-03  1.7694676488305137e-03  1.4171318003146078e-03  8.9960319453534141e-04  4.6514383858591290e-04  3.8522152929484162e-04  8.2847867388841198e-04  6.0051624047232710e-04  5.2655387968435533e-04  2.8496963271672335e-04  1.5312912868370046e-05  1.7303022125233449e-05  4.0624454721185053e-04  1.1386658398529047e-04  9.1592680453651677e-05  1.1608443235337863e-04  9.3518438107582040e-05  6.8630927678022248e-05  4.5433265984725812e-05  2.5954108555798159e-05  1.6174250439919529e-05  1.1805311720020149e-05  7.9569661638821293e-06  9.9196188077695006e-06  1.1143267262031059e-05  1.9691871533395479e-05  2.9082155005496794e-05  1.3627259542840390e-05  4.0048644328473348e-05  3.6467220054459302e-05  1.5568176662383782e-05  7.2888402519837347e-06  1.2753314393217748e-06  4.7332023957001305e-06  1.0668087911660409e-05  3.9823712251992919e-06  3.9222986922852397e-06  9.2186887594561907e-06  1.4516908312009430e-05  1.3826985897086020e-05  1.0333532323416435e-05  1.0829256344507273e-05  1.0727424678805928e-05  7.0367738109771133e-06  7.8060983016338663e-06  1.6579022115729089e-06  4.0764490971500444e-06  3.3299303737680315e-06  5.2291926993937269e-06  2.3808724641937202e-06  3.6268733276803503e-06  4.8703357968296447e-06  8.0360425532354933e-07  2.1610871191400369e-06  3.4660464547348359e-06  1.8079026208805889e-06  5.5616198928474764e-07  1.5509889207751467e-07  1.2646071989490074e-06  2.1758294205571465e-06  2.0139189252276806e-06  -6.7560187682453861e-23  -1.2730467060105614e-20  6.5759676365315090e-04  1.7032254954577725e-04  9.5105431324964330e-05  9.2675772547285532e-06  3.3728093969174463e-04  5.4877492193850452e-04  6.6129341440104839e-04  7.8606586529411323e-04  7.7388147325612876e-05  1.7262095529075783e-04  4.9615618616132202e-04  6.8389011260777189e-04  1.0054051386363418e-03  9.6941956418816939e-04  6.4572496527999968e-04  1.2513190183022504e-03  9.2351716750300452e-05  4.8811947546151724e-04  1.0186304285496710e-03  4.8637024926139079e-04  1.6586031153102445e-03  1.0807577066317849e-03  1.7904411006092371e-03  1.0341723208883689e-03  1.3104527831119199e-03  4.8521567667093553e-05  3.2401079401452921e-04  1.7679971963527052e-03  1.2927986293449763e-03  3.0302187970249523e-05  1.7717707660383983e-03  1.0889504985279975e-04  1.1912344947452832e-03  6.8200629931158461e-04  1.2176836056740606e-03  1.6626674184600755e-03  2.2137140199972776e-03  2.5470385767408094e-03  2.6405989520855502e-03  2.5684637722600263e-03  2.3655628312268082e-03  1.7876952134507093e-03  2.2775857352402886e-04  1.1017815854823694e-03  9.6060400174172579e-04  9.2569449395604687e-04  1.3074327495946566e-03  1.1170940776180748e-03  4.0352332535874817e-04  3.6762790565418683e-04  6.7374118422047400e-04  1.9449750966892346e-04  2.8387970606519981e-04  1.1480404612646896e-04  1.2327157777967254e-04  9.7158428031537413e-05  7.6860026117888132e-05  5.0281199918887714e-05  2.9078319474516210e-05  1.8805073833160848e-05  1.5248679256724244e-05  1.2371908951057358e-05  1.3519970095266936e-05  2.6517615756502638e-05  2.6637497410078200e-05  4.5184000206846740e-05  3.4761366953557772e-05  6.5792991382587049e-05  2.3227265960418138e-05  1.0594600952326465e-05  3.9613892022859154e-06  4.7380365241004625e-06  9.6245452464355934e-06  1.5659805766023366e-05  5.0964394808240259e-06  3.1859055686693641e-06  2.0102565149636417e-05  1.8956024175758044e-05  2.0150066704982404e-05  1.6010226100009498e-05  1.0172986259730775e-05  1.6009486125154513e-05  9.9123203911808143e-06  7.6446846494171887e-06  4.1331061900570511e-06  3.3329461582457940e-06  7.1753390326861220e-06  6.2112379307813101e-06  1.5223885548711046e-06  4.2491735193619703e-06  7.9735796187170953e-06  5.0893191052499915e-06  1.5831763564699758e-05  7.6582980058412819e-06  9.7066460335359745e-06  5.4455109796337737e-07  1.2678269689214913e-06  4.9857703824673776e-06  8.5847935816693058e-06  2.1444829866052996e-21  -2.4291170883410317e-20  2.2933170683257697e-04  4.5511421067840967e-04  7.4385750658568196e-05  5.4420122776910557e-04  7.5238990335823740e-04  6.6937791681685342e-04  8.8580634630983828e-04  2.2463129616865138e-04  1.3468079052175023e-03  5.1415219367998278e-04  1.0293602235001512e-05  1.0687138643233954e-03  1.2821623580237718e-03  2.8753691631686214e-04  1.0236776222306765e-03  1.7897662411064179e-04  3.1608152604805517e-04  1.5859718394318038e-03  8.4552287280033496e-04  1.7870642856512228e-03  4.3110857207041597e-04  1.1487355394404206e-03  3.0817994975577761e-04  1.6880213084246166e-03  1.4544956698799465e-03  2.5211832890494122e-03  2.1417103263929719e-03  2.0623430001808162e-03  7.8166233515031302e-04  2.1949772233917806e-03  2.0225555844818549e-03  2.1684222822465986e-03  2.2874969945851247e-03  1.0244861691522614e-03  3.0568830754973143e-04  2.0458819825097756e-03  2.2901307801914219e-03  2.8046340376452618e-03  3.0219169353254433e-03  3.0578582311756347e-03  2.8703281925703556e-03  2.1933506355282248e-03  1.4507841109911417e-03  1.4299951550203035e-03  7.6230301997688894e-04  2.4098011354974180e-03  1.3757920759341184e-03  7.9622472823603896e-04  4.3464996977076370e-04  9.2668007269650744e-05  1.6055352437964099e-04  1.0348895515645176e-03  4.8290855174108592e-04  2.1181970862411842e-04  1.0345049817300236e-04  8.3301074414745112e-05  8.2791866463970384e-05  6.8399025940616646e-05  4.0831344824127771e-05  2.7739078130334352e-05  2.0891305572660258e-05  1.3532404805097026e-05  1.8107208698418361e-05  1.7146645604436866e-05  3.5221306433302033e-05  4.0940996591141254e-05  1.8269291491954357e-05  9.1312853126706469e-05  4.9058840329174101e-05  5.4221324732229483e-07  6.9190644106220769e-06  3.4087481209591822e-07  5.1910827251218483e-06  1.6274065896274877e-05  6.8173636861333043e-06  9.1322003025439112e-06  1.8697861803013247e-05  2.4286138103523505e-05  1.9449410163984164e-05  1.6923660975964212e-05  1.9694855246922156e-05  1.4711049481492180e-05  1.1220124616068992e-05  1.3315624490016714e-05  1.4865290857408006e-06  1.0524843574029940e-05  4.3696159183347271e-06  9.9788488412102731e-06  5.0426497110194744e-06  1.2090981079480015e-05  1.1088770364788912e-05  2.7145990448587730e-06  6.0599778081309830e-06  2.0585290596580772e-05  5.0335985547436204e-07  4.8947288367530842e-06  4.9768265877399548e-06  8.1480957593588524e-07  3.3681828681956958e-06  -2.8211864419734900e-36  -1.8742030738426254e-20  4.3759083255567985e-04  6.1863576989354798e-04  7.5834174786693002e-06  1.5419799857015255e-04  4.9414289472241967e-04  6.9902213339455863e-04  1.1782621324543637e-03  1.0668532152512849e-03  6.8405895765904601e-04  2.1905965390633125e-04  3.0013948911963680e-05  4.9044529514603624e-04  1.0356329350402428e-03  1.5138891460753099e-03  7.9572243988017168e-04  1.0031883029816559e-03  1.8193785495470860e-03  3.4919968959585569e-04  1.1870374619147109e-03  7.1207245181544249e-04  4.3563341888295284e-04  2.1880998601191584e-03  1.7237272047249410e-03  2.5730969355593162e-03  1.3652639505908203e-03  1.3946861105085468e-03  5.1309824108842301e-04  1.4985764406754332e-03  3.3655163753853520e-03  2.0532404282085585e-03  7.0768568777510770e-04  3.2867408486240601e-03  3.8001636763438030e-04  2.7024116925138801e-03  8.6769141107165498e-04  2.0902170328825323e-03  2.4706109531250214e-03  2.8650324180207521e-03  3.2546510771738523e-03  3.3520401556610254e-03  3.2656260280552276e-03  3.0034561213263707e-03  2.0939182455592836e-03  5.4064898367548928e-04  2.0485450918900664e-03  1.5484988422961804e-03  2.1167406298047112e-03  2.9007359704857410e-03  2.2994233070514781e-03  1.0518482881013099e-03  3.9146172259902056e-04  9.9937432786848901e-04  4.4507121752397004e-04  7.2567498213796779e-04  1.2833980892218411e-04  7.8266761566019231e-05  5.9738884425923864e-05  7.1495435433560213e-05  5.4990453563253477e-05  3.0738793141128305e-05  2.2513505534218263e-05  2.0529085624698767e-05  1.3774938133375243e-05  1.7342586189094519e-05  3.1618455350937919e-05  3.1891164053061626e-05  5.9840236718040965e-05  5.5858977143398814e-05  1.0417077724321841e-04  1.0781960009256673e-05  6.7306281753276974e-06  3.2285839295099591e-06  3.7377813011264373e-06  9.2323111853690793e-06  1.8926827318121899e-05  1.0813707551767818e-05  8.7400991764601392e-07  2.9219301772653682e-05  2.2948966824339739e-05  2.1800131142449315e-05  1.5072133765996151e-05  1.2428555497941071e-05  2.0646117961511336e-05  9.0172922476658090e-06  1.0498216726697859e-05  1.1778186477915700e-06  8.7103218581846571e-06  1.0217296365518327e-05  9.2139462488520466e-06  5.9011844664730032e-06  1.0002207553938282e-05  1.5192745838091001e-05  6.1663625277889570e-06  1.9049802113816688e-05  5.9423511064139623e-06  1.8075368872408749e-05  1.6633135577271024e-06  5.7440305674800288e-06  2.6609503129826626e-06  -4.8088162934426263e-22  -2.3428324974509216e-20  3.3762641059897105e-04  5.9131826785920212e-04  9.6317543211765061e-04  1.3717479480609130e-04  5.6832905098182804e-04  7.2889425534054721e-04  6.9048167260231288e-04  1.3361154296607752e-03  4.0551163268799802e-04  1.6896664997383317e-03  9.1753745591751062e-04  1.6431384390232730e-05  1.4203822079584402e-03  1.4958082267107929e-03  3.9437034555960551e-04  1.2719737435941813e-03  9.6454100497767514e-04  1.0314478402764496e-03  1.5648991964780272e-03  9.9654005390539184e-04  2.3559821540838550e-03  1.1295357072224959e-03  2.0880641087709681e-03  1.1921127793286972e-03  2.8163236140212934e-03  2.5511997469180917e-03  3.6643051100527574e-03  2.8544335679537894e-03  2.2014132375439265e-03  1.7057889351924835e-03  3.6448857545531804e-03  2.5403810133221116e-03  3.5562763376799952e-03  3.1595475464719263e-03  1.8616370707790870e-03  4.0721412082495072e-04  3.1273785233576412e-03  2.9363434475792589e-03  3.4057416372194095e-03  3.6337255382134534e-03  3.6555651879521573e-03  3.4176480661113292e-03  2.6204292078279966e-03  1.7005221743131487e-03  2.3060390607004566e-03  1.3951332082001375e-03  3.7340327005658566e-03  1.3301083598038586e-03  2.9080963256551149e-05  1.9710040037678069e-04  1.9011719472569716e-04  3.8272321543203599e-04  1.5813912633332761e-03  6.0151633489684004e-04  4.8133182509874187e-04  7.8063938416081808e-05  4.3268331352339602e-05  6.0094545024323420e-05  6.7206760238135092e-05  4.1352368359561034e-05  2.7024293339635677e-05  2.0731699842191291e-05  1.4716412075573626e-05  1.8650113610350961e-05  1.6545881394530896e-05  4.1392444149896528e-05  4.2571002164337587e-05  3.0178317264722985e-05  1.2626858208834846e-04  6.5121863707739893e-05  2.0056529056590430e-05  8.8348715917026018e-07  6.6990555168522155e-07  3.4696377500071715e-06  1.8288598413040198e-05  7.4381374057596539e-06  1.6899663821469078e-05  1.8705612434139888e-05  2.9387667757991322e-05  2.0722367985479469e-05  1.9627999326721383e-05  1.8382064172283316e-05  1.1144379718214295e-05  1.4013452225415888e-05  1.1563167493428716e-05  1.3908890948786844e-06  8.8908932651446625e-06  4.0839537206310819e-06  1.4092920664993974e-05  3.0568771916964147e-06  9.7141180797266204e-06  1.2863522924642861e-05  3.0574646208168853e-06  1.0340681996240302e-05  3.2673258255865719e-05  7.7326892964220695e-06  1.1643392624515218e-05  5.9072460048052085e-06  3.4994528120884743e-06  1.5869173736100881e-37  -1.3031529142323201e-20  4.2204718250045869e-04  6.5449195341989478e-04  5.6593478464160303e-04  6.0397401024249280e-04  2.4687090024705366e-04  6.0827579463408989e-04  1.0798844027263218e-03  1.5405981101351942e-03  1.3868282068269105e-03  6.0528875664838842e-04  5.4242626421538204e-04  4.2891267243030717e-04  4.6014141300783297e-04  1.5131877913605793e-03  1.8730939622740447e-03  5.7013015617798132e-04  9.0538619375443773e-04  1.5260838101639022e-03  1.8484048286035787e-04  1.6741562432217361e-03  2.1216829981209905e-04  1.0099741614175004e-04  1.8580343154236138e-03  1.5413028445624729e-03  2.4825498286185120e-03  9.4504027649859319e-04  8.2811681574576038e-04  1.4147070917972732e-03  2.5087259753350881e-03  4.5307027638526237e-03  2.1933439364977916e-03  1.8411250699056083e-03  4.5452982035091996e-03  9.6533228681363139e-04  4.1237983280425390e-03  1.2135053843553634e-03  2.5999784805962171e-03  3.4662161408813967e-03  3.5070850247916510e-03  3.8937587459984659e-03  3.9856735081041901e-03  3.8847721453913187e-03  3.5365382739830386e-03  2.3246216784984300e-03  6.8537035503228399e-04  3.1553639873626560e-03  1.7974905991255214e-03  3.4329803677267787e-03  3.7244733090713313e-03  2.5595745763527990e-03  1.1869633791915934e-03  3.9608735822184237e-04  9.9717479719794934e-04  8.4430417118791870e-04  1.0565906740398665e-03  2.1325933326227781e-04  2.3707458854669293e-05  1.8111086021993521e-05  6.2411719068627554e-05  6.1086529446334597e-05  3.2721538446222810e-05  2.4679987795717721e-05  2.1824551591593157e-05  1.2373796493528640e-05  1.8450409729262059e-05  3.0825250229297214e-05  3.8119429408776791e-05  6.4731742303447457e-05  6.0756711253600842e-05  1.4018992030281644e-04  6.0903723423227179e-06  2.5846068128974961e-05  1.7193193830752852e-06  8.8533338682644814e-07  6.9894227502393242e-06  1.9785898578198108e-05  1.4497781044976719e-05  2.6280551907545151e-06  3.2112620456565927e-05  2.4071012575019968e-05  1.9941173318099640e-05  1.6517128351304114e-05  1.4708527419113544e-05  1.7836840078792331e-05  9.1700451841312104e-06  9.4318426821135250e-06  2.6738562237944267e-06  1.1118141670752890e-05  6.3155251892219545e-06  1.0058279839848758e-05  9.6356831135632981e-06  1.4448802681594030e-05  1.9921125761222638e-05  8.5007627551865248e-06  1.1158567103346209e-05  3.0926363478106191e-06  1.2763667678855995e-05  2.2204511477465940e-06  5.4868008146446034e-06  -3.0457862979752523e-22  -2.1052250247991302e-20  2.3475515915773827e-04  5.3514594765806183e-04  8.7833532993665379e-04  9.1455311768173797e-04  6.7784559704214820e-05  7.1349122002749537e-04  4.7983394556086955e-04  4.0209030345140340e-04  1.7708858837321879e-03  6.4526367478519818e-04  1.6723396392432466e-03  9.1416079356231050e-04  1.8614273605269395e-04  1.5408284556390531e-03  1.8444507752321171e-03  6.8197801530000277e-04  1.1215626840665154e-03  1.2034510154022115e-03  1.3376944953357160e-03  1.3783540211357330e-03  5.6378802131947837e-04  2.1484717107069316e-03  9.5225253169251153e-04  2.3432630422385767e-03  1.4328756633919528e-03  3.2208815617123729e-03  2.7771198979319230e-03  3.8665029360135002e-03  2.7484086636449957e-03  1.8004301290610372e-03  2.7284305803141058e-03  4.4885550999044623e-03  2.5570226631037086e-03  5.0844175640573502e-03  3.5598981422853455e-03  3.1626276125002696e-03  4.8581469381635034e-04  4.0261005192713728e-03  3.8226691963753139e-03  4.1242214276993898e-03  4.3466090091444165e-03  4.3493929830297675e-03  4.0656634500518532e-03  3.1032266637986946e-03  1.8114596838995046e-03  2.8947972634864295e-03  2.2371303993118947e-03  4.6059464308907854e-03  8.8397983235734398e-04  8.3580587977564861e-04  8.6842405981187975e-04  6.4087408547658115e-04  3.4798030740226522e-04  1.8648578935308035e-03  4.5898823648735928e-04  8.5935341413911968e-04  7.3544353703337302e-05  1.3992819895910378e-05  1.9128358170594400e-05  6.0813090468343749e-05  4.6674203032154905e-05  2.9613081881367083e-05  2.4024593121436387e-05  1.8577341833625132e-05  1.7875241528752169e-05  1.7376009399021750e-05  4.4177957636694661e-05  4.7407955031322459e-05  3.8877832081385328e-05  1.4791834337381341e-04  9.0218228177000158e-05  3.5209344528489235e-05  1.4368356275429874e-05  1.0139863203781929e-06  9.2506634555720319e-07  1.8293548115657170e-05  5.0102182139026286e-06  2.4005471899191525e-05  1.7912073114306517e-05  3.3389177193409747e-05  2.1003072927274478e-05  1.7656022282771038e-05  1.5532738206562959e-05  1.2212181353831281e-05  1.4625675753362909e-05  1.0242451781023859e-05  3.5638249585096862e-06  3.6256428245244379e-06  8.4744469357990107e-06  1.2712521474393379e-05  3.5718295161213969e-06  3.6629954316516997e-07  1.5602997370713451e-05  5.7327358762666751e-06  9.3790895335485688e-06  3.2653415084602006e-05  8.6550548953058330e-06  1.1613150037725476e-05  1.4411965365406294e-06  -2.0000619723467897e-22  -1.5267515019640847e-20  3.7924362548865764e-04  6.5115280387298597e-04  7.1390746173910133e-04  7.0250188509205370e-04  9.8520720235391757e-04  1.2674615945762916e-04  5.1538206310591914e-04  1.0077426347929750e-03  1.6011306913238871e-03  1.7743841589265522e-03  7.6019238144235549e-04  5.6720071761029716e-04  6.6183863748861755e-04  4.2724664520148571e-04  1.8453884484143574e-03  2.1500596717315750e-03