<?xml version="1.0"?>
<VTKFile type="UnstructuredGrid"  version="0.1"  >
<UnstructuredGrid>
<Piece  NumberOfPoints="10201" NumberOfCells="20000">
<Points>
<DataArray  type="Float64"  NumberOfComponents="3"  format="ascii">0 0 0  0.01 0 0  0.02 0 0  0.03 0 0  0.04 0 0  0.05 0 0  0.06 0 0  0.07000000000000001 0 0  0.08 0 0  0.09 0 0  0.1 0 0  0.11 0 0  0.12 0 0  0.13 0 0  0.14 0 0  0.15 0 0  0.16 0 0  0.17 0 0  0.18 0 0  0.19 0 0  0.2 0 0  0.21 0 0  0.22 0 0  0.23 0 0  0.24 0 0  0.25 0 0  0.26 0 0  0.27 0 0  0.28 0 0  0.29 0 0  0.3 0 0  0.31 0 0  0.32 0 0  0.33 0 0  0.34 0 0  0.35 0 0  0.36 0 0  0.37 0 0  0.38 0 0  0.39 0 0  0.4 0 0  0.41 0 0  0.42 0 0  0.43 0 0  0.44 0 0  0.45 0 0  0.46 0 0  0.47 0 0  0.48 0 0  0.49 0 0  0.5 0 0  0.51 0 0  0.52 0 0  0.53 0 0  0.54 0 0  0.55 0 0  0.5600000000000001 0 0  0.57 0 0  0.58 0 0  0.59 0 0  0.6 0 0  0.61 0 0  0.62 0 0  0.63 0 0  0.64 0 0  0.65 0 0  0.66 0 0  0.67 0 0  0.68 0 0  0.6899999999999999 0 0  0.7 0 0  0.71 0 0  0.72 0 0  0.73 0 0  0.74 0 0  0.75 0 0  0.76 0 0  0.77 0 0  0.78 0 0  0.79 0 0  0.8 0 0  0.8100000000000001 0 0  0.82 0 0  0.83 0 0  0.84 0 0  0.85 0 0  0.86 0 0  0.87 0 0  0.88 0 0  0.89 0 0  0.9 0 0  0.91 0 0  0.92 0 0  0.93 0 0  0.9399999999999999 0 0  0.95 0 0  0.96 0 0  0.97 0 0  0.98 0 0  0.99 0 0  1 0 0  0 0.01 0  0.01 0.01 0  0.02 0.01 0  0.03 0.01 0  0.04 0.01 0  0.05 0.01 0  0.06 0.01 0  0.07000000000000001 0.01 0  0.08 0.01 0  0.09 0.01 0  0.1 0.01 0  0.11 0.01 0  0.12 0.01 0  0.13 0.01 0  0.14 0.01 0  0.15 0.01 0  0.16 0.01 0  0.17 0.01 0  0.18 0.01 0  0.19 0.01 0  0.2 0.01 0  0.21 0.01 0  0.22 0.01 0  0.23 0.01 0  0.24 0.01 0  0.25 0.01 0  0.26 0.01 0  0.27 0.01 0  0.28 0.01 0  0.29 0.01 0  0.3 0.01 0  0.31 0.01 0  0.32 0.01 0  0.33 0.01 0  0.34 0.01 0  0.35 0.01 0  0.36 0.01 0  0.37 0.01 0  0.38 0.01 0  0.39 0.01 0  0.4 0.01 0  0.41 0.01 0  0.42 0.01 0  0.43 0.01 0  0.44 0.01 0  0.45 0.01 0  0.46 0.01 0  0.47 0.01 0  0.48 0.01 0  0.49 0.01 0  0.5 0.01 0  0.51 0.01 0  0.52 0.01 0  0.53 0.01 0  0.54 0.01 0  0.55 0.01 0  0.5600000000000001 0.01 0  0.57 0.01 0  0.58 0.01 0  0.59 0.01 0  0.6 0.01 0  0.61 0.01 0  0.62 0.01 0  0.63 0.01 0  0.64 0.01 0  0.65 0.01 0  0.66 0.01 0  0.67 0.01 0  0.68 0.01 0  0.6899999999999999 0.01 0  0.7 0.01 0  0.71 0.01 0  0.72 0.01 0  0.73 0.01 0  0.74 0.01 0  0.75 0.01 0  0.76 0.01 0  0.77 0.01 0  0.78 0.01 0  0.79 0.01 0  0.8 0.01 0  0.8100000000000001 0.01 0  0.82 0.01 0  0.83 0.01 0  0.84 0.01 0  0.85 0.01 0  0.86 0.01 0  0.87 0.01 0  0.88 0.01 0  0.89 0.01 0  0.9 0.01 0  0.91 0.01 0  0.92 0.01 0  0.93 0.01 0  0.9399999999999999 0.01 0  0.95 0.01 0  0.96 0.01 0  0.97 0.01 0  0.98 0.01 0  0.99 0.01 0  1 0.01 0  0 0.02 0  0.01 0.02 0  0.02 0.02 0  0.03 0.02 0  0.04 0.02 0  0.05 0.02 0  0.06 0.02 0  0.07000000000000001 0.02 0  0.08 0.02 0  0.09 0.02 0  0.1 0.02 0  0.11 0.02 0  0.12 0.02 0  0.13 0.02 0  0.14 0.02 0  0.15 0.02 0  0.16 0.02 0  0.17 0.02 0  0.18 0.02 0  0.19 0.02 0  0.2 0.02 0  0.21 0.02 0  0.22 0.02 0  0.23 0.02 0  0.24 0.02 0  0.25 0.02 0  0.26 0.02 0  0.27 0.02 0  0.28 0.02 0  0.29 0.02 0  0.3 0.02 0  0.31 0.02 0  0.32 0.02 0  0.33 0.02 0  0.34 0.02 0  0.35 0.02 0  0.36 0.02 0  0.37 0.02 0  0.38 0.02 0  0.39 0.02 0  0.4 0.02 0  0.41 0.02 0  0.42 0.02 0  0.43 0.02 0  0.44 0.02 0  0.45 0.02 0  0.46 0.02 0  0.47 0.02 0  0.48 0.02 0  0.49 0.02 0  0.5 0.02 0  0.51 0.02 0  0.52 0.02 0  0.53 0.02 0  0.54 0.02 0  0.55 0.02 0  0.5600000000000001 0.02 0  0.57 0.02 0  0.58 0.02 0  0.59 0.02 0  0.6 0.02 0  0.61 0.02 0  0.62 0.02 0  0.63 0.02 0  0.64 0.02 0  0.65 0.02 0  0.66 0.02 0  0.67 0.02 0  0.68 0.02 0  0.6899999999999999 0.02 0  0.7 0.02 0  0.71 0.02 0  0.72 0.02 0  0.73 0.02 0  0.74 0.02 0  0.75 0.02 0  0.76 0.02 0  0.77 0.02 0  0.78 0.02 0  0.79 0.02 0  0.8 0.02 0  0.8100000000000001 0.02 0  0.82 0.02 0  0.83 0.02 0  0.84 0.02 0  0.85 0.02 0  0.86 0.02 0  0.87 0.02 0  0.88 0.02 0  0.89 0.02 0  0.9 0.02 0  0.91 0.02 0  0.92 0.02 0  0.93 0.02 0  0.9399999999999999 0.02 0  0.95 0.02 0  0.96 0.02 0  0.97 0.02 0  0.98 0.02 0  0.99 0.02 0  1 0.02 0  0 0.03 0  0.01 0.03 0  0.02 0.03 0  0.03 0.03 0  0.04 0.03 0  0.05 0.03 0  0.06 0.03 0  0.07000000000000001 0.03 0  0.08 0.03 0  0.09 0.03 0  0.1 0.03 0  0.11 0.03 0  0.12 0.03 0  0.13 0.03 0  0.14 0.03 0  0.15 0.03 0  0.16 0.03 0  0.17 0.03 0  0.18 0.03 0  0.19 0.03 0  0.2 0.03 0  0.21 0.03 0  0.22 0.03 0  0.23 0.03 0  0.24 0.03 0  0.25 0.03 0  0.26 0.03 0  0.27 0.03 0  0.28 0.03 0  0.29 0.03 0  0.3 0.03 0  0.31 0.03 0  0.32 0.03 0  0.33 0.03 0  0.34 0.03 0  0.35 0.03 0  0.36 0.03 0  0.37 0.03 0  0.38 0.03 0  0.39 0.03 0  0.4 0.03 0  0.41 0.03 0  0.42 0.03 0  0.43 0.03 0  0.44 0.03 0  0.45 0.03 0  0.46 0.03 0  0.47 0.03 0  0.48 0.03 0  0.49 0.03 0  0.5 0.03 0  0.51 0.03 0  0.52 0.03 0  0.53 0.03 0  0.54 0.03 0  0.55 0.03 0  0.5600000000000001 0.03 0  0.57 0.03 0  0.58 0.03 0  0.59 0.03 0  0.6 0.03 0  0.61 0.03 0  0.62 0.03 0  0.63 0.03 0  0.64 0.03 0  0.65 0.03 0  0.66 0.03 0  0.67 0.03 0  0.68 0.03 0  0.6899999999999999 0.03 0  0.7 0.03 0  0.71 0.03 0  0.72 0.03 0  0.73 0.03 0  0.74 0.03 0  0.75 0.03 0  0.76 0.03 0  0.77 0.03 0  0.78 0.03 0  0.79 0.03 0  0.8 0.03 0  0.8100000000000001 0.03 0  0.82 0.03 0  0.83 0.03 0  0.84 0.03 0  0.85 0.03 0  0.86 0.03 0  0.87 0.03 0  0.88 0.03 0  0.89 0.03 0  0.9 0.03 0  0.91 0.03 0  0.92 0.03 0  0.93 0.03 0  0.9399999999999999 0.03 0  0.95 0.03 0  0.96 0.03 0  0.97 0.03 0  0.98 0.03 0  0.99 0.03 0  1 0.03 0  0 0.04 0  0.01 0.04 0  0.02 0.04 0  0.03 0.04 0  0.04 0.04 0  0.05 0.04 0  0.06 0.04 0  0.07000000000000001 0.04 0  0.08 0.04 0  0.09 0.04 0  0.1 0.04 0  0.11 0.04 0  0.12 0.04 0  0.13 0.04 0  0.14 0.04 0  0.15 0.04 0  0.16 0.04 0  0.17 0.04 0  0.18 0.04 0  0.19 0.04 0  0.2 0.04 0  0.21 0.04 0  0.22 0.04 0  0.23 0.04 0  0.24 0.04 0  0.25 0.04 0  0.26 0.04 0  0.27 0.04 0  0.28 0.04 0  0.29 0.04 0  0.3 0.04 0  0.31 0.04 0  0.32 0.04 0  0.33 0.04 0  0.34 0.04 0  0.35 0.04 0  0.36 0.04 0  0.37 0.04 0  0.38 0.04 0  0.39 0.04 0  0.4 0.04 0  0.41 0.04 0  0.42 0.04 0  0.43 0.04 0  0.44 0.04 0  0.45 0.04 0  0.46 0.04 0  0.47 0.04 0  0.48 0.04 0  0.49 0.04 0  0.5 0.04 0  0.51 0.04 0  0.52 0.04 0  0.53 0.04 0  0.54 0.04 0  0.55 0.04 0  0.5600000000000001 0.04 0  0.57 0.04 0  0.58 0.04 0  0.59 0.04 0  0.6 0.04 0  0.61 0.04 0  0.62 0.04 0  0.63 0.04 0  0.64 0.04 0  0.65 0.04 0  0.66 0.04 0  0.67 0.04 0  0.68 0.04 0  0.6899999999999999 0.04 0  0.7 0.04 0  0.71 0.04 0  0.72 0.04 0  0.73 0.04 0  0.74 0.04 0  0.75 0.04 0  0.76 0.04 0  0.77 0.04 0  0.78 0.04 0  0.79 0.04 0  0.8 0.04 0  0.8100000000000001 0.04 0  0.82 0.04 0  0.83 0.04 0  0.84 0.04 0  0.85 0.04 0  0.86 0.04 0  0.87 0.04 0  0.88 0.04 0  0.89 0.04 0  0.9 0.04 0  0.91 0.04 0  0.92 0.04 0  0.93 0.04 0  0.9399999999999999 0.04 0  0.95 0.04 0  0.96 0.04 0  0.97 0.04 0  0.98 0.04 0  0.99 0.04 0  1 0.04 0  0 0.05 0  0.01 0.05 0  0.02 0.05 0  0.03 0.05 0  0.04 0.05 0  0.05 0.05 0  0.06 0.05 0  0.07000000000000001 0.05 0  0.08 0.05 0  0.09 0.05 0  0.1 0.05 0  0.11 0.05 0  0.12 0.05 0  0.13 0.05 0  0.14 0.05 0  0.15 0.05 0  0.16 0.05 0  0.17 0.05 0  0.18 0.05 0  0.19 0.05 0  0.2 0.05 0  0.21 0.05 0  0.22 0.05 0  0.23 0.05 0  0.24 0.05 0  0.25 0.05 0  0.26 0.05 0  0.27 0.05 0  0.28 0.05 0  0.29 0.05 0  0.3 0.05 0  0.31 0.05 0  0.32 0.05 0  0.33 0.05 0  0.34 0.05 0  0.35 0.05 0  0.36 0.05 0  0.37 0.05 0  0.38 0.05 0  0.39 0.05 0  0.4 0.05 0  0.41 0.05 0  0.42 0.05 0  0.43 0.05 0  0.44 0.05 0  0.45 0.05 0  0.46 0.05 0  0.47 0.05 0  0.48 0.05 0  0.49 0.05 0  0.5 0.05 0  0.51 0.05 0  0.52 0.05 0  0.53 0.05 0  0.54 0.05 0  0.55 0.05 0  0.5600000000000001 0.05 0  0.57 0.05 0  0.58 0.05 0  0.59 0.05 0  0.6 0.05 0  0.61 0.05 0  0.62 0.05 0  0.63 0.05 0  0.64 0.05 0  0.65 0.05 0  0.66 0.05 0  0.67 0.05 0  0.68 0.05 0  0.6899999999999999 0.05 0  0.7 0.05 0  0.71 0.05 0  0.72 0.05 0  0.73 0.05 0  0.74 0.05 0  0.75 0.05 0  0.76 0.05 0  0.77 0.05 0  0.78 0.05 0  0.79 0.05 0  0.8 0.05 0  0.8100000000000001 0.05 0  0.82 0.05 0  0.83 0.05 0  0.84 0.05 0  0.85 0.05 0  0.86 0.05 0  0.87 0.05 0  0.88 0.05 0  0.89 0.05 0  0.9 0.05 0  0.91 0.05 0  0.92 0.05 0  0.93 0.05 0  0.9399999999999999 0.05 0  0.95 0.05 0  0.96 0.05 0  0.97 0.05 0  0.98 0.05 0  0.99 0.05 0  1 0.05 0  0 0.06 0  0.01 0.06 0  0.02 0.06 0  0.03 0.06 0  0.04 0.06 0  0.05 0.06 0  0.06 0.06 0  0.07000000000000001 0.06 0  0.08 0.06 0  0.09 0.06 0  0.1 0.06 0  0.11 0.06 0  0.12 0.06 0  0.13 0.06 0  0.14 0.06 0  0.15 0.06 0  0.16 0.06 0  0.17 0.06 0  0.18 0.06 0  0.19 0.06 0  0.2 0.06 0  0.21 0.06 0  0.22 0.06 0  0.23 0.06 0  0.24 0.06 0  0.25 0.06 0  0.26 0.06 0  0.27 0.06 0  0.28 0.06 0  0.29 0.06 0  0.3 0.06 0  0.31 0.06 0  0.32 0.06 0  0.33 0.06 0  0.34 0.06 0  0.35 0.06 0  0.36 0.06 0  0.37 0.06 0  0.38 0.06 0  0.39 0.06 0  0.4 0.06 0  0.41 0.06 0  0.42 0.06 0  0.43 0.06 0  0.44 0.06 0  0.45 0.06 0  0.46 0.06 0  0.47 0.06 0  0.48 0.06 0  0.49 0.06 0  0.5 0.06 0  0.51 0.06 0  0.52 0.06 0  0.53 0.06 0  0.54 0.06 0  0.55 0.06 0  0.5600000000000001 0.06 0  0.57 0.06 0  0.58 0.06 0  0.59 0.06 0  0.6 0.06 0  0.61 0.06 0  0.62 0.06 0  0.63 0.06 0  0.64 0.06 0  0.65 0.06 0  0.66 0.06 0  0.67 0.06 0  0.68 0.06 0  0.6899999999999999 0.06 0  0.7 0.06 0  0.71 0.06 0  0.72 0.06 0  0.73 0.06 0  0.74 0.06 0  0.75 0.06 0  0.76 0.06 0  0.77 0.06 0  0.78 0.06 0  0.79 0.06 0  0.8 0.06 0  0.8100000000000001 0.06 0  0.82 0.06 0  0.83 0.06 0  0.84 0.06 0  0.85 0.06 0  0.86 0.06 0  0.87 0.06 0  0.88 0.06 0  0.89 0.06 0  0.9 0.06 0  0.91 0.06 0  0.92 0.06 0  0.93 0.06 0  0.9399999999999999 0.06 0  0.95 0.06 0  0.96 0.06 0  0.97 0.06 0  0.98 0.06 0  0.99 0.06 0  1 0.06 0  0 0.07000000000000001 0  0.01 0.07000000000000001 0  0.02 0.07000000000000001 0  0.03 0.07000000000000001 0  0.04 0.07000000000000001 0  0.05 0.07000000000000001 0  0.06 0.07000000000000001 0  0.07000000000000001 0.07000000000000001 0  0.08 0.07000000000000001 0  0.09 0.07000000000000001 0  0.1 0.07000000000000001 0  0.11 0.07000000000000001 0  0.12 0.07000000000000001 0  0.13 0.07000000000000001 0  0.14 0.07000000000000001 0  0.15 0.07000000000000001 0  0.16 0.07000000000000001 0  0.17 0.0700
[...]
<PointData  Scalars="Indicator Function"> 
<DataArray  type="Float64"  Name="Indicator Function"  format="ascii">-6.0185310762101120e-36  -6.6958860592753218e-20  1.7969996345776639e-20  3.3166185242120436e-19  3.4464983604826582e-19  -3.5744901593080121e-20  -3.1290807256653884e-20  6.5313900633983266e-19  9.3450611222649711e-19  -9.0277966143151681e-36  5.0065311463656227e-18  2.9298713477831548e-18  -4.2247988482386355e-20  -3.6464344651980723e-20  7.6517972441243111e-18  -9.0332235475159064e-21  -6.4559610472951562e-21  2.1724213718145098e-18  -3.5793161286836583e-20  -4.2129717533470784e-35  5.5717053911268711e-18  6.0185310762101120e-36  -3.8862950667108691e-20  1.3248718081011682e-17  -5.2794125565397774e-20  -2.6397062782698893e-20  -1.9838539069910678e-20  -4.6205056884036347e-20  4.1428384779172993e-17  -1.7636649061851926e-20  -8.4829314105958628e-20  -3.0346061073957395e-20  -4.9822227297058304e-20  -1.5414668922799121e-20  2.4693390983653432e-17  -9.8346193453598587e-20  -1.3068736891894082e-19  -1.4811370633805111e-19  -1.5320727270171987e-19  -1.4903189470738657e-19  8.7073127281488328e-18  -8.8265409295593495e-20  -2.5682803724801357e-20  -3.4148073129619991e-20  -1.9731795453102021e-20  -2.2918231520437368e-20  3.0061753117146034e-17  -1.4701586084312258e-20  -8.4023065195007755e-21  -1.3126508810198415e-21  -2.2677684969739179e-20  -1.1338842484869596e-20  -8.2271150870241947e-21  -9.1445061140629407e-21  -8.5178520132204790e-21  -4.9565113358840833e-21  2.3899367165047954e-19  -1.1129532974348959e-21  -3.8600942993660002e-22  -2.9784495903192398e-22  -4.1865173980275877e-22  -6.6938838971614953e-22  -4.2715191093888491e-22  -1.4573889203203344e-21  -2.1597773968796139e-21  -8.1283804294826281e-22  -2.3918317085890298e-21  -2.8109221406509480e-21  3.0660582528397608e-18  9.4039548065783001e-38  -8.2588869363808566e-23  -3.1639980219971764e-22  -4.8894571853272987e-22  -5.8831097996674951e-22  -5.0196617805123682e-22  -6.7033497156904999e-22  -6.5004550505668976e-22  -5.6139163290385018e-22  -6.0766557172977624e-22  -6.0094260214516274e-22  -6.6485582978949793e-22  -1.4788540411738036e-20  -3.4801142113894525e-22  -2.2137413101699931e-22  0.0000000000000000e+00  -7.2208004675201933e-23  -2.2113625115431318e-22  -1.6765311423578252e-22  -7.6044857395045825e-23  -3.5264830524668625e-38  -7.2440865022081071e-23  -8.7367161220017533e-23  -2.5590810340175999e-22  8.9872727034536877e-19  -1.0044302545932939e-22  -1.3852540634228072e-22  -5.1387993764206553e-23  -1.0029475328959853e-22  -3.8206702390662284e-23  -6.5003567748690645e-23  1.8807909613156600e-37  -3.6254369807541805e-20  5.7185148096574711e-04  2.3681584674318471e-04  1.5947790569289833e-04  3.5478054244577549e-04  2.8523986730181507e-04  5.0130296832905509e-04  3.1303358744022705e-04  7.0604003899068699e-04  5.3760490126597762e-05  3.1844926647859765e-05  4.4112500397984315e-04  7.6073411808990428e-04  3.8070504170076064e-04  4.6653071509749694e-04  2.8123810410137380e-04  2.2109036759501209e-05  7.8712751752143617e-04  1.3350122562721492e-04  6.4479227133523709e-04  2.1817680090169573e-04  3.1883944981393194e-04  2.5446050961595059e-04  5.7286242576366363e-04  2.1251327167481513e-04  9.5105441689470626e-04  7.1475869730259784e-04  9.4733484132744075e-04  3.5868888719859217e-04  6.3542724914416400e-04  8.6963398966413100e-04  1.0933320747586945e-03  6.8429095885023591e-04  5.5537197773408166e-04  2.0805806933318672e-05  8.7214511591582832e-04  1.3355749628058190e-03  1.6864668624585800e-03  1.8249458994607501e-03  1.8474639152692869e-03  1.7609879842473773e-03  1.4093548955136309e-03  8.8537080989654112e-04  4.6266026113937975e-04  3.8382686711821808e-04  8.2571631148349741e-04  6.0078123449760123e-04  5.2968046088851142e-04  2.8581108889580534e-04  8.4569535932028417e-06  1.9418139277912628e-05  4.0852485431737141e-04  1.1115544007613448e-04  9.2628809722958139e-05  1.1841837244964520e-04  9.4234794386124500e-05  6.9264218562157284e-05  4.6063504027815696e-05  2.5114931445565535e-05  1.5103180984549957e-05  1.1201896261902499e-05  7.6557757870760983e-06  8.2307413164291028e-06  1.4021914145963911e-05  1.9243027720972231e-05  2.9285576858674874e-05  3.4735885016774732e-06  4.1350615315299217e-05  2.9961763963163072e-05  1.4477528338655678e-05  5.9124135902121596e-06  1.4877888051671979e-06  4.9558577225633896e-06  6.3301341618719106e-06  7.4330013596889429e-06  7.5893515701451484e-06  8.2810055276145658e-06  7.5696760135814109e-06  8.8253066569983677e-06  9.9555740205506580e-06  1.0003470070594053e-05  7.2696668763550387e-06  8.4050726456166866e-06  5.6089689463791072e-06  2.0789320707194467e-06  5.4901265745756938e-06  1.2941944390032211e-07  6.0403400223981827e-06  2.7398047314221662e-06  2.3038967046670280e-07  2.6099572217587227e-06  3.2596155913836239e-07  1.4108860792903732e-06  4.6100305564848935e-06  1.0428242682632741e-06  1.2880085539907655e-06  1.8514475965423853e-06  8.6041625794374383e-07  1.3765415251971347e-06  2.3420003479260466e-06  6.5003567748690269e-23  -1.2787809057401086e-20  6.5310066542318952e-04  1.6832518832178423e-04  9.5240660904306044e-05  9.7681666009771803e-06  3.3810538532662966e-04  5.4599377790107053e-04  6.5993155623710466e-04  7.8390916016155368e-04  7.3580800076516442e-05  1.7901462613403095e-04  4.9250321029699242e-04  6.7677687411296184e-04  1.0037835173297312e-03  9.6035147699689437e-04  6.4089338714421319e-04  1.2488326511498281e-03  8.4775236122036664e-05  4.9126333160752142e-04  1.0100602926192029e-03  4.8263269822850278e-04  1.6505678708793579e-03  1.0754529728502005e-03  1.7820722823561753e-03  1.0276976248259002e-03  1.3015059697623944e-03  4.3299407908477212e-05  3.2592728378018750e-04  1.7622623780573614e-03  1.2843677996866639e-03  3.5962317673320177e-05  1.7643867488864044e-03  1.1386195114503707e-04  1.1895430484160779e-03  6.7965591441423621e-04  1.1954902326574526e-03  1.6509512955097591e-03  2.1983996175075110e-03  2.5316243517399650e-03  2.6261465647687467e-03  2.5545129789670963e-03  2.3512194477776668e-03  1.7744123727320928e-03  2.3488350455884338e-04  1.0980825095769293e-03  9.5533980357541339e-04  9.1795143924509859e-04  1.2975356862627468e-03  1.1102429479393386e-03  3.9158378600961046e-04  3.6851231611190877e-04  6.7118332681994513e-04  2.0416923148465995e-04  2.8800469347525044e-04  1.1777398797804897e-04  1.2633451612509140e-04  9.5116046133714350e-05  7.8723544338831658e-05  4.8643267112624630e-05  2.8167220742156853e-05  1.8116578563837800e-05  1.2653275911821765e-05  1.3277886966287208e-05  1.1488595563287239e-05  2.6731891449376755e-05  2.9493700735047116e-05  2.8851953080186121e-05  5.0311854430640945e-05  5.3279534450721217e-05  1.9965228635747832e-05  1.1522795689117368e-05  2.8290370478597704e-06  4.8227920080915647e-06  8.1908027056372292e-06  8.9181978200388768e-06  7.6877645726695001e-06  1.2460493600719167e-05  1.3284457159161975e-05  1.1530773290709649e-05  1.1637910384033027e-05  1.2015655191319131e-05  1.3728126257495462e-05  1.3483063182257733e-05  7.2844769738143600e-06  8.1862878848179039e-06  6.6775820995691123e-07  7.3602608215940383e-06  8.0483487053297597e-06  3.8658525063464678e-06  7.7229524808997616e-06  8.3002435457990947e-06  3.3442989042448376e-06  4.9004755737883507e-06  1.2006846094504014e-05  6.6980837781478103e-06  8.2213710651998372e-06  2.2054629361032052e-06  1.6618574478713420e-06  5.3702949444241834e-06  3.1273219827622611e-06  7.8120559590279023e-22  -2.4227311762719537e-20  2.3036468842318702e-04  4.5502921738963762e-04  7.5316974735698550e-05  5.3939547383829306e-04  7.4917194004167186e-04  6.6631593084623094e-04  8.8106972291195106e-04  2.2455802462728396e-04  1.3452632425392586e-03  5.1178370141139525e-04  8.2963752913479452e-06  1.0664074802947093e-03  1.2747454275678085e-03  2.7939899651088492e-04  1.0271012356628142e-03  1.8660365697284977e-04  3.2373310481370880e-04  1.5750443746203957e-03  8.4177739286634388e-04  1.7819803387940781e-03  4.3558767520481223e-04  1.1481803291863294e-03  3.1304862758389952e-04  1.6883860298213690e-03  1.4540574617994541e-03  2.5123620919490857e-03  2.1312596023064598e-03  2.0490809158627428e-03  7.8436794598995174e-04  2.1865815238002514e-03  2.0072884784179375e-03  2.1599125077452958e-03  2.2745343271595195e-03  1.0202799580817572e-03  2.8471901275781874e-04  2.0297398866206493e-03  2.2759106626409850e-03  2.7860900692180004e-03  3.0034925355186741e-03  3.0404273167867323e-03  2.8552515968621886e-03  2.1784576929436647e-03  1.4223437989782091e-03  1.4158989807019316e-03  7.5888722991028089e-04  2.3985961687312983e-03  1.3791042465116032e-03  8.0695808055218242e-04  4.4388869642427342e-04  1.1185398554563849e-04  1.7100975325095734e-04  1.0386519182894842e-03  4.7423620088796425e-04  2.1787169625071571e-04  1.0815885610506807e-04  8.3654784003938792e-05  8.2043976469865903e-05  7.0172552546317598e-05  3.8402791543106257e-05  2.6054979618122164e-05  2.0654713228936637e-05  1.2256531025230323e-05  1.5523442520949928e-05  2.2682515594291702e-05  2.9946136894448642e-05  4.3762700941721954e-05  1.8806044105104323e-05  8.2990587972297725e-05  3.0392660450636502e-05  5.5286091478862304e-06  7.5364104499761602e-06  1.8884425345401676e-07  6.2130961280421604e-06  8.9227405841245621e-06  1.1635522931521291e-05  8.9721819358496796e-06  1.2327687941835121e-05  1.2786931472425871e-05  1.5586258100516572e-05  1.5537197934611640e-05  1.3720544493798089e-05  9.9239713206483956e-06  1.5827783873189678e-05  7.6330089181657440e-06  5.2198906543574809e-06  8.5529909507183302e-06  4.5735218420059745e-07  1.5453536954792627e-05  5.2264861616600351e-06  1.1270604320468551e-06  1.2106272178518148e-05  9.8227717015336303e-07  3.5158706548780785e-06  1.8441655361888823e-05  3.9702936422283884e-06  5.3227294880913154e-06  1.1945327520023566e-06  4.8549760562639275e-06  6.6721871884066351e-06  -9.2595198014725351e-22  -1.8761774056550028e-20  4.3644044890709093e-04  6.1548089295922258e-04  3.8467318714450430e-06  1.5447695927265148e-04  4.9145112607266691e-04  6.9791814254787558e-04  1.1744242190547696e-03  1.0645701279322142e-03  6.8181478132223758e-04  2.1524204233458087e-04  1.7555293130642471e-05  4.8187808606958975e-04  1.0267890681661179e-03  1.5137403913419859e-03  7.8089433561727070e-04  9.8993148332155475e-04  1.8104412382232247e-03  3.5484682865096742e-04  1.1905638491660228e-03  7.0074188587684817e-04  4.2833584783181323e-04  2.1738489897325940e-03  1.7126103689833981e-03  2.5571444853350958e-03  1.3522909811427824e-03  1.3803729699396910e-03  5.2015519107695570e-04  1.4974499395005009e-03  3.3517934145502735e-03  2.0379148912780562e-03  7.1423940797490991e-04  3.2719390456673277e-03  3.8679985478302741e-04  2.6955937081947039e-03  8.6207290961250085e-04  2.0495962330172000e-03  2.4585655611765915e-03  2.8462632783863300e-03  3.2333980121488901e-03  3.3316545309067529e-03  3.2457930931739242e-03  2.9843201404969643e-03  2.0772784906757944e-03  5.5532443885093936e-04  2.0321492697158781e-03  1.5412156300345372e-03  2.1016504036404740e-03  2.8841541388762450e-03  2.2913362900611758e-03  1.0399488800634739e-03  3.8904856251898643e-04  9.8948199235143969e-04  4.6017158664413328e-04  7.3067385718158183e-04  1.3339682007907101e-04  8.1938256435417728e-05  5.5151906184102441e-05  7.4504477145069376e-05  5.3683716548485830e-05  3.0197906594464383e-05  2.1941139507240811e-05  1.7597422092151051e-05  1.6245269002636397e-05  1.2840286544416928e-05  3.5896770140129434e-05  3.3959380489667779e-05  4.0325564200714886e-05  8.4552142527982837e-05  7.3463152924577594e-05  2.8282574563998253e-06  1.1809741389010800e-06  2.4518899110817079e-06  3.6369585305070722e-06  7.7488357225067476e-06  8.9891740144619280e-06  9.6614065484040584e-06  1.3940930291149742e-05  1.4020837110218833e-05  1.1146285532865733e-05  1.5606432764012312e-05  1.5967326973147127e-05  1.6554222552946159e-05  1.2310997176727273e-05  8.8724454281909517e-06  9.2583393761488436e-06  8.2464058151840028e-08  1.4692594772170635e-05  7.6261999850405578e-06  8.2026287104892913e-06  1.3101127366657579e-05  1.6133627479248106e-05  1.0122504631612161e-05  4.9906778557579981e-06  1.7031170062980479e-05  1.4070543373697997e-06  1.4936574264765741e-05  7.9769481396956911e-07  3.1476814778351842e-06  3.3478024779835661e-06  6.6203723673923183e-22  -2.3273351105289471e-20  3.3798207459955203e-04  5.9048076932710961e-04  9.6046090844101849e-04  1.3411166197509306e-04  5.6336125346012806e-04  7.2397358052625168e-04  6.8730359780373002e-04  1.3301978291283107e-03  4.0727631362260736e-04  1.6872965968664207e-03  9.1693602901084888e-04  2.0533051568702760e-05  1.4153120733023136e-03  1.4838406579034619e-03  3.8904019583296031e-04  1.2737712728788089e-03  9.6748115957421448e-04  1.0386399047164023e-03  1.5471444332149499e-03  9.8713081434966443e-04  2.3454667801067687e-03  1.1303804381524798e-03  2.0838045684489336e-03  1.1933263544509237e-03  2.8121990737564845e-03  2.5463990267558835e-03  3.6471207979018659e-03  2.8365901892368696e-03  2.1830137529555787e-03  1.7071332149209968e-03  3.6279764956021069e-03  2.5166498653501701e-03  3.5416881819505105e-03  3.1371956056791580e-03  1.8554492921132508e-03  3.8332035439824717e-04  3.0974131738979705e-03  2.9206425489531570e-03  3.3820738651674045e-03  3.6093350634945386e-03  3.6326698562405631e-03  3.3977295231543796e-03  2.6004024398411318e-03  1.6648314488099637e-03  2.2877760889188819e-03  1.3849437405173608e-03  3.7151889866401454e-03  1.3375774098760181e-03  4.7938405818807955e-05  1.8165597573414736e-04  1.6155537186117040e-04  3.9906054553193220e-04  1.5824099606449966e-03  5.8666405277329526e-04  4.9296630308927011e-04  8.4417621274308056e-05  4.2891747643010347e-05  5.5974197960159844e-05  7.0451535988609948e-05  3.7850749479522733e-05  2.6055573580885889e-05  2.1849459685926961e-05  1.2377515857966524e-05  1.7943830528747390e-05  2.1528455010788282e-05  3.5935176883884554e-05  5.0776112011153807e-05  1.8122162795235609e-05  1.1756610909665167e-04  3.1005449031857865e-05  1.1181081783898866e-05  2.4952257214885871e-06  2.5119921922050078e-07  5.9819773148458134e-06  8.5773785460761526e-06  1.0949460878644145e-05  8.5226298422287285e-06  1.4495678729805907e-05  1.4544749236072449e-05  1.4252199392870457e-05  1.6238180714063952e-05  1.4698145744085148e-05  1.2839423670823564e-05  1.6318265221013051e-05  6.2123891879732983e-06  4.7080097594734372e-06  6.1958295440127966e-06  4.0244960885316093e-06  2.0865969104283889e-05  5.2482462772388430e-06  3.3131361395645458e-06  2.1619381648811306e-05  2.8003186849425182e-06  4.7165081152584928e-06  2.9465649856856488e-05  7.1389624772635322e-06  1.5623456427993043e-05  5.5187930726588729e-06  1.8541626960045106e-06  5.6423728839469800e-37  -1.2838686247560150e-20  4.1925542146177785e-04  6.5301240957032591e-04  5.6293420985176104e-04  6.0538989506226217e-04  2.4760074003866300e-04  6.0352477497322451e-04  1.0762206993696008e-03  1.5356936915248305e-03  1.3829970321449418e-03  6.0450933131292060e-04  5.4021627759655495e-04  4.1614345710400141e-04  4.5066643198760526e-04  1.5039520322197859e-03  1.8707086118892604e-03  5.5369614997478477e-04  8.8674975922754297e-04  1.5151125199101459e-03  1.8585059299625642e-04  1.6722346179935737e-03  2.0363502357685246e-04  1.0822622334254292e-04  1.8421628230289818e-03  1.5277197014773336e-03  2.4634733609769149e-03  9.2902771864365784e-04  8.1244677443795938e-04  1.4189461732107837e-03  2.5029404950311276e-03  4.5076719600782656e-03  2.1731803488949054e-03  1.8445148427170112e-03  4.5202293513349791e-03  9.7223331679197392e-04  4.1078061501136440e-03  1.2054621380021434e-03  2.5467151228689149e-03  3.4486778418597241e-03  3.4850294893863862e-03  3.8658307823446481e-03  3.9584149390007638e-03  3.8587144969761023e-03  3.5128735320757699e-03  2.3034644264340247e-03  7.0398494173229582e-04  3.1256651574795833e-03  1.7891493168405788e-03  3.4085340743046687e-03  3.7073835600152471e-03  2.5555676750830024e-03  1.1817248628025298e-03  3.8208614869106214e-04  9.7924201841726398e-04  8.6204457635268602e-04  1.0570015404973287e-03  2.2324469799235526e-04  2.8854116165164478e-05  1.2346641833158441e-05  6.3757093127256333e-05  6.0757063926315394e-05  3.1561328407234876e-05  2.3547139694176155e-05  1.9727868255702286e-05  1.4612141010672594e-05  1.3276491902498766e-05  3.8376117691820543e-05  3.6728053457065595e-05  4.9417173235980124e-05  1.0378807837457884e-04  9.6204098221752538e-05  1.0268084590807761e-05  1.0888432732649701e-05  1.5821968371893148e-06  1.5764611709441375e-06  7.0467899833567514e-06  8.4193870463804737e-06  9.9497869498833308e-06  1.2118411621302696e-05  1.4433152433175403e-05  1.2169242761890786e-05  1.6608747043354319e-05  1.6347670870886995e-05  1.5345279228186776e-05  1.2830046892650064e-05  1.0780249212428200e-05  7.0009288967213485e-06  5.0775495131558742e-07  1.3148524059426492e-05  4.9038164120404994e-06  1.2524475302005737e-05  1.6603260036233289e-05  1.5946499099588172e-05  1.8837216391643237e-05  5.9694968744582335e-06  1.4848203224435665e-05  8.6449308953115175e-06  1.1435701016529373e-05  6.5251252487358646e-06  6.1496886201098165e-06  1.5281426560689738e-37  -2.0946144405489572e-20  2.3128121040175446e-04  5.3230259493368078e-04  8.7467695618472126e-04  9.1101016308581305e-04  6.5044621782934869e-05  7.0823912860407741e-04  4.7587672652921995e-04  3.9971748424017027e-04  1.7632616368483108e-03  6.4677646649263993e-04  1.6687278058445528e-03  9.1296230600452957e-04  1.7612305255048540e-04  1.5307032163587918e-03  1.8298353040119627e-03  6.7859429596962731e-04  1.1201234414754413e-03  1.1992804385541251e-03  1.3407310017738644e-03  1.3618393169315972e-03  5.5373738245961541e-04  2.1353891187107558e-03  9.5111118333464394e-04  2.3358758012082975e-03  1.4304793675062291e-03  3.2126580604343660e-03  2.7673926620436708e-03  3.8437792530445283e-03  2.7259282182328678e-03  1.7804833823729855e-03  2.7255433209022357e-03  4.4636982166296781e-03  2.5269770183011580e-03  5.0599622715083101e-03  3.5300169948243873e-03  3.1505234254535202e-03  4.5948920541164119e-04  3.9780021457869203e-03  3.8039867691384605e-03  4.0946871941661802e-03  4.3141199915014026e-03  4.3187143237398045e-03  4.0388097361362665e-03  3.0772973761715003e-03  1.7696580419988149e-03  2.8782195181140781e-03  2.2130133065071242e-03  4.5813306001255601e-03  8.9437627842978466e-04  8.1307433020374217e-04  8.5417151901110062e-04  6.1406359145561168e-04  3.6116910033921057e-04  1.8597110561351022e-03  4.3983035852861971e-04  8.7053593416618232e-04  8.1706937806176784e-05  1.4515035890699576e-05  1.2744676476674611e-05  6.4139727583664098e-05  4.2726938907051801e-05  2.9600694337282776e-05  2.5310197905935411e-05  1.5227552799705025e-05  1.8918753746136558e-05  1.9778202580360984e-05  4.2060071568507204e-05  5.4452531116007619e-05  1.2713212284808215e-05  1.4864862092087695e-04  3.8913670053667558e-05  2.8072490440550647e-05  4.9244571005530005e-06  2.1592549627341921e-07  3.3557860659139628e-06  7.0277415599941543e-06  8.4989659530636951e-06  9.4827531171968879e-06  1.3725148010869911e-05  1.3774588554180143e-05  1.2363530907124305e-05  1.7456226222291971e-05  1.5230458126424126e-05  1.2550566927740259e-05  1.4122741693297582e-05  7.9405807148731004e-06  2.1685431214960836e-06  6.1950577106178905e-06  7.9378461796296686e-06  1.7693111870390669e-05  5.5361225985749086e-06  1.1363896317230836e-05  2.2777899822882101e-05  5.1666622808846950e-06  5.8057172051546494e-06  2.9725094095078535e-05  4.2673961113478646e-06  1.5908074793051839e-05  5.3121634467065867e-06  -7.3721077113822256e-22  -1.4972514095937132e-20  3.7733219255764715e-04  6.4732572306051698e-04  7.1101590266102813e-04  6.9709186853190780e-04  9.8391550631622888e-04  1.2767865986010305e-04  5.0934705740362564e-04  1.0038077338079248e-03  1.5955367903040397e-03  1.7689154446067046e-03  7.6013969780158210e-04  5.6534303254414213e-04  6.5181827354684379e-04  4.2300174926424651e-04  1.8328587530545076e-03  2.1433875863797343e-03