<?xml version="1.0"?>
<VTKFile type="UnstructuredGrid"  version="0.1"  >
<UnstructuredGrid>
<Piece  NumberOfPoints="10201" NumberOfCells="20000">
<Points>
<DataArray  type="Float64"  NumberOfComponents="3"  format="ascii">0 0 0  0.01 0 0  0.02 0 0  0.03 0 0  0.04 0 0  0.05 0 0  0.06 0 0  0.07000000000000001 0 0  0.08 0 0  0.09 0 0  0.1 0 0  0.11 0 0  0.12 0 0  0.13 0 0  0.14 0 0  0.15 0 0  0.16 0 0  0.17 0 0  0.18 0 0  0.19 0 0  0.2 0 0  0.21 0 0  0.22 0 0  0.23 0 0  0.24 0 0  0.25 0 0  0.26 0 0  0.27 0 0  0.28 0 0  0.29 0 0  0.3 0 0  0.31 0 0  0.32 0 0  0.33 0 0  0.34 0 0  0.35 0 0  0.36 0 0  0.37 0 0  0.38 0 0  0.39 0 0  0.4 0 0  0.41 0 0  0.42 0 0  0.43 0 0  0.44 0 0  0.45 0 0  0.46 0 0  0.47 0 0  0.48 0 0  0.49 0 0  0.5 0 0  0.51 0 0  0.52 0 0  0.53 0 0  0.54 0 0  0.55 0 0  0.5600000000000001 0 0  0.57 0 0  0.58 0 0  0.59 0 0  0.6 0 0  0.61 0 0  0.62 0 0  0.63 0 0  0.64 0 0  0.65 0 0  0.66 0 0  0.67 0 0  0.68 0 0  0.6899999999999999 0 0  0.7 0 0  0.71 0 0  0.72 0 0  0.73 0 0  0.74 0 0  0.75 0 0  0.76 0 0  0.77 0 0  0.78 0 0  0.79 0 0  0.8 0 0  0.8100000000000001 0 0  0.82 0 0  0.83 0 0  0.84 0 0  0.85 0 0  0.86 0 0  0.87 0 0  0.88 0 0  0.89 0 0  0.9 0 0  0.91 0 0  0.92 0 0  0.93 0 0  0.9399999999999999 0 0  0.95 0 0  0.96 0 0  0.97 0 0  0.98 0 0  0.99 0 0  1 0 0  0 0.01 0  0.01 0.01 0  0.02 0.01 0  0.03 0.01 0  0.04 0.01 0  0.05 0.01 0  0.06 0.01 0  0.07000000000000001 0.01 0  0.08 0.01 0  0.09 0.01 0  0.1 0.01 0  0.11 0.01 0  0.12 0.01 0  0.13 0.01 0  0.14 0.01 0  0.15 0.01 0  0.16 0.01 0  0.17 0.01 0  0.18 0.01 0  0.19 0.01 0  0.2 0.01 0  0.21 0.01 0  0.22 0.01 0  0.23 0.01 0  0.24 0.01 0  0.25 0.01 0  0.26 0.01 0  0.27 0.01 0  0.28 0.01 0  0.29 0.01 0  0.3 0.01 0  0.31 0.01 0  0.32 0.01 0  0.33 0.01 0  0.34 0.01 0  0.35 0.01 0  0.36 0.01 0  0.37 0.01 0  0.38 0.01 0  0.39 0.01 0  0.4 0.01 0  0.41 0.01 0  0.42 0.01 0  0.43 0.01 0  0.44 0.01 0  0.45 0.01 0  0.46 0.01 0  0.47 0.01 0  0.48 0.01 0  0.49 0.01 0  0.5 0.01 0  0.51 0.01 0  0.52 0.01 0  0.53 0.01 0  0.54 0.01 0  0.55 0.01 0  0.5600000000000001 0.01 0  0.57 0.01 0  0.58 0.01 0  0.59 0.01 0  0.6 0.01 0  0.61 0.01 0  0.62 0.01 0  0.63 0.01 0  0.64 0.01 0  0.65 0.01 0  0.66 0.01 0  0.67 0.01 0  0.68 0.01 0  0.6899999999999999 0.01 0  0.7 0.01 0  0.71 0.01 0  0.72 0.01 0  0.73 0.01 0  0.74 0.01 0  0.75 0.01 0  0.76 0.01 0  0.77 0.01 0  0.78 0.01 0  0.79 0.01 0  0.8 0.01 0  0.8100000000000001 0.01 0  0.82 0.01 0  0.83 0.01 0  0.84 0.01 0  0.85 0.01 0  0.86 0.01 0  0.87 0.01 0  0.88 0.01 0  0.89 0.01 0  0.9 0.01 0  0.91 0.01 0  0.92 0.01 0  0.93 0.01 0  0.9399999999999999 0.01 0  0.95 0.01 0  0.96 0.01 0  0.97 0.01 0  0.98 0.01 0  0.99 0.01 0  1 0.01 0  0 0.02 0  0.01 0.02 0  0.02 0.02 0  0.03 0.02 0  0.04 0.02 0  0.05 0.02 0  0.06 0.02 0  0.07000000000000001 0.02 0  0.08 0.02 0  0.09 0.02 0  0.1 0.02 0  0.11 0.02 0  0.12 0.02 0  0.13 0.02 0  0.14 0.02 0  0.15 0.02 0  0.16 0.02 0  0.17 0.02 0  0.18 0.02 0  0.19 0.02 0  0.2 0.02 0  0.21 0.02 0  0.22 0.02 0  0.23 0.02 0  0.24 0.02 0  0.25 0.02 0  0.26 0.02 0  0.27 0.02 0  0.28 0.02 0  0.29 0.02 0  0.3 0.02 0  0.31 0.02 0  0.32 0.02 0  0.33 0.02 0  0.34 0.02 0  0.35 0.02 0  0.36 0.02 0  0.37 0.02 0  0.38 0.02 0  0.39 0.02 0  0.4 0.02 0  0.41 0.02 0  0.42 0.02 0  0.43 0.02 0  0.44 0.02 0  0.45 0.02 0  0.46 0.02 0  0.47 0.02 0  0.48 0.02 0  0.49 0.02 0  0.5 0.02 0  0.51 0.02 0  0.52 0.02 0  0.53 0.02 0  0.54 0.02 0  0.55 0.02 0  0.5600000000000001 0.02 0  0.57 0.02 0  0.58 0.02 0  0.59 0.02 0  0.6 0.02 0  0.61 0.02 0  0.62 0.02 0  0.63 0.02 0  0.64 0.02 0  0.65 0.02 0  0.66 0.02 0  0.67 0.02 0  0.68 0.02 0  0.6899999999999999 0.02 0  0.7 0.02 0  0.71 0.02 0  0.72 0.02 0  0.73 0.02 0  0.74 0.02 0  0.75 0.02 0  0.76 0.02 0  0.77 0.02 0  0.78 0.02 0  0.79 0.02 0  0.8 0.02 0  0.8100000000000001 0.02 0  0.82 0.02 0  0.83 0.02 0  0.84 0.02 0  0.85 0.02 0  0.86 0.02 0  0.87 0.02 0  0.88 0.02 0  0.89 0.02 0  0.9 0.02 0  0.91 0.02 0  0.92 0.02 0  0.93 0.02 0  0.9399999999999999 0.02 0  0.95 0.02 0  0.96 0.02 0  0.97 0.02 0  0.98 0.02 0  0.99 0.02 0  1 0.02 0  0 0.03 0  0.01 0.03 0  0.02 0.03 0  0.03 0.03 0  0.04 0.03 0  0.05 0.03 0  0.06 0.03 0  0.07000000000000001 0.03 0  0.08 0.03 0  0.09 0.03 0  0.1 0.03 0  0.11 0.03 0  0.12 0.03 0  0.13 0.03 0  0.14 0.03 0  0.15 0.03 0  0.16 0.03 0  0.17 0.03 0  0.18 0.03 0  0.19 0.03 0  0.2 0.03 0  0.21 0.03 0  0.22 0.03 0  0.23 0.03 0  0.24 0.03 0  0.25 0.03 0  0.26 0.03 0  0.27 0.03 0  0.28 0.03 0  0.29 0.03 0  0.3 0.03 0  0.31 0.03 0  0.32 0.03 0  0.33 0.03 0  0.34 0.03 0  0.35 0.03 0  0.36 0.03 0  0.37 0.03 0  0.38 0.03 0  0.39 0.03 0  0.4 0.03 0  0.41 0.03 0  0.42 0.03 0  0.43 0.03 0  0.44 0.03 0  0.45 0.03 0  0.46 0.03 0  0.47 0.03 0  0.48 0.03 0  0.49 0.03 0  0.5 0.03 0  0.51 0.03 0  0.52 0.03 0  0.53 0.03 0  0.54 0.03 0  0.55 0.03 0  0.5600000000000001 0.03 0  0.57 0.03 0  0.58 0.03 0  0.59 0.03 0  0.6 0.03 0  0.61 0.03 0  0.62 0.03 0  0.63 0.03 0  0.64 0.03 0  0.65 0.03 0  0.66 0.03 0  0.67 0.03 0  0.68 0.03 0  0.6899999999999999 0.03 0  0.7 0.03 0  0.71 0.03 0  0.72 0.03 0  0.73 0.03 0  0.74 0.03 0  0.75 0.03 0  0.76 0.03 0  0.77 0.03 0  0.78 0.03 0  0.79 0.03 0  0.8 0.03 0  0.8100000000000001 0.03 0  0.82 0.03 0  0.83 0.03 0  0.84 0.03 0  0.85 0.03 0  0.86 0.03 0  0.87 0.03 0  0.88 0.03 0  0.89 0.03 0  0.9 0.03 0  0.91 0.03 0  0.92 0.03 0  0.93 0.03 0  0.9399999999999999 0.03 0  0.95 0.03 0  0.96 0.03 0  0.97 0.03 0  0.98 0.03 0  0.99 0.03 0  1 0.03 0  0 0.04 0  0.01 0.04 0  0.02 0.04 0  0.03 0.04 0  0.04 0.04 0  0.05 0.04 0  0.06 0.04 0  0.07000000000000001 0.04 0  0.08 0.04 0  0.09 0.04 0  0.1 0.04 0  0.11 0.04 0  0.12 0.04 0  0.13 0.04 0  0.14 0.04 0  0.15 0.04 0  0.16 0.04 0  0.17 0.04 0  0.18 0.04 0  0.19 0.04 0  0.2 0.04 0  0.21 0.04 0  0.22 0.04 0  0.23 0.04 0  0.24 0.04 0  0.25 0.04 0  0.26 0.04 0  0.27 0.04 0  0.28 0.04 0  0.29 0.04 0  0.3 0.04 0  0.31 0.04 0  0.32 0.04 0  0.33 0.04 0  0.34 0.04 0  0.35 0.04 0  0.36 0.04 0  0.37 0.04 0  0.38 0.04 0  0.39 0.04 0  0.4 0.04 0  0.41 0.04 0  0.42 0.04 0  0.43 0.04 0  0.44 0.04 0  0.45 0.04 0  0.46 0.04 0  0.47 0.04 0  0.48 0.04 0  0.49 0.04 0  0.5 0.04 0  0.51 0.04 0  0.52 0.04 0  0.53 0.04 0  0.54 0.04 0  0.55 0.04 0  0.5600000000000001 0.04 0  0.57 0.04 0  0.58 0.04 0  0.59 0.04 0  0.6 0.04 0  0.61 0.04 0  0.62 0.04 0  0.63 0.04 0  0.64 0.04 0  0.65 0.04 0  0.66 0.04 0  0.67 0.04 0  0.68 0.04 0  0.6899999999999999 0.04 0  0.7 0.04 0  0.71 0.04 0  0.72 0.04 0  0.73 0.04 0  0.74 0.04 0  0.75 0.04 0  0.76 0.04 0  0.77 0.04 0  0.78 0.04 0  0.79 0.04 0  0.8 0.04 0  0.8100000000000001 0.04 0  0.82 0.04 0  0.83 0.04 0  0.84 0.04 0  0.85 0.04 0  0.86 0.04 0  0.87 0.04 0  0.88 0.04 0  0.89 0.04 0  0.9 0.04 0  0.91 0.04 0  0.92 0.04 0  0.93 0.04 0  0.9399999999999999 0.04 0  0.95 0.04 0  0.96 0.04 0  0.97 0.04 0  0.98 0.04 0  0.99 0.04 0  1 0.04 0  0 0.05 0  0.01 0.05 0  0.02 0.05 0  0.03 0.05 0  0.04 0.05 0  0.05 0.05 0  0.06 0.05 0  0.07000000000000001 0.05 0  0.08 0.05 0  0.09 0.05 0  0.1 0.05 0  0.11 0.05 0  0.12 0.05 0  0.13 0.05 0  0.14 0.05 0  0.15 0.05 0  0.16 0.05 0  0.17 0.05 0  0.18 0.05 0  0.19 0.05 0  0.2 0.05 0  0.21 0.05 0  0.22 0.05 0  0.23 0.05 0  0.24 0.05 0  0.25 0.05 0  0.26 0.05 0  0.27 0.05 0  0.28 0.05 0  0.29 0.05 0  0.3 0.05 0  0.31 0.05 0  0.32 0.05 0  0.33 0.05 0  0.34 0.05 0  0.35 0.05 0  0.36 0.05 0  0.37 0.05 0  0.38 0.05 0  0.39 0.05 0  0.4 0.05 0  0.41 0.05 0  0.42 0.05 0  0.43 0.05 0  0.44 0.05 0  0.45 0.05 0  0.46 0.05 0  0.47 0.05 0  0.48 0.05 0  0.49 0.05 0  0.5 0.05 0  0.51 0.05 0  0.52 0.05 0  0.53 0.05 0  0.54 0.05 0  0.55 0.05 0  0.5600000000000001 0.05 0  0.57 0.05 0  0.58 0.05 0  0.59 0.05 0  0.6 0.05 0  0.61 0.05 0  0.62 0.05 0  0.63 0.05 0  0.64 0.05 0  0.65 0.05 0  0.66 0.05 0  0.67 0.05 0  0.68 0.05 0  0.6899999999999999 0.05 0  0.7 0.05 0  0.71 0.05 0  0.72 0.05 0  0.73 0.05 0  0.74 0.05 0  0.75 0.05 0  0.76 0.05 0  0.77 0.05 0  0.78 0.05 0  0.79 0.05 0  0.8 0.05 0  0.8100000000000001 0.05 0  0.82 0.05 0  0.83 0.05 0  0.84 0.05 0  0.85 0.05 0  0.86 0.05 0  0.87 0.05 0  0.88 0.05 0  0.89 0.05 0  0.9 0.05 0  0.91 0.05 0  0.92 0.05 0  0.93 0.05 0  0.9399999999999999 0.05 0  0.95 0.05 0  0.96 0.05 0  0.97 0.05 0  0.98 0.05 0  0.99 0.05 0  1 0.05 0  0 0.06 0  0.01 0.06 0  0.02 0.06 0  0.03 0.06 0  0.04 0.06 0  0.05 0.06 0  0.06 0.06 0  0.07000000000000001 0.06 0  0.08 0.06 0  0.09 0.06 0  0.1 0.06 0  0.11 0.06 0  0.12 0.06 0  0.13 0.06 0  0.14 0.06 0  0.15 0.06 0  0.16 0.06 0  0.17 0.06 0  0.18 0.06 0  0.19 0.06 0  0.2 0.06 0  0.21 0.06 0  0.22 0.06 0  0.23 0.06 0  0.24 0.06 0  0.25 0.06 0  0.26 0.06 0  0.27 0.06 0  0.28 0.06 0  0.29 0.06 0  0.3 0.06 0  0.31 0.06 0  0.32 0.06 0  0.33 0.06 0  0.34 0.06 0  0.35 0.06 0  0.36 0.06 0  0.37 0.06 0  0.38 0.06 0  0.39 0.06 0  0.4 0.06 0  0.41 0.06 0  0.42 0.06 0  0.43 0.06 0  0.44 0.06 0  0.45 0.06 0  0.46 0.06 0  0.47 0.06 0  0.48 0.06 0  0.49 0.06 0  0.5 0.06 0  0.51 0.06 0  0.52 0.06 0  0.53 0.06 0  0.54 0.06 0  0.55 0.06 0  0.5600000000000001 0.06 0  0.57 0.06 0  0.58 0.06 0  0.59 0.06 0  0.6 0.06 0  0.61 0.06 0  0.62 0.06 0  0.63 0.06 0  0.64 0.06 0  0.65 0.06 0  0.66 0.06 0  0.67 0.06 0  0.68 0.06 0  0.6899999999999999 0.06 0  0.7 0.06 0  0.71 0.06 0  0.72 0.06 0  0.73 0.06 0  0.74 0.06 0  0.75 0.06 0  0.76 0.06 0  0.77 0.06 0  0.78 0.06 0  0.79 0.06 0  0.8 0.06 0  0.8100000000000001 0.06 0  0.82 0.06 0  0.83 0.06 0  0.84 0.06 0  0.85 0.06 0  0.86 0.06 0  0.87 0.06 0  0.88 0.06 0  0.89 0.06 0  0.9 0.06 0  0.91 0.06 0  0.92 0.06 0  0.93 0.06 0  0.9399999999999999 0.06 0  0.95 0.06 0  0.96 0.06 0  0.97 0.06 0  0.98 0.06 0  0.99 0.06 0  1 0.06 0  0 0.07000000000000001 0  0.01 0.07000000000000001 0  0.02 0.07000000000000001 0  0.03 0.07000000000000001 0  0.04 0.07000000000000001 0  0.05 0.07000000000000001 0  0.06 0.07000000000000001 0  0.07000000000000001 0.07000000000000001 0  0.08 0.07000000000000001 0  0.09 0.07000000000000001 0  0.1 0.07000000000000001 0  0.11 0.07000000000000001 0  0.12 0.07000000000000001 0  0.13 0.07000000000000001 0  0.14 0.07000000000000001 0  0.15 0.07000000000000001 0  0.16 0.07000000000000001 0  0.17 0.0700
[...]
<PointData  Scalars="Indicator Function"> 
<DataArray  type="Float64"  Name="Indicator Function"  format="ascii">-1.2037062152420224e-35  -4.9919787098338613e-20  -2.0517211626482425e-20  -2.6383892375975678e-20  3.1481271851853938e-19  -2.9210781701499010e-20  -2.3737496594845114e-20  6.6652136345963869e-19  8.0873587101075370e-19  -2.4569126495759136e-21  3.8887144871213494e-18  7.6085345791968267e-19  -2.8140828234113605e-20  -3.1466102597559159e-20  8.0969602370289272e-18  -7.7920589974772546e-21  2.4600745774008833e-34  1.9015621669857244e-18  -3.4045366115790629e-20  3.0092655381050560e-36  7.1777105608897668e-18  0.0000000000000000e+00  -3.5034011134502505e-20  9.2343994635121357e-18  -4.0055060765960978e-20  -2.2987471284345161e-20  -1.7477736757867432e-20  -4.1017764887239572e-20  4.0619359259947434e-17  -1.6294023537722510e-20  -6.8803698497933310e-20  -2.5416141838868185e-20  -4.3031721671123605e-20  -2.9203656076125543e-20  1.5644777142347546e-18  -7.1547398562012549e-20  -1.0228843557085455e-19  -1.1978333313340620e-19  -1.2619248748293101e-19  -1.2396640881930370e-19  8.6324020587740010e-18  -5.8469463890972538e-20  -2.2651518627797706e-20  -2.9009925891871635e-20  -2.6557502773048910e-20  -1.9737296523091826e-20  1.6240870824670288e-17  -1.4928834334494236e-20  -1.0140106850571203e-20  -9.3059327857945330e-21  -1.3175299684218735e-20  -1.1162616725459744e-20  -8.3144547318259442e-21  -1.1875016139693136e-20  -7.9160896284531380e-21  -1.2789378536946488e-35  4.0444528832131953e-33  -1.4105932209867450e-37  0.0000000000000000e+00  -2.3509887016445750e-38  -4.1108517631935429e-23  -5.8774717541114375e-38  1.1754943508222875e-38  -2.0652031266559108e-24  -4.4279989171930569e-23  -9.5626939897368120e-23  -2.6830410454915941e-22  -1.9121549019954510e-22  2.4194316957479747e-20  -6.8590357703899409e-22  -3.4295178851949714e-22  -1.0831107525802544e-21  -4.0734905276132351e-22  -4.1942831772382881e-22  -1.3900391026421135e-21  -1.2085453518567442e-21  -6.6277033262938955e-22  -7.0529661049337250e-38  9.4039548065783001e-38  -2.5743296301485732e-23  3.8791313577135488e-36  8.4664905414475479e-19  -3.3994913934710254e-22  -5.8969237882684328e-22  -4.5682426360011541e-22  -1.0424286188888116e-21  -4.6627452193237378e-22  -7.7641158867497067e-23  -1.0919931303005914e-22  -1.1744111366217603e-22  -8.9848056492320466e-23  -3.8362062955490578e-23  -1.1050412786816544e-23  4.7603628310631944e-21  2.5713938924237539e-39  -4.8788459238483100e-25  -1.1781552875722143e-24  -9.9966030608305419e-25  -2.6627690519657829e-25  -1.7108733329489807e-25  -2.2040519077917891e-39  -2.4932531136457141e-20  4.0950685451875769e-04  2.1448190199356394e-04  1.1833091368968146e-04  3.2406638669979049e-04  2.2651673495463801e-04  4.1295629486696832e-04  2.2113857584352825e-04  6.4000614866398784e-04  8.8519607144895202e-05  5.9011970626126116e-06  4.1017344473244136e-04  6.5403380043728236e-04  1.7992319397756325e-04  4.7688131474389291e-04  1.4636227905002650e-04  6.7188116464936661e-05  6.8407592385562712e-04  1.4465034297173203e-04  6.1330679261106715e-04  9.1901506086166301e-05  3.2119799527961400e-04  1.1874717510674712e-04  5.7174305040918821e-04  2.5769832145691236e-04  8.2821093688293453e-04  6.2970183000009077e-04  7.6332930860902308e-04  3.5724570834245594e-04  5.8705406666282505e-04  6.4748845670047593e-04  9.1571301531777935e-04  5.7524019801992400e-04  4.8757048372277060e-04  2.8230105662779267e-04  5.4602239220757399e-04  1.0158721539090451e-03  1.3347285643303234e-03  1.4904604156940544e-03  1.5280515505733091e-03  1.4691545149736443e-03  1.1732796158318503e-03  4.6665241525182117e-04  4.0805348340610227e-04  3.1856962404366396e-04  7.1111105013361162e-04  6.1190415288140689e-04  5.3786794196723276e-04  3.6533585146983572e-04  1.8258303144397077e-04  1.6764078170575648e-04  4.0217565220208130e-04  3.5141066377158862e-06  1.4802284760930272e-04  1.3990984924231107e-04  7.2648668582576387e-05  5.6826239788574922e-05  2.8180805092623049e-05  1.1808222979477299e-05  4.2569974013849132e-06  3.4185218076131959e-07  9.3282627465442941e-07  1.2823303120646829e-06  1.5420170357021264e-06  1.8303838199974058e-06  2.7914952705262174e-06  4.0328011344670716e-06  6.8892640832808970e-06  3.0381964573221050e-07  2.6917291559267451e-06  1.2356140375859615e-05  9.6705847781613232e-06  1.4676296337804977e-05  1.5111497723277357e-05  7.5873302177597208e-06  2.1247053229877908e-05  1.1147690970190546e-05  6.3655634071524748e-06  8.6373313817306164e-06  3.8910915249099664e-07  4.0053598834967324e-06  2.6929484194073776e-06  1.2247958538308251e-05  2.1245907020382342e-05  1.6847976854474578e-06  8.2294143332931206e-06  1.6120422527608663e-05  3.3944378910364518e-07  1.3986587765770929e-06  1.2678305535966063e-06  1.4817157461095041e-06  8.7770082190035822e-07  5.5970416146702365e-07  2.1606483035831375e-07  9.4935019989186886e-08  1.5095259477755938e-08  8.7889474738566506e-09  1.6829285119450938e-08  9.5936365681654823e-09  6.1640708037977020e-09  -4.0452179477925627e-24  -1.5454368606824978e-20  4.4914455174220646e-04  1.3878069319981243e-04  8.8781506262375191e-05  5.1792470873223240e-05  4.3127516170668299e-04  4.8511236107845560e-04  5.7684157216616051e-04  6.9623003941874067e-04  6.3656853461110366e-05  4.1611272956316802e-04  3.7525795011959047e-04  4.3662884105942647e-04  9.6928642852561319e-04  6.1443443747796951e-04  4.5773568110150063e-04  1.1017362339909519e-03  9.5583243506453590e-05  5.4937290439845729e-04  7.5160970250976659e-04  3.6600229006887412e-04  1.3822868433895706e-03  9.1020042962001362e-04  1.5032162781914115e-03  8.1574159062773458e-04  1.0027261769545714e-03  9.2724998975995596e-05  4.0425380608450647e-04  1.5694502375661978e-03  1.0026652522711725e-03  2.5545406795806063e-04  1.5509184578086353e-03  2.0253864849726833e-04  1.1249669366934117e-03  4.7617373500073251e-04  2.8032514553154384e-04  1.3184058455092448e-03  1.7085028450232317e-03  2.0314707528795617e-03  2.1669352723913526e-03  2.1208064682199227e-03  1.8889088707315458e-03  1.3043602916694352e-03  3.0342032206713402e-04  9.7160947326853527e-04  8.2525167100827297e-04  6.6759116467927676e-04  9.7769719833041700e-04  7.3728589541022325e-04  8.8400396216483932e-05  3.7731234827614759e-04  4.1867344472198476e-04  4.2362602653957260e-04  3.6315307339892128e-04  2.0104092711861795e-04  1.0710302248828412e-04  6.3270779208011248e-05  6.5902087471951157e-05  2.6606981877569690e-05  1.1263084387274304e-05  3.0615021354739984e-06  2.1356178209571499e-08  6.9231947162663586e-07  8.4054220771187015e-07  1.3378684969375996e-06  1.6885502825523043e-06  2.2349102129242707e-06  4.7716636648409698e-06  4.7614228530931927e-06  1.1646585828011134e-05  4.9687334297485056e-06  8.1341471863989826e-06  3.8613642855355562e-05  7.3156121833471308e-06  1.4506552924158931e-05  2.5925183172040493e-05  2.3903299466279612e-05  5.9207771535520170e-06  1.1137978887471448e-05  9.8816356199727853e-06  9.2380358258792644e-06  5.4733977442202661e-06  1.4282909532414661e-05  1.0165437875478164e-05  3.4241247554354402e-05  9.9171378603603346e-06  1.2975462508095445e-05  1.4393776082066675e-05  1.7270330994723418e-06  2.0037702687393330e-06  1.8307717020173830e-06  1.3340262284926902e-06  8.0138255775472468e-07  3.5727634961612041e-07  1.1434706442317421e-07  3.9611395017395837e-09  3.1584822693068653e-08  4.1996393163694322e-08  3.2314839120593907e-08  1.0281213790747940e-08  -8.5121913386709645e-24  -1.8352148213421824e-20  2.7840115479577364e-04  4.3435015283996281e-04  2.1104243649867663e-06  4.3403065557196939e-04  5.9714915873731512e-04  4.9891866068701768e-04  7.4544023247676949e-04  1.3935074447853459e-04  1.3065690921618342e-03  4.8200794331139927e-04  1.3291923736541804e-05  1.0053106422428760e-03  9.8671058263302171e-04  2.3007310137776644e-05  1.1068173378939209e-03  3.6840076098264312e-04  4.7336829921621842e-04  1.2423942211890525e-03  7.2158475505291629e-04  1.6299067426884595e-03  5.9394887511161171e-04  1.1429869368811383e-03  4.8689981480125024e-04  1.6735249911430030e-03  1.4176826834077689e-03  2.1734619000562359e-03  1.7748755575505172e-03  1.6045847929365277e-03  8.4129101259878148e-04  1.9171029404006054e-03  1.4433840521682181e-03  1.9096091947460323e-03  1.8475262417365580e-03  9.6014156014707984e-04  2.0128627144437672e-04  1.3394090521988583e-03  1.8742405400054300e-03  2.1815443984145198e-03  2.4103174042317647e-03  2.4826704032133240e-03  2.3627802308823589e-03  1.7751581634170743e-03  5.6250889497585707e-04  1.0055260829648042e-03  5.8556638879621878e-04  2.0116579634513829e-03  1.4475338338824869e-03  1.0159158976149668e-03  7.8360623780154327e-04  6.6321364490914731e-04  6.1153046774929925e-04  1.0007125784959367e-03  1.3718664955231149e-04  4.4652888809041178e-04  1.5866673701386093e-04  8.2180265980311268e-06  7.3248152362458087e-05  5.5262126537284876e-05  2.2591411926850876e-05  9.3204001877001884e-06  2.1476939110463444e-06  4.0565288049430328e-07  1.6032416335634638e-06  2.3239594969373243e-06  2.5100514502913482e-06  3.0098089814247204e-06  4.3837960015074867e-06  9.8332591498187229e-06  2.7656965241344751e-06  9.5098315207848632e-06  1.9854594452220077e-05  1.7242510645536312e-05  4.3111926872163209e-05  1.5094477385783329e-05  7.9486169993785932e-06  3.8527672519069404e-05  1.1288522754941088e-05  1.7708562184464837e-05  1.2841089052894781e-05  1.8601998048194000e-05  1.2394394712308931e-05  3.6803614275817336e-06  1.8075733414892117e-05  4.2008747848629718e-05  2.5146773916102471e-05  6.4340224420028321e-06  1.0025933463537453e-05  6.4095035555014525e-06  1.8333423926998668e-06  2.0915476201078152e-06  1.5057661543039185e-06  8.5211059686753503e-07  4.3868562748473127e-07  1.0929456745758437e-07  2.4949594340391647e-09  4.7013625242134012e-08  4.8583874178281370e-08  3.9405093182584875e-08  2.0869039901384516e-08  -2.8961610750422816e-24  -1.9347046141479727e-20  3.3060291142165905e-04  4.4941849914057738e-04  8.7758244512033717e-05  1.4172927665781235e-04  5.1180828825257328e-04  7.7536933009290303e-04  1.0803658484831139e-03  9.3972979586794982e-04  5.6374637932601955e-04  9.8051776566975479e-05  3.9675070557806935e-04  2.1745555848914661e-04  7.3795104955303218e-04  1.5087184827688338e-03  2.1462782279061123e-04  5.1714192443005555e-04  1.4698830206167622e-03  4.6133032627517190e-04  1.2323753624035383e-03  3.7662319736280966e-04  1.9772903043668906e-04  1.6972347251069800e-03  1.3489896094147271e-03  2.0342880069288568e-03  9.4050558480464818e-04  9.2298400819362900e-04  6.8811972707843137e-04  1.4637152193882998e-03  2.9197838315762406e-03  1.5344293783096715e-03  9.7842728471908753e-04  2.8052240714192848e-03  5.1665226456174506e-04  2.4480418585857157e-03  5.5410869581164755e-04  5.4324177088424367e-04  2.1508571546374165e-03  2.2907998115861516e-03  2.5493050245364228e-03  2.6900928387356329e-03  2.6302284222712684e-03  2.3536366529229307e-03  1.5219573627033567e-03  7.3664105133426324e-04  1.6038994151480355e-03  1.3645337289086834e-03  1.5988763095566108e-03  2.3420988496622554e-03  1.7513997819399295e-03  6.7533254379959406e-04  2.4291415004531295e-04  4.3183677666004439e-04  8.3225995380790821e-04  7.2526204084051723e-04  3.2775016906097125e-04  4.3927688955446392e-05  2.0337096528174033e-05  7.8374257405779734e-05  3.7198434166654707e-05  1.6669066163651654e-05  6.2715275222754760e-06  1.7414266941421254e-06  3.8832369764952598e-07  1.0545356032320812e-06  1.6262120270475178e-06  2.4299309002941590e-06  3.6004208691996517e-06  7.8135789231450568e-06  7.6998020593258158e-06  1.5283602896205832e-05  5.8992947296858310e-06  1.3072672095113224e-05  4.3880004176710118e-05  1.6443605965446371e-05  1.1905581040513826e-05  3.2055511221800268e-05  3.9221408377602780e-05  1.0598879432171663e-05  1.8174017861967137e-05  8.2381793688744420e-06  2.8709419099999956e-05  1.2689010715553049e-06  1.2177063935629664e-05  8.9445516395031447e-06  5.0023242058841028e-05  2.0596035000647357e-05  3.4777968288129552e-08  6.5059756705385110e-07  4.5640078106618447e-07  2.4024187775088223e-06  2.5577311908239813e-06  1.2821752970875227e-06  7.4513060109402776e-07  2.2817172386799848e-07  7.4897418035978207e-08  1.5142500295875886e-08  2.2296579157624529e-08  2.4542746186021338e-08  1.4720312058845213e-08  3.6771366099143996e-24  -1.4675619366247953e-20  3.4852539917395130e-04  5.3745719744065863e-04  7.7924187766516837e-04  1.7201338050705831e-04  4.9285188468773040e-04  4.7386060100688775e-04  4.1949919947125076e-04  1.1706345308467366e-03  3.4659804352534808e-04  1.6230038311946004e-03  9.3995381279913333e-04  2.4532044820609983e-04  1.2381693527364185e-03  1.0224868909560116e-03  2.4724164439714072e-04  1.2490789373196065e-03  9.7401591522335213e-04  1.1247718091270905e-03  1.0602740255327154e-03  7.1849966865946183e-04  2.0353421255642802e-03  1.1777072569197913e-03  1.9561732958023681e-03  1.2538926528961399e-03  2.6528941438510433e-03  2.3499613573064403e-03  3.0424809998952436e-03  2.2436547863798006e-03  1.5778976226972141e-03  1.7298149278554204e-03  3.0665453730147128e-03  1.6701607566648733e-03  3.1435192173052949e-03  2.4421866415355151e-03  1.7318781649630576e-03  7.3480591995450078e-05  1.7754344280056177e-03  2.5793392950622723e-03  2.6479306320926189e-03  2.8364091977312114e-03  2.9165108493217208e-03  2.7660618797235204e-03  2.0457433538764573e-03  5.5867636807339655e-04  1.6398578724677853e-03  1.0220219092858058e-03  3.0965049751888528e-03  1.5134224039375908e-03  5.1464997019386042e-04  4.3231267542131454e-04  6.6035592127159954e-04  9.4819709747941854e-04  1.3782703666568470e-03  4.3017846192604903e-05  8.0526038780558324e-04  1.8294514447451330e-04  8.5179111010438518e-05  3.0259159086967588e-05  6.7520714687368752e-05  2.4326734734476243e-05  1.0120735870324016e-05  2.6198803208508254e-06  1.0820157697773152e-07  8.9112434098008670e-07  1.5713685979130109e-06  2.2152870971322391e-06  3.2346055848211093e-06  4.9915875370287718e-06  1.2093045964180744e-05  6.1551012053024151e-06  1.3996057568095179e-05  2.0259549854349613e-05  1.7136834541712218e-05  4.0813954173731926e-05  1.0516884872187043e-05  1.3648120542653677e-05  4.6091502528127221e-05  2.7483069383527892e-05  1.8899419306086143e-05  1.8828185529858912e-05  1.3228551794453768e-05  2.1612653326283585e-05  4.6675862686445317e-06  1.3215629044218530e-05  3.5846661784139494e-05  4.1230184829501656e-05  2.4250543250148686e-05  6.7324975379659640e-07  4.9307732672428901e-06  2.0187911956870326e-06  3.0644264657749352e-06  2.2884673772681159e-06  1.2632860027944503e-06  5.8365408860094893e-07  2.2929820865688750e-07  7.7538261755779834e-08  2.9844148493992328e-08  9.5579804520169259e-09  4.3498533602075408e-09  -1.7632415262334313e-38  -6.2786168785197772e-21  2.6437245563706212e-04  5.3229437958482819e-04  4.3068171151496254e-04  5.7793719144974564e-04  1.7600312742568758e-04  5.8568016446740605e-04  1.0449662655904323e-03  1.3496845081920523e-03  1.2053441419643783e-03  4.8601032488888065e-04  4.8648526951024858e-04  1.5960851902240265e-05  2.0248474597123626e-04  1.1983554322785510e-03  1.7411257293332943e-03  5.4457165541140017e-05  2.4152458675739290e-04  1.1345330574622241e-03  2.0789282122026868e-04  1.5637700920495641e-03  3.8556148353774301e-05  3.3149075332607338e-04  1.3022730998604759e-03  1.0767185326997881e-03  1.8347070505738408e-03  4.3294572376330483e-04  3.2682669381139598e-04  1.4807618944814955e-03  2.2999855130422810e-03  3.7890373969975640e-03  1.5262294343391764e-03  2.0031461042188071e-03  3.7088480536893870e-03  1.1377469026697851e-03  3.5622511272116043e-03  8.4287464598910213e-04  7.8353031452932538e-04  2.8295067762224694e-03  2.8962617420691720e-03  2.9858112405046111e-03  3.1107705318234161e-03  3.0566195187424899e-03  2.7440971343097313e-03  1.6523217043658241e-03  1.0246997946118616e-03  2.2894379169967911e-03  1.5765384604701795e-03  2.6154004363288549e-03  3.1282529272544262e-03  2.1072621326540769e-03  9.8813987860821230e-04  5.1389966055608751e-05  1.7795240029382385e-04  1.2552546104915878e-03  8.8022638110836287e-04  5.6532431902938220e-04  4.4912171898837009e-06  1.1943598724399486e-04  7.5787939001839159e-05  4.9862367361014382e-05  1.8431809465969511e-05  6.0723463907007955e-06  5.9531220798776457e-07  1.3667396049501193e-06  2.0670391663734918e-06  2.2677278094374293e-06  3.0063332788008152e-06  4.2322670073515445e-06  9.7907105941260870e-06  7.4251519119423320e-06  2.1585455255853700e-05  3.7769054863121079e-06  8.3975794529644989e-06  4.0366752367736301e-05  6.3234287488578470e-06  5.1271831234941773e-06  3.5591853971045651e-05  4.8640605572082119e-05  7.5548975780332009e-06  1.9130511649391778e-05  1.7249113632823827e-05  2.0797821184545301e-05  7.6623366281543072e-06  2.0692550984776401e-05  1.2674540596061325e-05  3.8600211136984181e-05  3.7510502806403336e-05  2.1819495509473750e-05  3.4133589974562763e-06  6.1592046257432100e-06  3.3075749814684868e-06  3.0667216035460431e-06  1.8149590148300918e-06  1.0554056820206405e-06  3.9293187021259491e-07  1.9413706092241858e-07  7.7336631257915257e-08  4.7428339290864495e-08  2.5069657453796123e-08  1.4693679385278594e-38  -1.9288587334322246e-20  1.1310550653801515e-04  3.9934157214499544e-04  6.8445190870211907e-04  6.9644920897473652e-04  9.5528408825343598e-05  6.1821879994898880e-04  2.4299891580481576e-04  1.1587843518857252e-04  1.5417772476911348e-03  5.6958632456088898e-04  1.5327848863065882e-03  8.9875206335723770e-04  2.0917924642490285e-04  1.1985981712611599e-03  1.3003119643797837e-03  5.9261821649914755e-04  9.4330330567067621e-04  9.5699102487290899e-04  1.3084479693322680e-03  9.1206244290445600e-04  2.7488388511039689e-04  1.7568175401928784e-03  9.3894661319429684e-04  2.0827306454322325e-03  1.3708774891621068e-03  2.9162157736191238e-03  2.4121237464026913e-03  3.0656036780651167e-03  2.0114163586082176e-03  1.1420336497658709e-03  2.6322702330187154e-03  3.6494467742737595e-03  1.4823757031009268e-03  4.3574961110795733e-03  2.6154279458776119e-03  2.8174884267812301e-03  4.2147325082139472e-05  2.1061723017014857e-03  3.4124626776550803e-03  3.2321056681664569e-03  3.3035410090708835e-03  3.3800015717001457e-03  3.2019639158614500e-03  2.3403569525883056e-03  5.2523074010393594e-04  2.2080522331639563e-03  1.4704536890656772e-03  3.7880538799847296e-03  1.1656875524165609e-03  2.5795289186242889e-04  1.8395140712123675e-04  2.0257970083228360e-04  8.1012760520339088e-04  1.4069209930728597e-03  2.2115626915753477e-04  1.0941318972919650e-03  2.8408714558252437e-04  1.5921467502497650e-04  5.2730136838263334e-05  7.9185149676042673e-05  3.3216535899485847e-05  1.3511049544359566e-05  4.7356878168188277e-06  3.6994085215752934e-08  2.2453913563079046e-06  2.9136802159657515e-06  3.0875568853417334e-06  4.1307864228165546e-06  6.1481992525653971e-06  1.4424646875057325e-05  1.0782941302254029e-05  1.8069272271017902e-05  1.6119736928390349e-05  2.0668908946146454e-05  2.7187735555437698e-05  1.5561910668194051e-05  1.9497473132417281e-05  4.6223924991863291e-05  3.3747205801132125e-05  2.6249221543221204e-06  2.2094241152336495e-05  2.6556086515659148e-06  1.0827218182501283e-05  1.3832083791228297e-05  1.4188838720002136e-05  3.1126486889816652e-05  3.4195302511351703e-05  3.5086361527045086e-05  1.2887116800384122e-05  5.2169618278540615e-06  5.7690018094956297e-06  4.2272730193735490e-06  2.5500377408078584e-06  1.6125579040602545e-06  6.4643502784983353e-07  3.2534598347210787e-07  1.2598531406929915e-07  8.3251349519266895e-08  3.8535763634817262e-08  -1.4326337400646629e-38  -4.3903976307417624e-21  3.4747229892542861e-04  5.1173036649294922e-04  5.8231310882659584e-04  4.8747742315529520e-04  8.0698996417670097e-04  5.4280168615686147e-05  4.9645049523421546e-04  9.1057467490155591e-04  1.3065699501093719e-03  1.5419820617948996e-03  6.4283461213673204e-04  5.2622586171301058e-04  3.2591071671887045e-04  3.5865302923530239e-04  1.3914454435960013e-03  1.8427948784769893e-03