<?xml version="1.0"?>
<VTKFile type="UnstructuredGrid"  version="0.1"  >
<UnstructuredGrid>
<Piece  NumberOfPoints="10201" NumberOfCells="20000">
<Points>
<DataArray  type="Float64"  NumberOfComponents="3"  format="ascii">0 0 0  0.01 0 0  0.02 0 0  0.03 0 0  0.04 0 0  0.05 0 0  0.06 0 0  0.07000000000000001 0 0  0.08 0 0  0.09 0 0  0.1 0 0  0.11 0 0  0.12 0 0  0.13 0 0  0.14 0 0  0.15 0 0  0.16 0 0  0.17 0 0  0.18 0 0  0.19 0 0  0.2 0 0  0.21 0 0  0.22 0 0  0.23 0 0  0.24 0 0  0.25 0 0  0.26 0 0  0.27 0 0  0.28 0 0  0.29 0 0  0.3 0 0  0.31 0 0  0.32 0 0  0.33 0 0  0.34 0 0  0.35 0 0  0.36 0 0  0.37 0 0  0.38 0 0  0.39 0 0  0.4 0 0  0.41 0 0  0.42 0 0  0.43 0 0  0.44 0 0  0.45 0 0  0.46 0 0  0.47 0 0  0.48 0 0  0.49 0 0  0.5 0 0  0.51 0 0  0.52 0 0  0.53 0 0  0.54 0 0  0.55 0 0  0.5600000000000001 0 0  0.57 0 0  0.58 0 0  0.59 0 0  0.6 0 0  0.61 0 0  0.62 0 0  0.63 0 0  0.64 0 0  0.65 0 0  0.66 0 0  0.67 0 0  0.68 0 0  0.6899999999999999 0 0  0.7 0 0  0.71 0 0  0.72 0 0  0.73 0 0  0.74 0 0  0.75 0 0  0.76 0 0  0.77 0 0  0.78 0 0  0.79 0 0  0.8 0 0  0.8100000000000001 0 0  0.82 0 0  0.83 0 0  0.84 0 0  0.85 0 0  0.86 0 0  0.87 0 0  0.88 0 0  0.89 0 0  0.9 0 0  0.91 0 0  0.92 0 0  0.93 0 0  0.9399999999999999 0 0  0.95 0 0  0.96 0 0  0.97 0 0  0.98 0 0  0.99 0 0  1 0 0  0 0.01 0  0.01 0.01 0  0.02 0.01 0  0.03 0.01 0  0.04 0.01 0  0.05 0.01 0  0.06 0.01 0  0.07000000000000001 0.01 0  0.08 0.01 0  0.09 0.01 0  0.1 0.01 0  0.11 0.01 0  0.12 0.01 0  0.13 0.01 0  0.14 0.01 0  0.15 0.01 0  0.16 0.01 0  0.17 0.01 0  0.18 0.01 0  0.19 0.01 0  0.2 0.01 0  0.21 0.01 0  0.22 0.01 0  0.23 0.01 0  0.24 0.01 0  0.25 0.01 0  0.26 0.01 0  0.27 0.01 0  0.28 0.01 0  0.29 0.01 0  0.3 0.01 0  0.31 0.01 0  0.32 0.01 0  0.33 0.01 0  0.34 0.01 0  0.35 0.01 0  0.36 0.01 0  0.37 0.01 0  0.38 0.01 0  0.39 0.01 0  0.4 0.01 0  0.41 0.01 0  0.42 0.01 0  0.43 0.01 0  0.44 0.01 0  0.45 0.01 0  0.46 0.01 0  0.47 0.01 0  0.48 0.01 0  0.49 0.01 0  0.5 0.01 0  0.51 0.01 0  0.52 0.01 0  0.53 0.01 0  0.54 0.01 0  0.55 0.01 0  0.5600000000000001 0.01 0  0.57 0.01 0  0.58 0.01 0  0.59 0.01 0  0.6 0.01 0  0.61 0.01 0  0.62 0.01 0  0.63 0.01 0  0.64 0.01 0  0.65 0.01 0  0.66 0.01 0  0.67 0.01 0  0.68 0.01 0  0.6899999999999999 0.01 0  0.7 0.01 0  0.71 0.01 0  0.72 0.01 0  0.73 0.01 0  0.74 0.01 0  0.75 0.01 0  0.76 0.01 0  0.77 0.01 0  0.78 0.01 0  0.79 0.01 0  0.8 0.01 0  0.8100000000000001 0.01 0  0.82 0.01 0  0.83 0.01 0  0.84 0.01 0  0.85 0.01 0  0.86 0.01 0  0.87 0.01 0  0.88 0.01 0  0.89 0.01 0  0.9 0.01 0  0.91 0.01 0  0.92 0.01 0  0.93 0.01 0  0.9399999999999999 0.01 0  0.95 0.01 0  0.96 0.01 0  0.97 0.01 0  0.98 0.01 0  0.99 0.01 0  1 0.01 0  0 0.02 0  0.01 0.02 0  0.02 0.02 0  0.03 0.02 0  0.04 0.02 0  0.05 0.02 0  0.06 0.02 0  0.07000000000000001 0.02 0  0.08 0.02 0  0.09 0.02 0  0.1 0.02 0  0.11 0.02 0  0.12 0.02 0  0.13 0.02 0  0.14 0.02 0  0.15 0.02 0  0.16 0.02 0  0.17 0.02 0  0.18 0.02 0  0.19 0.02 0  0.2 0.02 0  0.21 0.02 0  0.22 0.02 0  0.23 0.02 0  0.24 0.02 0  0.25 0.02 0  0.26 0.02 0  0.27 0.02 0  0.28 0.02 0  0.29 0.02 0  0.3 0.02 0  0.31 0.02 0  0.32 0.02 0  0.33 0.02 0  0.34 0.02 0  0.35 0.02 0  0.36 0.02 0  0.37 0.02 0  0.38 0.02 0  0.39 0.02 0  0.4 0.02 0  0.41 0.02 0  0.42 0.02 0  0.43 0.02 0  0.44 0.02 0  0.45 0.02 0  0.46 0.02 0  0.47 0.02 0  0.48 0.02 0  0.49 0.02 0  0.5 0.02 0  0.51 0.02 0  0.52 0.02 0  0.53 0.02 0  0.54 0.02 0  0.55 0.02 0  0.5600000000000001 0.02 0  0.57 0.02 0  0.58 0.02 0  0.59 0.02 0  0.6 0.02 0  0.61 0.02 0  0.62 0.02 0  0.63 0.02 0  0.64 0.02 0  0.65 0.02 0  0.66 0.02 0  0.67 0.02 0  0.68 0.02 0  0.6899999999999999 0.02 0  0.7 0.02 0  0.71 0.02 0  0.72 0.02 0  0.73 0.02 0  0.74 0.02 0  0.75 0.02 0  0.76 0.02 0  0.77 0.02 0  0.78 0.02 0  0.79 0.02 0  0.8 0.02 0  0.8100000000000001 0.02 0  0.82 0.02 0  0.83 0.02 0  0.84 0.02 0  0.85 0.02 0  0.86 0.02 0  0.87 0.02 0  0.88 0.02 0  0.89 0.02 0  0.9 0.02 0  0.91 0.02 0  0.92 0.02 0  0.93 0.02 0  0.9399999999999999 0.02 0  0.95 0.02 0  0.96 0.02 0  0.97 0.02 0  0.98 0.02 0  0.99 0.02 0  1 0.02 0  0 0.03 0  0.01 0.03 0  0.02 0.03 0  0.03 0.03 0  0.04 0.03 0  0.05 0.03 0  0.06 0.03 0  0.07000000000000001 0.03 0  0.08 0.03 0  0.09 0.03 0  0.1 0.03 0  0.11 0.03 0  0.12 0.03 0  0.13 0.03 0  0.14 0.03 0  0.15 0.03 0  0.16 0.03 0  0.17 0.03 0  0.18 0.03 0  0.19 0.03 0  0.2 0.03 0  0.21 0.03 0  0.22 0.03 0  0.23 0.03 0  0.24 0.03 0  0.25 0.03 0  0.26 0.03 0  0.27 0.03 0  0.28 0.03 0  0.29 0.03 0  0.3 0.03 0  0.31 0.03 0  0.32 0.03 0  0.33 0.03 0  0.34 0.03 0  0.35 0.03 0  0.36 0.03 0  0.37 0.03 0  0.38 0.03 0  0.39 0.03 0  0.4 0.03 0  0.41 0.03 0  0.42 0.03 0  0.43 0.03 0  0.44 0.03 0  0.45 0.03 0  0.46 0.03 0  0.47 0.03 0  0.48 0.03 0  0.49 0.03 0  0.5 0.03 0  0.51 0.03 0  0.52 0.03 0  0.53 0.03 0  0.54 0.03 0  0.55 0.03 0  0.5600000000000001 0.03 0  0.57 0.03 0  0.58 0.03 0  0.59 0.03 0  0.6 0.03 0  0.61 0.03 0  0.62 0.03 0  0.63 0.03 0  0.64 0.03 0  0.65 0.03 0  0.66 0.03 0  0.67 0.03 0  0.68 0.03 0  0.6899999999999999 0.03 0  0.7 0.03 0  0.71 0.03 0  0.72 0.03 0  0.73 0.03 0  0.74 0.03 0  0.75 0.03 0  0.76 0.03 0  0.77 0.03 0  0.78 0.03 0  0.79 0.03 0  0.8 0.03 0  0.8100000000000001 0.03 0  0.82 0.03 0  0.83 0.03 0  0.84 0.03 0  0.85 0.03 0  0.86 0.03 0  0.87 0.03 0  0.88 0.03 0  0.89 0.03 0  0.9 0.03 0  0.91 0.03 0  0.92 0.03 0  0.93 0.03 0  0.9399999999999999 0.03 0  0.95 0.03 0  0.96 0.03 0  0.97 0.03 0  0.98 0.03 0  0.99 0.03 0  1 0.03 0  0 0.04 0  0.01 0.04 0  0.02 0.04 0  0.03 0.04 0  0.04 0.04 0  0.05 0.04 0  0.06 0.04 0  0.07000000000000001 0.04 0  0.08 0.04 0  0.09 0.04 0  0.1 0.04 0  0.11 0.04 0  0.12 0.04 0  0.13 0.04 0  0.14 0.04 0  0.15 0.04 0  0.16 0.04 0  0.17 0.04 0  0.18 0.04 0  0.19 0.04 0  0.2 0.04 0  0.21 0.04 0  0.22 0.04 0  0.23 0.04 0  0.24 0.04 0  0.25 0.04 0  0.26 0.04 0  0.27 0.04 0  0.28 0.04 0  0.29 0.04 0  0.3 0.04 0  0.31 0.04 0  0.32 0.04 0  0.33 0.04 0  0.34 0.04 0  0.35 0.04 0  0.36 0.04 0  0.37 0.04 0  0.38 0.04 0  0.39 0.04 0  0.4 0.04 0  0.41 0.04 0  0.42 0.04 0  0.43 0.04 0  0.44 0.04 0  0.45 0.04 0  0.46 0.04 0  0.47 0.04 0  0.48 0.04 0  0.49 0.04 0  0.5 0.04 0  0.51 0.04 0  0.52 0.04 0  0.53 0.04 0  0.54 0.04 0  0.55 0.04 0  0.5600000000000001 0.04 0  0.57 0.04 0  0.58 0.04 0  0.59 0.04 0  0.6 0.04 0  0.61 0.04 0  0.62 0.04 0  0.63 0.04 0  0.64 0.04 0  0.65 0.04 0  0.66 0.04 0  0.67 0.04 0  0.68 0.04 0  0.6899999999999999 0.04 0  0.7 0.04 0  0.71 0.04 0  0.72 0.04 0  0.73 0.04 0  0.74 0.04 0  0.75 0.04 0  0.76 0.04 0  0.77 0.04 0  0.78 0.04 0  0.79 0.04 0  0.8 0.04 0  0.8100000000000001 0.04 0  0.82 0.04 0  0.83 0.04 0  0.84 0.04 0  0.85 0.04 0  0.86 0.04 0  0.87 0.04 0  0.88 0.04 0  0.89 0.04 0  0.9 0.04 0  0.91 0.04 0  0.92 0.04 0  0.93 0.04 0  0.9399999999999999 0.04 0  0.95 0.04 0  0.96 0.04 0  0.97 0.04 0  0.98 0.04 0  0.99 0.04 0  1 0.04 0  0 0.05 0  0.01 0.05 0  0.02 0.05 0  0.03 0.05 0  0.04 0.05 0  0.05 0.05 0  0.06 0.05 0  0.07000000000000001 0.05 0  0.08 0.05 0  0.09 0.05 0  0.1 0.05 0  0.11 0.05 0  0.12 0.05 0  0.13 0.05 0  0.14 0.05 0  0.15 0.05 0  0.16 0.05 0  0.17 0.05 0  0.18 0.05 0  0.19 0.05 0  0.2 0.05 0  0.21 0.05 0  0.22 0.05 0  0.23 0.05 0  0.24 0.05 0  0.25 0.05 0  0.26 0.05 0  0.27 0.05 0  0.28 0.05 0  0.29 0.05 0  0.3 0.05 0  0.31 0.05 0  0.32 0.05 0  0.33 0.05 0  0.34 0.05 0  0.35 0.05 0  0.36 0.05 0  0.37 0.05 0  0.38 0.05 0  0.39 0.05 0  0.4 0.05 0  0.41 0.05 0  0.42 0.05 0  0.43 0.05 0  0.44 0.05 0  0.45 0.05 0  0.46 0.05 0  0.47 0.05 0  0.48 0.05 0  0.49 0.05 0  0.5 0.05 0  0.51 0.05 0  0.52 0.05 0  0.53 0.05 0  0.54 0.05 0  0.55 0.05 0  0.5600000000000001 0.05 0  0.57 0.05 0  0.58 0.05 0  0.59 0.05 0  0.6 0.05 0  0.61 0.05 0  0.62 0.05 0  0.63 0.05 0  0.64 0.05 0  0.65 0.05 0  0.66 0.05 0  0.67 0.05 0  0.68 0.05 0  0.6899999999999999 0.05 0  0.7 0.05 0  0.71 0.05 0  0.72 0.05 0  0.73 0.05 0  0.74 0.05 0  0.75 0.05 0  0.76 0.05 0  0.77 0.05 0  0.78 0.05 0  0.79 0.05 0  0.8 0.05 0  0.8100000000000001 0.05 0  0.82 0.05 0  0.83 0.05 0  0.84 0.05 0  0.85 0.05 0  0.86 0.05 0  0.87 0.05 0  0.88 0.05 0  0.89 0.05 0  0.9 0.05 0  0.91 0.05 0  0.92 0.05 0  0.93 0.05 0  0.9399999999999999 0.05 0  0.95 0.05 0  0.96 0.05 0  0.97 0.05 0  0.98 0.05 0  0.99 0.05 0  1 0.05 0  0 0.06 0  0.01 0.06 0  0.02 0.06 0  0.03 0.06 0  0.04 0.06 0  0.05 0.06 0  0.06 0.06 0  0.07000000000000001 0.06 0  0.08 0.06 0  0.09 0.06 0  0.1 0.06 0  0.11 0.06 0  0.12 0.06 0  0.13 0.06 0  0.14 0.06 0  0.15 0.06 0  0.16 0.06 0  0.17 0.06 0  0.18 0.06 0  0.19 0.06 0  0.2 0.06 0  0.21 0.06 0  0.22 0.06 0  0.23 0.06 0  0.24 0.06 0  0.25 0.06 0  0.26 0.06 0  0.27 0.06 0  0.28 0.06 0  0.29 0.06 0  0.3 0.06 0  0.31 0.06 0  0.32 0.06 0  0.33 0.06 0  0.34 0.06 0  0.35 0.06 0  0.36 0.06 0  0.37 0.06 0  0.38 0.06 0  0.39 0.06 0  0.4 0.06 0  0.41 0.06 0  0.42 0.06 0  0.43 0.06 0  0.44 0.06 0  0.45 0.06 0  0.46 0.06 0  0.47 0.06 0  0.48 0.06 0  0.49 0.06 0  0.5 0.06 0  0.51 0.06 0  0.52 0.06 0  0.53 0.06 0  0.54 0.06 0  0.55 0.06 0  0.5600000000000001 0.06 0  0.57 0.06 0  0.58 0.06 0  0.59 0.06 0  0.6 0.06 0  0.61 0.06 0  0.62 0.06 0  0.63 0.06 0  0.64 0.06 0  0.65 0.06 0  0.66 0.06 0  0.67 0.06 0  0.68 0.06 0  0.6899999999999999 0.06 0  0.7 0.06 0  0.71 0.06 0  0.72 0.06 0  0.73 0.06 0  0.74 0.06 0  0.75 0.06 0  0.76 0.06 0  0.77 0.06 0  0.78 0.06 0  0.79 0.06 0  0.8 0.06 0  0.8100000000000001 0.06 0  0.82 0.06 0  0.83 0.06 0  0.84 0.06 0  0.85 0.06 0  0.86 0.06 0  0.87 0.06 0  0.88 0.06 0  0.89 0.06 0  0.9 0.06 0  0.91 0.06 0  0.92 0.06 0  0.93 0.06 0  0.9399999999999999 0.06 0  0.95 0.06 0  0.96 0.06 0  0.97 0.06 0  0.98 0.06 0  0.99 0.06 0  1 0.06 0  0 0.07000000000000001 0  0.01 0.07000000000000001 0  0.02 0.07000000000000001 0  0.03 0.07000000000000001 0  0.04 0.07000000000000001 0  0.05 0.07000000000000001 0  0.06 0.07000000000000001 0  0.07000000000000001 0.07000000000000001 0  0.08 0.07000000000000001 0  0.09 0.07000000000000001 0  0.1 0.07000000000000001 0  0.11 0.07000000000000001 0  0.12 0.07000000000000001 0  0.13 0.07000000000000001 0  0.14 0.07000000000000001 0  0.15 0.07000000000000001 0  0.16 0.07000000000000001 0  0.17 0.0700
[...]
<PointData  Scalars="u"> 
<DataArray  type="Float64"  Name="u"  format="ascii">0.0000000000000000e+00  0.0000000000000000e+00  0.0000000000000000e+00  0.0000000000000000e+00  0.0000000000000000e+00  0.0000000000000000e+00  0.0000000000000000e+00  0.0000000000000000e+00  0.0000000000000000e+00  0.0000000000000000e+00  0.0000000000000000e+00  0.0000000000000000e+00  0.0000000000000000e+00  0.0000000000000000e+00  0.0000000000000000e+00  0.0000000000000000e+00  0.0000000000000000e+00  0.0000000000000000e+00  0.0000000000000000e+00  0.0000000000000000e+00  0.0000000000000000e+00  0.0000000000000000e+00  0.0000000000000000e+00  0.0000000000000000e+00  0.0000000000000000e+00  0.0000000000000000e+00  0.0000000000000000e+00  0.0000000000000000e+00  0.0000000000000000e+00  0.0000000000000000e+00  0.0000000000000000e+00  0.0000000000000000e+00  0.0000000000000000e+00  0.0000000000000000e+00  0.0000000000000000e+00  0.0000000000000000e+00  0.0000000000000000e+00  0.0000000000000000e+00  0.0000000000000000e+00  0.0000000000000000e+00  0.0000000000000000e+00  0.0000000000000000e+00  0.0000000000000000e+00  0.0000000000000000e+00  0.0000000000000000e+00  0.0000000000000000e+00  0.0000000000000000e+00  0.0000000000000000e+00  0.0000000000000000e+00  0.0000000000000000e+00  0.0000000000000000e+00  0.0000000000000000e+00  0.0000000000000000e+00  0.0000000000000000e+00  0.0000000000000000e+00  0.0000000000000000e+00  0.0000000000000000e+00  0.0000000000000000e+00  0.0000000000000000e+00  0.0000000000000000e+00  0.0000000000000000e+00  0.0000000000000000e+00  0.0000000000000000e+00  0.0000000000000000e+00  0.0000000000000000e+00  0.0000000000000000e+00  0.0000000000000000e+00  0.0000000000000000e+00  0.0000000000000000e+00  0.0000000000000000e+00  0.0000000000000000e+00  0.0000000000000000e+00  0.0000000000000000e+00  0.0000000000000000e+00  0.0000000000000000e+00  0.0000000000000000e+00  0.0000000000000000e+00  0.0000000000000000e+00  0.0000000000000000e+00  0.0000000000000000e+00  0.0000000000000000e+00  0.0000000000000000e+00  0.0000000000000000e+00  0.0000000000000000e+00  0.0000000000000000e+00  0.0000000000000000e+00  0.0000000000000000e+00  0.0000000000000000e+00  0.0000000000000000e+00  0.0000000000000000e+00  0.0000000000000000e+00  0.0000000000000000e+00  0.0000000000000000e+00  0.0000000000000000e+00  0.0000000000000000e+00  0.0000000000000000e+00  0.0000000000000000e+00  0.0000000000000000e+00  0.0000000000000000e+00  0.0000000000000000e+00  0.0000000000000000e+00  0.0000000000000000e+00  4.6891857472819335e-08  9.5032741634988957e-08  1.4445219809255111e-07  1.9516818697143515e-07  2.4719582271095650e-07  3.0054747432222231e-07  3.5523235779337665e-07  4.1125608565112119e-07  4.6862018119689624e-07  5.2732155487586326e-07  5.8735194242470585e-07  6.4869730532522963e-07  7.1133719481862346e-07  7.7524408162556870e-07  8.4038265459451782e-07  9.0670909275983290e-07  9.7417031674055839e-07  1.0427032270389484e-06  1.1122339386199603e-06  1.1826770231303998e-06  1.2539347722526493e-06  1.3258964979192446e-06  1.3984378874088449e-06  1.4714204336160595e-06  1.5446909629602121e-06  1.6180812853489994e-06  1.6914079922282375e-06  1.7644724298674003e-06  1.8370608755076745e-06  1.9089449436500823e-06  1.9798822484286108e-06  2.0496173455313446e-06  2.1178829733710297e-06  2.1844016080534081e-06  2.2488873401241119e-06  2.3110480730923391e-06  2.3705880344669924e-06  2.4272105796807000e-06  2.4806212581462998e-06  2.5305310991902288e-06  2.5766600642358909e-06  2.6187406009581449e-06  2.6565212257942667e-06  2.6897700538281845e-06  2.7182781902246697e-06  2.7418628955941823e-06  2.7603704392702369e-06  2.7736785596698214e-06  2.7816984596611575e-06  2.7843762769362470e-06  2.7816939843210591e-06  2.7736696920869521e-06  2.7603573428456814e-06  2.7418458085924668e-06  2.7182574179712739e-06  2.6897459589423562e-06  2.6564942169420248e-06  2.6187111206608425e-06  2.5766285762865910e-06  2.5304980762097414e-06  2.4805871697627828e-06  2.4271758817427216e-06  2.3705531596115415e-06  2.3110134228888228e-06  2.2488532789204473e-06  2.1843684585527453e-06  2.1178510138906456e-06  2.0495868088256367e-06  1.9798533219062095e-06  1.9089177707857191e-06  1.8370355582253347e-06  1.7644490316743279e-06  1.6913865418801695e-06  1.6180617808474546e-06  1.5446733757053657e-06  1.4714047125630052e-06  1.3984239631037578e-06  1.3258842863206579e-06  1.2539241782658919e-06  1.1826679438114700e-06  1.1122262660193110e-06  1.0426968506781627e-06  9.7416512572509169e-07  9.0670497754300126e-07  8.4037950841410014e-07  7.7524180164221013e-07  7.1133568298397353e-07  6.4869646901419694e-07  5.8735169486087006e-07  5.2732181538045560e-07  4.6862087528691697e-07  4.1125714501453616e-07  3.5523372022565962e-07  3.0054908442916289e-07  2.4719763943412911e-07  1.9517019576883046e-07  1.4445403294588226e-07  9.5035032740718349e-08  4.6892407388445281e-08  0.0000000000000000e+00  0.0000000000000000e+00  9.5029234569535092e-08  1.9271581215580083e-07  2.9310948366498279e-07  3.9625757030781559e-07  5.0220123120035278e-07  6.1097581070054334e-07  7.2261056266935980e-07  8.3712776148003942e-07  9.5454166961017415e-07  1.0748574106332835e-06  1.1980697513412121e-06  1.3241617919936543e-06  1.4531035652417691e-06  1.5848505464282086e-06  1.7193420803409055e-06  1.8564997322589232e-06  1.9962255743327944e-06  2.1384004220407781e-06  2.2828820396408693e-06  2.4295033382100746e-06  2.5780705949646928e-06  2.7283617280411159e-06  2.8801246666672012e-06  3.0330758625227203e-06  3.1868989938872492e-06  3.3412439196273440e-06  3.4957259449144897e-06  3.6499254643888436e-06  3.8033880509173709e-06  3.9556250586818394e-06  4.1061148076073866e-06  4.2543044116678746e-06  4.3996123059584358e-06  4.5414315162713993e-06  4.6791337000599967e-06  4.8120739690586646e-06  4.9395964816535430e-06  5.0610407677683289e-06  5.1757487212678101e-06  5.2830721656816515e-06  5.3823808696643486e-06  5.4730708605467766e-06  5.5545728592175723e-06  5.6263606391295385e-06  5.6879590980514751e-06  5.7389518247271017e-06  5.7789879449131570e-06  5.8077880429686721e-06  5.8251489762925577e-06  5.8309474298872623e-06  5.8251420959707237e-06  5.8077744071427214e-06  5.7789677989220965e-06  5.7389255260742813e-06  5.6879271044411410e-06  5.6263234935318319e-06  5.5545311727305921e-06  5.4730252938992382e-06  5.3823321142226125e-06  5.2830209247821224e-06  5.1756956926143669e-06  5.0609866275060465e-06  4.9395418705879208e-06  4.8120194813269662e-06  4.6790798744095890e-06  4.5413788299560601e-06  4.3995611711400527e-06  4.2542551741151680e-06  4.1060677474109333e-06  3.9555803926625702e-06  3.8033459363861533e-06  3.6498860039176341e-06  3.4956891917958477e-06  3.3412098837326156e-06  3.1868676476701445e-06  3.0330471469592006e-06  2.8800984969620653e-06  2.7283379989805399e-06  2.5780491858214527e-06  2.4294841171519070e-06  2.2828648676136503e-06  2.1383851561238223e-06  1.9962120705809312e-06  1.8564878480595582e-06  1.7193316763222271e-06  1.5848414879613289e-06  1.4530957235825623e-06  1.3241550451092076e-06  1.1980639844683984e-06  1.0748525166134765e-06  9.5453754903458507e-07  8.3712432264974947e-07  7.2260772139902761e-07  6.1097349058170298e-07  5.0219936983262288e-07  3.9625617344470740e-07  2.9310879717984890e-07  1.9271384700490717e-07  9.5033607651565251e-08  0.0000000000000000e+00  0.0000000000000000e+00  1.4444938032969895e-07  2.9311233907661818e-07  4.4607502685688737e-07  6.0342665020404920e-07  7.6524418382035180e-07  9.3159821962024072e-07  1.1025509039338762e-06  1.2781543856033593e-06  1.4584492023961332e-06  1.6434624846782427e-06  1.8332059917043190e-06  2.0276739791267261e-06  2.2268408966402025e-06  2.4306589176310762e-06  2.6390553057069873e-06  2.8519296272213642e-06  3.0691508241447534e-06  3.2905541678053426e-06  3.5159381211598497e-06  3.7450611453815023e-06  3.9776384956257619e-06  4.2133390607972365e-06  4.4517823128253621e-06  4.6925354421697234e-06  4.9351107676558027e-06  5.1789635199210079e-06  5.4234901081363858e-06  5.6680269886488305e-06  5.9118502609854098e-06  6.1541761203993397e-06  6.3941622959329854e-06  6.6309105978213116e-06  6.8634706871253029e-06  7.0908451628921435e-06  7.3119960373788520e-06  7.5258526376024389e-06  7.7313209318424308e-06  7.9272942333290723e-06  8.1126651813825735e-06  8.2863388445012127e-06  8.4472467327352719e-06  8.5943614509844005e-06  8.7267116739686196e-06  8.8433970809467468e-06  8.9436028572970171e-06  9.0266133537945370e-06  9.0918244952969193e-06  9.1387545499791199e-06  9.1670529085927940e-06  9.1765065794359022e-06  9.1670441765452519e-06  9.1387372625613255e-06  9.0917989993395029e-06  9.0265801536124620e-06  8.9435625966123909e-06  8.8433505204214006e-06  8.7266596655715816e-06  8.5943049105328738e-06  8.4471866119548492e-06  8.2862761038763191e-06  8.1126007649039627e-06  7.9272290460461953e-06  7.7312558208655502e-06  7.5257883769605796e-06  7.3119333168781940e-06  7.0907845809125547e-06  6.8634127471019633e-06  6.6308557080237425e-06  6.3941107720622883e-06  6.1541281904744105e-06  5.9118060719737884e-06  5.6679866143285782e-06  5.4234535577027602e-06  5.1789307469275282e-06  4.9350816789318008e-06  4.6925099064372584e-06  4.4517601688008330e-06  4.2133201246268202e-06  3.9776225675649177e-06  3.7450480156648776e-06  3.5159275750604081e-06  3.2905459898975559e-06  3.0691448018193682e-06  2.8519255535075341e-06  2.6390529814706325e-06  2.4306581532195010e-06  2.2268415130474310e-06  2.0276758087463529e-06  1.8332088787345981e-06  1.6434662852351334e-06  1.4584537843950392e-06  1.2781596285805462e-06  1.1025566996474455e-06  9.3160447602823843e-07  7.6525084996933488e-07  6.0343387525338300e-07  4.4608357957437690e-07  2.9312014579868549e-07  1.4445442664280358e-07  0.0000000000000000e+00  0.0000000000000000e+00  1.9516614869046118e-07  3.9625923932367820e-07  6.0341607996494396e-07  8.1677363179859994e-07  1.0364685097325706e-06  1.2626204356984448e-06  1.4953397557744141e-06  1.7347240787957417e-06  1.9808563681240434e-06  2.2338024420127037e-06  2.4936081413604112e-06  2.7602962590000518e-06  3.0338631963880328e-06  3.3142753433301461e-06  3.6014651816520349e-06  3.8953271195788043e-06  4.1957130712814614e-06  4.5024278050752651e-06  4.8152240943896652e-06  5.1337977179990660e-06  5.4577823701580554e-06  5.7867445571443985e-06  6.1201785741561343e-06  6.4575016752416482e-06  6.7980495685440613e-06  7.1410723890033617e-06  7.4857313199591852e-06  7.8310960528239097e-06  8.1761432888505785e-06  8.5197564976190839e-06  8.8607271515005131e-06  9.1977576523161775e-06  9.5294661540419347e-06  9.8543934618989120e-06  1.0171012152396175e-05  1.0477738009810271e-05  1.0772943812091626e-05  1.1054975423835881e-05  1.1322170067508976e-05  1.1572876549287864e-05  1.1805477116604281e-05  1.2018410525874024e-05  1.2210195806667258e-05  1.2379456129215227e-05  1.2524942121996928e-05  1.2645553951109089e-05  1.2740361467999387e-05  1.2808621759996059e-05  1.2849793499907935e-05  1.2863547585329987e-05  1.2849773681204675e-05  1.2808582424415779e-05  1.2740303208604810e-05  1.2645477631651220e-05  1.2524848847616047e-05  1.2379347210067898e-05  1.2210072716488430e-05  1.2018274857645467e-05  1.1805330537500427e-05  1.1572720756931132e-05  1.1322006749286274e-05  1.1054806220672599e-05  1.0772770287674614e-05  1.0477561625827758e-05  1.0170834249994097e-05  9.8542152491872156e-06  9.5292886992257582e-06  9.1975818818263328e-06  8.8605538523617307e-06  8.5195863232458794e-06  8.1759767674465958e-06  7.8309335976271674e-06  7.4855732406174551e-06  7.1409189034946623e-06  6.7979008151403083e-06  6.4573577241214329e-06  6.1200394383807845e-06  5.7866102027944798e-06  5.4576527255064620e-06  5.1336726816621409e-06  4.8151035424480366e-06  4.5023115971934129e-06  4.1956010558831769e-06  3.8952191381541847e-06  3.6013610722809360e-06  3.3141749435122578e-06  3.0337663452692212e-06  2.7602027990885013e-06  2.4935179198363263e-06  2.2337153117136482e-06  1.9807721880342020e-06  1.7346427138509603e-06  1.4952610752806646e-06  1.2625442831676069e-06  1.0363947288430876e-06  8.1670260523304997e-07  6.0334904767179300e-07  3.9621213650270378e-07  1.9510798672192537e-07  0.0000000000000000e+00  0.0000000000000000e+00  2.4719456115083063e-07  5.0220370400079158e-07  7.6523626225528888e-07  1.0365460410918594e-06  1.3162898372294380e-06  1.6046476135532642e-06  1.9017945486695983e-06  2.2078924318602384e-06  2.5230859733639767e-06  2.8474998054259863e-06  3.1812346121005796e-06  3.5243630707066967e-06  3.8769253407955394e-06  4.2389241209883710e-06  4.6103192766730208e-06  4.9910220373085736e-06  5.3808887727479470e-06  5.7797143701491449e-06  6.1872252475686747e-06  6.6030720577162884e-06  7.0268221557028343e-06  7.4579519279784368e-06  7.8958391059556358e-06  8.3397552167778993e-06  8.7888583548478378e-06  9.2421864902581258e-06  9.6986515631057687e-06  1.0157034644287647e-05  1.0615982471895787e-05  1.1074005695505612e-05  1.1529479175740542e-05  1.1980644690818324e-05  1.2425616391530853e-05  1.2862389319877743e-05  1.3288851259051446e-05  1.3702798114700892e-05  1.4101952935425047e-05  1.4483988566673212e-05  1.4846553797277586e-05  1.5187302706571203e-05  1.5503926757875581e-05  1.5794189019504057e-05  1.6055959737053181e-05  1.6287252341533857e-05  1.6486258868268812e-05  1.6651383692137975e-05  1.6781274464709770e-05  1.6874849174320638e-05  1.6931318343500094e-05  1.6950201527733268e-05  1.6931337478732169e-05  1.6874887573643361e-05  1.6781332374771014e-05  1.6651461456104367e-05  1.6486356895994618e-05  1.6287371073418752e-05  1.6056099604248474e-05  1.5794350403229969e-05  1.5504109950553530e-05  1.5187507877149277e-05  1.4846780962640321e-05  1.4484237570445269e-05  1.4102223434865555e-05  1.3703089575807635e-05  1.3289162959467207e-05  1.2862720358742430e-05  1.2425965705196862e-05  1.1981011073079861e-05  1.1529861301282778e-05  1.1074402145120321e-05  1.0616391758456816e-05  1.0157455238202322e-05  9.6990819165783940e-06  9.2426250596101676e-06  8.7893036204644517e-06  8.3402057003959338e-06  7.8962933851747651e-06  7.4584086479986283e-06  7.0272800383928347e-06  6.6035299081983497e-06  6.1876819585445846e-06  5.7801689242324941e-06  5.3813402430704664e-06  4.9914695866745431e-06  4.6107621555205975e-06  4.2393616643994661e-06  3.8773569647617118e-06  3.5247882678282153e-06  3.1816529469141723e-06  2.8479109094099431e-06  2.5234895385179979e-06  2.2082882124870657e-06  1.9021824150591551e-06  1.6050274558503059e-06  1.3166618287289536e-06  1.0369103143193616e-06  7.6558772269893989e-07  5.0250954619149738e-07  2.4749967479874015e-07  0.0000000000000000e+00  0.0000000000000000e+00  3.0054708137876171e-07  6.1097773346685975e-07  9.3159806268043423e-07  1.2627839262055083e-06  1.6046550222995070e-06  1.9575475829097298e-06  2.3217211608834573e-06  2.6974263455276532e-06  3.0848907644673117e-06  3.4843218286632109e-06  3.8959000904318923e-06  4.3197741486188299e-06  4.7560548651102449e-06  5.2048089214781723e-06  5.6660517590657254e-06  6.1397398735128598e-06  6.6257624582288320e-06  7.1239324092548398e-06  7.6339767221960230e-06  8.1555263346960647e-06  8.6881054954592147e-06  9.2311207732882753e-06  9.7838498570753649e-06  1.0345430340037804e-05  1.0914848728282452e-05  1.1490929964125855e-05  1.2072327807130769e-05  1.2657516468514397e-05  1.3244783945010582e-05  1.3832227542431714e-05  1.4417752114206562e-05  1.4999071559907232e-05  1.5573714129427117e-05  1.6139032053091263e-05  1.6692215965169439e-05  1.7230314496588114e-05  1.7750259288843920e-05  1.8248895515137836e-05  1.8723017794125538e-05  1.9169411149496267e-05  1.9584896413997567e-05  1.9966379210667728e-05  2.0310901385518127e-05  2.0615693529348105e-05  2.0878227034493140e-05  2.1096264001755243e-05  2.1267903260978974e-05  2.1391620807878397e-05  2.1466303094504838e-05  2.1491271839759888e-05  2.1466299339771050e-05  2.1391613637736912e-05  2.1267893335377042e-05  2.1096252265293398e-05  2.0878214665916999e-05  2.0615681880264141e-05  2.0310891912645188e-05  1.9966373406129379e-05  1.9584895738115409e-05  1.9169416969819240e-05  1.8723031333569132e-05  1.8248917811367325e-05  1.7750291165695562e-05  1.7230356547884580e-05  1.6692268549994913e-05  1.6139095301272193e-05  1.5573787955559712e-05  1.4999155683999907e-05  1.4417846086583634e-05  1.3832330771735222e-05  1.3244895726886925e-05  1.2657636014073821e-05  1.2072454269934217e-05  1.1491062464921804e-05  1.0914986376872131e-05  1.0345572254107434e-05  9.7839951778254747e-06  9.2312686779568362e-06  8.6882552069188341e-06  8.1556771283868854e-06  7.6341279307020139e-06  7.1240834248518137e-06  6.6259127337339751e-06  6.1398889217471536e-06  5.6661991512244485e-06  5.2049542846678947e-06  4.7561978792887839e-06  4.3199145432719813e-06  3.8960376418520128e-06  3.4844563561468449e-06  3.0850221092294944e-06  2.6975543825836223e-06  2.3218459524990902e-06  1.9576675814601663e-06  1.6047722123509722e-06  1.2628988101264632e-06  9.3177696269973189e-07  6.1114242481325826e-07  3.0082190032579743e-07  0.0000000000000000e+00  0.0000000000000000e+00  3.5523292104484197e-07  7.2261208438519318e-07  1.1025636183006499e-06  1.4955275258937408e-06  1.9013793758149272e-06  2.3208791592427656e-06  2.7544372445556344e-06  3.2024195911559659e-06  3.6651602623903764e-06  4.1429797372510441e-06  4.6361683645338228e-06  5.1449820788900354e-06  5.6696354135590031e-06  6.2102933329711983e-06  6.7670622961806692e-06  7.3399803953918825e-06  7.9290065321091938e-06  8.5340086275110370e-06  9.1547508808823039e-06  9.7908801175574378e-06  1.0441911303367580e-05  1.1107212345555216e-05  1.1785988351042418e-05  1.2477265572141312e-05  1.3179875336959285e-05  1.3892438336286451e-05  1.4613349718957227e-05  1.5340765531235468e-05  1.6072591119362231e-05  1.6806472193195970e-05  1.7539789316199741e-05  1.8269656637934508e-05  1.8992925711231635e-05  1.9706195218101159e-05  2.0405827386628745e-05  2.1087971760785738e-05  2.1748596830609439e-05  2.2383529795157650e-05  2.2988504447538151e-05  2.3559216818207803e-05  2.4091387827794846e-05  2.4580831783031119e-05  2.5023529126699664e-05  2.5415701468302559e-05  2.5753886586741145e-05  2.6035010862361179e-05  2.6256456480425844e-05  2.6416120778002246e-05  2.6512465296771408e-05  2.6544552445015348e-05  2.6512068158493711e-05  2.6415329545773313e-05  2.6255277173020723e-05  2.6033452336931634e-05  2.5751960343225940e-05  2.5413421404256219e-05  2.5020911253040420e-05  2.4577893913828259e-05  2.4088149256163012e-05  2.3555697989450916e-05  2.2984726640214611e-05  2.2379514816966859e-05  2.1744366737317110e-05  2.1083548601301229e-05  2.0401232976563338e-05  1.9701450944488636e-05  1.8988052366160987e-05  1.8264674281359571e-05  1.7534717164482255e-05  1.6801328533886518e-05  1.6067393246083646e-05  1.5335529699776153e-05  1.4608091120334690e-05  1.3887171084695806e-05  1.3174612470869922e-05  1.2472019066436386e-05  1.1780769138423074e-05  1.1102030345651166e-05  1.0436775458111405e-05  9.7857984315136877e-06  9.1497304653885007e-06  8.5290557475855715e-06  7.9241266552190909e-06  7.3351782412758005e-06  6.7623418870330703e-06  6.2056580433207545e-06  5.6650880190208692e-06  5.1405248036815418e-06  4.6318029335094994e-06  4.1387074270909627e-06  3.6609818297575302e-06  3.1983354143126639e-06  2.7504495916497225e-06  2.3169835892491514e-06  1.8975794686211973e-06  1.4918666666427697e-06  1.0994673927350957e-06  7.2001580232624769e-07  3.5330720053406786e-07  0.0000000000000000e+00  0.0000000000000000e+00  4.1125768555010508e-07  8.3712902987478572e-07  1.2781791799352153e-06  1.7349372412279255e-06  2.2070385326497092e-06  2.6957883485239985e-06  3.2017187108588868e-06  3.7253186098316053e-06  4.2670585543612498e-06  4.8274080494144071e-06  5.4068018065162730e-06  6.0056409270156054e-06  6.6242837438842459e-06  7.2630356057476294e-06  7.9221379683954174e-06  8.6017561522642986e-06  9.3019657207175726e-06  1.0022737460678251e-05  1.0763920943628048e-05  1.1525226677340646e-05  1.2306206903063308e-05  1