<?xml version="1.0"?>
<VTKFile type="UnstructuredGrid"  version="0.1"  >
<UnstructuredGrid>
<Piece  NumberOfPoints="10201" NumberOfCells="20000">
<Points>
<DataArray  type="Float64"  NumberOfComponents="3"  format="ascii">0 0 0  0.01 0 0  0.02 0 0  0.03 0 0  0.04 0 0  0.05 0 0  0.06 0 0  0.07000000000000001 0 0  0.08 0 0  0.09 0 0  0.1 0 0  0.11 0 0  0.12 0 0  0.13 0 0  0.14 0 0  0.15 0 0  0.16 0 0  0.17 0 0  0.18 0 0  0.19 0 0  0.2 0 0  0.21 0 0  0.22 0 0  0.23 0 0  0.24 0 0  0.25 0 0  0.26 0 0  0.27 0 0  0.28 0 0  0.29 0 0  0.3 0 0  0.31 0 0  0.32 0 0  0.33 0 0  0.34 0 0  0.35 0 0  0.36 0 0  0.37 0 0  0.38 0 0  0.39 0 0  0.4 0 0  0.41 0 0  0.42 0 0  0.43 0 0  0.44 0 0  0.45 0 0  0.46 0 0  0.47 0 0  0.48 0 0  0.49 0 0  0.5 0 0  0.51 0 0  0.52 0 0  0.53 0 0  0.54 0 0  0.55 0 0  0.5600000000000001 0 0  0.57 0 0  0.58 0 0  0.59 0 0  0.6 0 0  0.61 0 0  0.62 0 0  0.63 0 0  0.64 0 0  0.65 0 0  0.66 0 0  0.67 0 0  0.68 0 0  0.6899999999999999 0 0  0.7 0 0  0.71 0 0  0.72 0 0  0.73 0 0  0.74 0 0  0.75 0 0  0.76 0 0  0.77 0 0  0.78 0 0  0.79 0 0  0.8 0 0  0.8100000000000001 0 0  0.82 0 0  0.83 0 0  0.84 0 0  0.85 0 0  0.86 0 0  0.87 0 0  0.88 0 0  0.89 0 0  0.9 0 0  0.91 0 0  0.92 0 0  0.93 0 0  0.9399999999999999 0 0  0.95 0 0  0.96 0 0  0.97 0 0  0.98 0 0  0.99 0 0  1 0 0  0 0.01 0  0.01 0.01 0  0.02 0.01 0  0.03 0.01 0  0.04 0.01 0  0.05 0.01 0  0.06 0.01 0  0.07000000000000001 0.01 0  0.08 0.01 0  0.09 0.01 0  0.1 0.01 0  0.11 0.01 0  0.12 0.01 0  0.13 0.01 0  0.14 0.01 0  0.15 0.01 0  0.16 0.01 0  0.17 0.01 0  0.18 0.01 0  0.19 0.01 0  0.2 0.01 0  0.21 0.01 0  0.22 0.01 0  0.23 0.01 0  0.24 0.01 0  0.25 0.01 0  0.26 0.01 0  0.27 0.01 0  0.28 0.01 0  0.29 0.01 0  0.3 0.01 0  0.31 0.01 0  0.32 0.01 0  0.33 0.01 0  0.34 0.01 0  0.35 0.01 0  0.36 0.01 0  0.37 0.01 0  0.38 0.01 0  0.39 0.01 0  0.4 0.01 0  0.41 0.01 0  0.42 0.01 0  0.43 0.01 0  0.44 0.01 0  0.45 0.01 0  0.46 0.01 0  0.47 0.01 0  0.48 0.01 0  0.49 0.01 0  0.5 0.01 0  0.51 0.01 0  0.52 0.01 0  0.53 0.01 0  0.54 0.01 0  0.55 0.01 0  0.5600000000000001 0.01 0  0.57 0.01 0  0.58 0.01 0  0.59 0.01 0  0.6 0.01 0  0.61 0.01 0  0.62 0.01 0  0.63 0.01 0  0.64 0.01 0  0.65 0.01 0  0.66 0.01 0  0.67 0.01 0  0.68 0.01 0  0.6899999999999999 0.01 0  0.7 0.01 0  0.71 0.01 0  0.72 0.01 0  0.73 0.01 0  0.74 0.01 0  0.75 0.01 0  0.76 0.01 0  0.77 0.01 0  0.78 0.01 0  0.79 0.01 0  0.8 0.01 0  0.8100000000000001 0.01 0  0.82 0.01 0  0.83 0.01 0  0.84 0.01 0  0.85 0.01 0  0.86 0.01 0  0.87 0.01 0  0.88 0.01 0  0.89 0.01 0  0.9 0.01 0  0.91 0.01 0  0.92 0.01 0  0.93 0.01 0  0.9399999999999999 0.01 0  0.95 0.01 0  0.96 0.01 0  0.97 0.01 0  0.98 0.01 0  0.99 0.01 0  1 0.01 0  0 0.02 0  0.01 0.02 0  0.02 0.02 0  0.03 0.02 0  0.04 0.02 0  0.05 0.02 0  0.06 0.02 0  0.07000000000000001 0.02 0  0.08 0.02 0  0.09 0.02 0  0.1 0.02 0  0.11 0.02 0  0.12 0.02 0  0.13 0.02 0  0.14 0.02 0  0.15 0.02 0  0.16 0.02 0  0.17 0.02 0  0.18 0.02 0  0.19 0.02 0  0.2 0.02 0  0.21 0.02 0  0.22 0.02 0  0.23 0.02 0  0.24 0.02 0  0.25 0.02 0  0.26 0.02 0  0.27 0.02 0  0.28 0.02 0  0.29 0.02 0  0.3 0.02 0  0.31 0.02 0  0.32 0.02 0  0.33 0.02 0  0.34 0.02 0  0.35 0.02 0  0.36 0.02 0  0.37 0.02 0  0.38 0.02 0  0.39 0.02 0  0.4 0.02 0  0.41 0.02 0  0.42 0.02 0  0.43 0.02 0  0.44 0.02 0  0.45 0.02 0  0.46 0.02 0  0.47 0.02 0  0.48 0.02 0  0.49 0.02 0  0.5 0.02 0  0.51 0.02 0  0.52 0.02 0  0.53 0.02 0  0.54 0.02 0  0.55 0.02 0  0.5600000000000001 0.02 0  0.57 0.02 0  0.58 0.02 0  0.59 0.02 0  0.6 0.02 0  0.61 0.02 0  0.62 0.02 0  0.63 0.02 0  0.64 0.02 0  0.65 0.02 0  0.66 0.02 0  0.67 0.02 0  0.68 0.02 0  0.6899999999999999 0.02 0  0.7 0.02 0  0.71 0.02 0  0.72 0.02 0  0.73 0.02 0  0.74 0.02 0  0.75 0.02 0  0.76 0.02 0  0.77 0.02 0  0.78 0.02 0  0.79 0.02 0  0.8 0.02 0  0.8100000000000001 0.02 0  0.82 0.02 0  0.83 0.02 0  0.84 0.02 0  0.85 0.02 0  0.86 0.02 0  0.87 0.02 0  0.88 0.02 0  0.89 0.02 0  0.9 0.02 0  0.91 0.02 0  0.92 0.02 0  0.93 0.02 0  0.9399999999999999 0.02 0  0.95 0.02 0  0.96 0.02 0  0.97 0.02 0  0.98 0.02 0  0.99 0.02 0  1 0.02 0  0 0.03 0  0.01 0.03 0  0.02 0.03 0  0.03 0.03 0  0.04 0.03 0  0.05 0.03 0  0.06 0.03 0  0.07000000000000001 0.03 0  0.08 0.03 0  0.09 0.03 0  0.1 0.03 0  0.11 0.03 0  0.12 0.03 0  0.13 0.03 0  0.14 0.03 0  0.15 0.03 0  0.16 0.03 0  0.17 0.03 0  0.18 0.03 0  0.19 0.03 0  0.2 0.03 0  0.21 0.03 0  0.22 0.03 0  0.23 0.03 0  0.24 0.03 0  0.25 0.03 0  0.26 0.03 0  0.27 0.03 0  0.28 0.03 0  0.29 0.03 0  0.3 0.03 0  0.31 0.03 0  0.32 0.03 0  0.33 0.03 0  0.34 0.03 0  0.35 0.03 0  0.36 0.03 0  0.37 0.03 0  0.38 0.03 0  0.39 0.03 0  0.4 0.03 0  0.41 0.03 0  0.42 0.03 0  0.43 0.03 0  0.44 0.03 0  0.45 0.03 0  0.46 0.03 0  0.47 0.03 0  0.48 0.03 0  0.49 0.03 0  0.5 0.03 0  0.51 0.03 0  0.52 0.03 0  0.53 0.03 0  0.54 0.03 0  0.55 0.03 0  0.5600000000000001 0.03 0  0.57 0.03 0  0.58 0.03 0  0.59 0.03 0  0.6 0.03 0  0.61 0.03 0  0.62 0.03 0  0.63 0.03 0  0.64 0.03 0  0.65 0.03 0  0.66 0.03 0  0.67 0.03 0  0.68 0.03 0  0.6899999999999999 0.03 0  0.7 0.03 0  0.71 0.03 0  0.72 0.03 0  0.73 0.03 0  0.74 0.03 0  0.75 0.03 0  0.76 0.03 0  0.77 0.03 0  0.78 0.03 0  0.79 0.03 0  0.8 0.03 0  0.8100000000000001 0.03 0  0.82 0.03 0  0.83 0.03 0  0.84 0.03 0  0.85 0.03 0  0.86 0.03 0  0.87 0.03 0  0.88 0.03 0  0.89 0.03 0  0.9 0.03 0  0.91 0.03 0  0.92 0.03 0  0.93 0.03 0  0.9399999999999999 0.03 0  0.95 0.03 0  0.96 0.03 0  0.97 0.03 0  0.98 0.03 0  0.99 0.03 0  1 0.03 0  0 0.04 0  0.01 0.04 0  0.02 0.04 0  0.03 0.04 0  0.04 0.04 0  0.05 0.04 0  0.06 0.04 0  0.07000000000000001 0.04 0  0.08 0.04 0  0.09 0.04 0  0.1 0.04 0  0.11 0.04 0  0.12 0.04 0  0.13 0.04 0  0.14 0.04 0  0.15 0.04 0  0.16 0.04 0  0.17 0.04 0  0.18 0.04 0  0.19 0.04 0  0.2 0.04 0  0.21 0.04 0  0.22 0.04 0  0.23 0.04 0  0.24 0.04 0  0.25 0.04 0  0.26 0.04 0  0.27 0.04 0  0.28 0.04 0  0.29 0.04 0  0.3 0.04 0  0.31 0.04 0  0.32 0.04 0  0.33 0.04 0  0.34 0.04 0  0.35 0.04 0  0.36 0.04 0  0.37 0.04 0  0.38 0.04 0  0.39 0.04 0  0.4 0.04 0  0.41 0.04 0  0.42 0.04 0  0.43 0.04 0  0.44 0.04 0  0.45 0.04 0  0.46 0.04 0  0.47 0.04 0  0.48 0.04 0  0.49 0.04 0  0.5 0.04 0  0.51 0.04 0  0.52 0.04 0  0.53 0.04 0  0.54 0.04 0  0.55 0.04 0  0.5600000000000001 0.04 0  0.57 0.04 0  0.58 0.04 0  0.59 0.04 0  0.6 0.04 0  0.61 0.04 0  0.62 0.04 0  0.63 0.04 0  0.64 0.04 0  0.65 0.04 0  0.66 0.04 0  0.67 0.04 0  0.68 0.04 0  0.6899999999999999 0.04 0  0.7 0.04 0  0.71 0.04 0  0.72 0.04 0  0.73 0.04 0  0.74 0.04 0  0.75 0.04 0  0.76 0.04 0  0.77 0.04 0  0.78 0.04 0  0.79 0.04 0  0.8 0.04 0  0.8100000000000001 0.04 0  0.82 0.04 0  0.83 0.04 0  0.84 0.04 0  0.85 0.04 0  0.86 0.04 0  0.87 0.04 0  0.88 0.04 0  0.89 0.04 0  0.9 0.04 0  0.91 0.04 0  0.92 0.04 0  0.93 0.04 0  0.9399999999999999 0.04 0  0.95 0.04 0  0.96 0.04 0  0.97 0.04 0  0.98 0.04 0  0.99 0.04 0  1 0.04 0  0 0.05 0  0.01 0.05 0  0.02 0.05 0  0.03 0.05 0  0.04 0.05 0  0.05 0.05 0  0.06 0.05 0  0.07000000000000001 0.05 0  0.08 0.05 0  0.09 0.05 0  0.1 0.05 0  0.11 0.05 0  0.12 0.05 0  0.13 0.05 0  0.14 0.05 0  0.15 0.05 0  0.16 0.05 0  0.17 0.05 0  0.18 0.05 0  0.19 0.05 0  0.2 0.05 0  0.21 0.05 0  0.22 0.05 0  0.23 0.05 0  0.24 0.05 0  0.25 0.05 0  0.26 0.05 0  0.27 0.05 0  0.28 0.05 0  0.29 0.05 0  0.3 0.05 0  0.31 0.05 0  0.32 0.05 0  0.33 0.05 0  0.34 0.05 0  0.35 0.05 0  0.36 0.05 0  0.37 0.05 0  0.38 0.05 0  0.39 0.05 0  0.4 0.05 0  0.41 0.05 0  0.42 0.05 0  0.43 0.05 0  0.44 0.05 0  0.45 0.05 0  0.46 0.05 0  0.47 0.05 0  0.48 0.05 0  0.49 0.05 0  0.5 0.05 0  0.51 0.05 0  0.52 0.05 0  0.53 0.05 0  0.54 0.05 0  0.55 0.05 0  0.5600000000000001 0.05 0  0.57 0.05 0  0.58 0.05 0  0.59 0.05 0  0.6 0.05 0  0.61 0.05 0  0.62 0.05 0  0.63 0.05 0  0.64 0.05 0  0.65 0.05 0  0.66 0.05 0  0.67 0.05 0  0.68 0.05 0  0.6899999999999999 0.05 0  0.7 0.05 0  0.71 0.05 0  0.72 0.05 0  0.73 0.05 0  0.74 0.05 0  0.75 0.05 0  0.76 0.05 0  0.77 0.05 0  0.78 0.05 0  0.79 0.05 0  0.8 0.05 0  0.8100000000000001 0.05 0  0.82 0.05 0  0.83 0.05 0  0.84 0.05 0  0.85 0.05 0  0.86 0.05 0  0.87 0.05 0  0.88 0.05 0  0.89 0.05 0  0.9 0.05 0  0.91 0.05 0  0.92 0.05 0  0.93 0.05 0  0.9399999999999999 0.05 0  0.95 0.05 0  0.96 0.05 0  0.97 0.05 0  0.98 0.05 0  0.99 0.05 0  1 0.05 0  0 0.06 0  0.01 0.06 0  0.02 0.06 0  0.03 0.06 0  0.04 0.06 0  0.05 0.06 0  0.06 0.06 0  0.07000000000000001 0.06 0  0.08 0.06 0  0.09 0.06 0  0.1 0.06 0  0.11 0.06 0  0.12 0.06 0  0.13 0.06 0  0.14 0.06 0  0.15 0.06 0  0.16 0.06 0  0.17 0.06 0  0.18 0.06 0  0.19 0.06 0  0.2 0.06 0  0.21 0.06 0  0.22 0.06 0  0.23 0.06 0  0.24 0.06 0  0.25 0.06 0  0.26 0.06 0  0.27 0.06 0  0.28 0.06 0  0.29 0.06 0  0.3 0.06 0  0.31 0.06 0  0.32 0.06 0  0.33 0.06 0  0.34 0.06 0  0.35 0.06 0  0.36 0.06 0  0.37 0.06 0  0.38 0.06 0  0.39 0.06 0  0.4 0.06 0  0.41 0.06 0  0.42 0.06 0  0.43 0.06 0  0.44 0.06 0  0.45 0.06 0  0.46 0.06 0  0.47 0.06 0  0.48 0.06 0  0.49 0.06 0  0.5 0.06 0  0.51 0.06 0  0.52 0.06 0  0.53 0.06 0  0.54 0.06 0  0.55 0.06 0  0.5600000000000001 0.06 0  0.57 0.06 0  0.58 0.06 0  0.59 0.06 0  0.6 0.06 0  0.61 0.06 0  0.62 0.06 0  0.63 0.06 0  0.64 0.06 0  0.65 0.06 0  0.66 0.06 0  0.67 0.06 0  0.68 0.06 0  0.6899999999999999 0.06 0  0.7 0.06 0  0.71 0.06 0  0.72 0.06 0  0.73 0.06 0  0.74 0.06 0  0.75 0.06 0  0.76 0.06 0  0.77 0.06 0  0.78 0.06 0  0.79 0.06 0  0.8 0.06 0  0.8100000000000001 0.06 0  0.82 0.06 0  0.83 0.06 0  0.84 0.06 0  0.85 0.06 0  0.86 0.06 0  0.87 0.06 0  0.88 0.06 0  0.89 0.06 0  0.9 0.06 0  0.91 0.06 0  0.92 0.06 0  0.93 0.06 0  0.9399999999999999 0.06 0  0.95 0.06 0  0.96 0.06 0  0.97 0.06 0  0.98 0.06 0  0.99 0.06 0  1 0.06 0  0 0.07000000000000001 0  0.01 0.07000000000000001 0  0.02 0.07000000000000001 0  0.03 0.07000000000000001 0  0.04 0.07000000000000001 0  0.05 0.07000000000000001 0  0.06 0.07000000000000001 0  0.07000000000000001 0.07000000000000001 0  0.08 0.07000000000000001 0  0.09 0.07000000000000001 0  0.1 0.07000000000000001 0  0.11 0.07000000000000001 0  0.12 0.07000000000000001 0  0.13 0.07000000000000001 0  0.14 0.07000000000000001 0  0.15 0.07000000000000001 0  0.16 0.07000000000000001 0  0.17 0.0700
[...]
<PointData  Scalars="Indicator Function"> 
<DataArray  type="Float64"  Name="Indicator Function"  format="ascii">-1.8055593228630336e-35  -6.7391301242295182e-20  1.4845216862230177e-20  3.3542894171823204e-19  3.4534245656426301e-19  -3.5991217019289632e-20  -3.1504570964799274e-20  6.5387425533067797e-19  9.4056950651563641e-19  -1.2037062152420224e-35  5.0408398639287776e-18  3.0055528580116837e-18  -4.2790794675728612e-20  -3.6624151017943195e-20  7.5947599368970934e-18  -9.0475963261530329e-21  -6.9733039110781827e-21  2.1811703301694562e-18  -3.5865472100986773e-20  -5.4166779685891008e-35  5.5128385786478600e-18  0.0000000000000000e+00  -3.8975103912010236e-20  1.3415984840052948e-17  -5.2994845480899280e-20  -2.6497422740449649e-20  -1.9929206894844962e-20  -4.6376838120074583e-20  4.1451427139371882e-17  -1.7691684746156063e-20  -8.5400394291754978e-20  -3.0523172635689899e-20  -5.0144606897004265e-20  -1.5523114034137987e-20  2.5725964567601339e-17  -9.9406010564913235e-20  -1.3183514528618845e-19  -1.4924760677279356e-19  -1.5428203262503466e-19  -1.4999496314637998e-19  8.6808728718223278e-18  -8.9590671836485812e-20  -2.5855545664803709e-20  -3.4319366717801149e-20  -1.9448075048965000e-20  -2.3022685945197175e-20  3.0727335910832552e-17  -1.4595535102677795e-20  -8.8385371340108466e-21  -1.3747540240432400e-21  -2.2516789409265560e-20  -1.1258394704632783e-20  -8.2155839661224211e-21  -8.8612118036337252e-21  -8.3000783839971372e-21  -5.0741265429273588e-21  2.3976130063397177e-19  -1.2788421472805888e-21  -5.2376988152214602e-22  -3.3821205117863484e-22  -6.3264473328413581e-22  -4.7019193726414229e-22  -7.0172314375801355e-22  -1.3355477234287790e-21  -2.0546184810316076e-21  -1.8047623994829821e-21  -8.2105903220136248e-22  -3.3798293811425445e-21  3.4410103547105327e-18  4.7019774032891500e-38  -2.9375205671195866e-23  -2.2065252340687260e-22  -4.9305122719121750e-22  -7.2734965424556254e-22  -3.9313415295573688e-22  -1.9656707647786837e-22  -8.1357353202319006e-22  -1.1542064979691082e-21  -1.0550674998617577e-21  -8.9243473720641643e-22  -4.9550634554743481e-22  3.2938976593685367e-20  -4.3921436265278576e-22  -2.3055713894429975e-22  0.0000000000000000e+00  0.0000000000000000e+00  -2.3509887016445750e-38  -1.4105642407888386e-22  -5.7040088791890992e-23  -4.7019774032891500e-38  -2.7070300330906920e-22  -1.1180479997900286e-22  -1.4687456825605354e-22  8.2779100150496153e-19  -5.0892237001594674e-23  -4.7019774032891500e-38  2.3509887016445750e-38  4.7019774032891500e-38  -6.5306644200636784e-23  -2.8269497531423478e-23  1.8807909613156600e-37  -3.6585371827507121e-20  5.7705951755029710e-04  2.3871036128671143e-04  1.6186570653804852e-04  3.5549352198811936e-04  2.8725934310076736e-04  5.0473045467635006e-04  3.1517066889197515e-04  7.0834702466238608e-04  5.1364137516973244e-05  3.4094685121390151e-05  4.4292585012358377e-04  7.6472056785402767e-04  3.8849014389898134e-04  4.6551697955918682e-04  2.8736083361602534e-04  1.9306588964233121e-05  7.9055656353889370e-04  1.3307975948065952e-04  6.4609490715788359e-04  2.2303153953232959e-04  3.1874610375602332e-04  2.5975012971205333e-04  5.7223798896340018e-04  2.1056667628871725e-04  9.5467026544134004e-04  7.1802534996330623e-04  9.5450526739250172e-04  3.5819820980850580e-04  6.3741011864275722e-04  8.7744708874499513e-04  1.0997131912660668e-03  6.8809161421148804e-04  5.5927912463820946e-04  3.4759124912433963e-05  8.8375498490918952e-04  1.3488619960995286e-03  1.7004998466910897e-03  1.8383559416460208e-03  1.8601200477372647e-03  1.7720090166653203e-03  1.4195140127566872e-03  9.0416505881633588e-04  4.6577210328588325e-04  3.8535669700458101e-04  8.2947967875090047e-04  6.0015611375300205e-04  5.2585957159754159e-04  2.8425127912498903e-04  1.7095290610431618e-05  1.6217721536413073e-05  4.0562641757259317e-04  1.1459890537029985e-04  9.0699350868689863e-05  1.1427972527323858e-04  9.2381057032642344e-05  6.7738454157672889e-05  4.4519511055361656e-05  2.5824093106125083e-05  1.6024152996091007e-05  1.0740736987609023e-05  7.2339631297273142e-06  9.4937447345610654e-06  9.6599587534335966e-06  1.9229109541560655e-05  2.7398161331469598e-05  1.8812628413480560e-05  4.0278362874918153e-05  4.0746411928498520e-05  1.7923257682521935e-05  9.1459210063501288e-06  5.2917666125891499e-07  3.7103341581447438e-06  1.0258006722777128e-05  7.9737631659249421e-06  7.0820752990322878e-06  3.9395652847939521e-06  1.2686255180235565e-05  1.4449208226531339e-05  1.1781802283646855e-05  1.0185773857917786e-05  1.0692555952493757e-05  7.4715588927016509e-06  7.0839581093328880e-06  2.5924481081287752e-06  2.8082080237880355e-06  3.0105509964974088e-06  5.0820932713590038e-06  2.0550857810267171e-06  2.5093567479283646e-06  6.1001529591354226e-06  1.8264752997554802e-06  2.0140962220946805e-06  2.6458570034725448e-06  1.8335860767714586e-06  7.8340633473100054e-07  5.2973286352727079e-07  2.1746447656800687e-06  2.3529198278944422e-06  1.0185159883877592e-06  -3.2841014180728146e-22  -1.2707742778170894e-20  6.5906346771828813e-04  1.7104194281124171e-04  9.5065352274986890e-05  9.0993989070004329e-06  3.3708351098467115e-04  5.4963855623339298e-04  6.6166316666354521e-04  7.8669677228434328e-04  7.8610736716914857e-05  1.7059489890377670e-04  4.9728077582229270e-04  6.8609283311646342e-04  1.0058132006856677e-03  9.7219534750112241e-04  6.4717974861780349e-04  1.2520330140647416e-03  9.4780367371171892e-05  4.8707720740386474e-04  1.0212520453291728e-03  4.8749184349100176e-04  1.6609570054358460e-03  1.0823993711823435e-03  1.7930180441117617e-03  1.0361739984039000e-03  1.3132454840160403e-03  5.0284967978306364e-05  3.2325622542326584e-04  1.7695782268775575e-03  1.2953998699982274e-03  2.8333582950160828e-05  1.7738320990907793e-03  1.0715725632149379e-04  1.1915170160532596e-03  6.8245901461895140e-04  1.2244042882530110e-03  1.6659929820111994e-03  2.2183019729189492e-03  2.5516668371710124e-03  2.6449362102276735e-03  2.5726565435505232e-03  2.3699225160453124e-03  1.7916946163108191e-03  2.2534149498786431e-04  1.1026661460449057e-03  9.6244056306560863e-04  9.2814033530745513e-04  1.3104210174319697e-03  1.1195597596202727e-03  4.0704207488616344e-04  3.6692050312666551e-04  6.7502343148968867e-04  1.9183471767396124e-04  2.8211468635397743e-04  1.1398704254181358e-04  1.2192128956834512e-04  9.7025666561363695e-05  7.5158292646162174e-05  4.9443996983811413e-05  2.7988920239251934e-05  1.8726049256474448e-05  1.5495328764665567e-05  1.1025238896338511e-05  1.3041605297198578e-05  2.4072026870933212e-05  2.5894336237061017e-05  4.6378580242079559e-05  2.8843125339155113e-05  7.2037889977104411e-05  2.8243053526157472e-05  1.0116281041331863e-05  8.5486007667894434e-06  5.0096327716177681e-06  6.7851370467656614e-06  2.0105387116363848e-05  5.6227143084406030e-06  4.8330278013302731e-06  1.8781938769953746e-05  1.7432182034410584e-05  1.8385551893833982e-05  1.7821014999597905e-05  1.1364590416516191e-05  1.4177502828405092e-05  9.3627649615255821e-06  6.3840912344699175e-06  4.8912867933054942e-06  4.0850199922900888e-06  3.8209500343050633e-06  4.7880463676714700e-06  5.3633409484960715e-06  1.3103428614256537e-06  8.1072849721398871e-06  4.6048597121611981e-06  1.6494295787637779e-05  8.1316666999392359e-06  9.8066436173458041e-06  3.5475621797461974e-07  5.7113490398924375e-07  4.4765167168513913e-06  1.0350277125881166e-05  2.5855010946909888e-21  -2.4312081339568303e-20  2.2892234256196320e-04  4.5504967235272451e-04  7.4053993012503216e-05  5.4578427249125537e-04  7.5348343566404585e-04  6.7030807946838673e-04  8.8731690459885868e-04  2.2453710084558212e-04  1.3472576442820497e-03  5.1498758976182060e-04  1.1053906932521319e-05  1.0693495952280273e-03  1.2844240308569957e-03  2.9005670364104622e-04  1.0223968270514593e-03  1.7643546437783451e-04  3.1371013356690545e-04  1.5893447847340854e-03  8.4676928664682903e-04  1.7886616538647859e-03  4.2968386267199291e-04  1.1486146563175152e-03  3.0649965713152656e-04  1.6877325161280771e-03  1.4544533397043904e-03  2.5237307498341089e-03  2.1449012643456533e-03  2.0665034072434164e-03  7.8062731696801227e-04  2.1974006661597523e-03  2.0272813645766164e-03  2.1707465314681528e-03  2.2914532294809678e-03  1.0256441759794557e-03  3.1282843001203289e-04  2.0502801832372485e-03  2.2942032517960799e-03  2.8101221409313408e-03  3.0273722484592466e-03  3.0630516031383125e-03  2.8748481694755635e-03  2.1979241511566753e-03  1.4597863722255635e-03  1.4343973189375329e-03  7.6292330171327176e-04  2.4133653885316845e-03  1.3745628326676306e-03  7.9279242940538490e-04  4.3126198620817492e-04  8.6676426292962215e-05  1.5697795926425073e-04  1.0334701967899531e-03  4.8532382013774685e-04  2.0861244854883813e-04  1.0101603347390371e-04  8.3363442926396184e-05  8.3175189109850435e-05  6.7290606547529015e-05  4.1382227020069218e-05  2.6978430815137086e-05  1.9007945604252885e-05  1.4041843166163538e-05  1.8239379509758969e-05  1.5277176912947717e-05  3.5559639381548123e-05  3.8441026284590850e-05  2.9447587871230521e-05  9.4066394906843300e-05  5.9606663338168633e-05  4.4891101471425332e-07  6.4563073334810238e-06  1.1787268723423386e-06  3.4789045267532304e-06  1.5420687813073100e-05  1.4046175872905051e-05  1.7659645160618896e-05  1.2958983972811281e-05  2.5609647144126727e-05  1.9506140836494941e-05  1.6022662747539540e-05  1.8124266191205015e-05  1.6932999268006716e-05  1.1520344684340602e-05  1.1391134540232604e-05  2.2109333505285858e-06  7.1043956671565882e-06  6.3789637898813158e-06  8.5390729330457034e-06  6.0743792582506478e-06  1.1532084273041517e-05  1.2328740467058016e-05  2.8202697146898109e-06  7.7291357132584548e-06  1.9106529489541689e-05  1.2523424471940739e-06  4.6803436736748712e-06  5.3266754379106264e-06  2.3620114790365929e-06  3.5651772092517725e-07  -4.9476772807254669e-23  -1.8733326014041769e-20  4.3796752184592491e-04  6.1962554947238432e-04  8.9472999717568467e-06  1.5410422852819034e-04  4.9505005522797868e-04  6.9953674088355010e-04  1.1794656524583389e-03  1.0675216996574924e-03  6.8468494351912196e-04  2.2029211850638851e-04  3.4061956158212676e-05  4.9322752222006922e-04  1.0383716819598132e-03  1.5137599301031091e-03  8.0034965034564681e-04  1.0074060762828554e-03  1.8222165124561905e-03  3.4732697379589257e-04  1.1858422026097125e-03  7.1553608725357537e-04  4.3784166009593582e-04  2.1924321353897144e-03  1.7273314144863165e-03  2.5781550665038597e-03  1.3693879838010017e-03  1.3992426378990701e-03  5.1063084003343179e-04  1.4986925506213437e-03  3.3695600564115614e-03  2.0580235402586976e-03  7.0522827654594502e-04  3.2910363715553110e-03  3.7755880810701805e-04  2.7041549939706526e-03  8.6908043102258540e-04  2.1028218095261648e-03  2.4736469700754201e-03  2.8705032006407665e-03  3.2609232430756301e-03  3.3580308714330118e-03  3.2714776916361759e-03  3.0092004408296979e-03  2.0988996384229339e-03  5.3562111894668520e-04  2.0535046803532653e-03  1.5510692111059866e-03  2.1214325003563136e-03  2.9058247314895811e-03  2.3021844160131008e-03  1.0551709202980468e-03  3.9199521692587696e-04  1.0026737426190127e-03  4.3986105414011616e-04  7.2401591261340276e-04  1.2649123808708746e-04  7.5799633148172072e-05  6.0594230947189178e-05  7.0291736240136194e-05  5.4797194335511798e-05  3.0631087479317307e-05  2.3174831799282490e-05  2.0206634198494514e-05  1.2434068207947721e-05  1.8311484416001200e-05  2.8518982416758333e-05  3.3015119139276977e-05  6.1168888045146189e-05  4.3222250219478743e-05  1.1587801103927025e-04  1.8931070253354389e-05  1.0828474292868737e-05  7.1342574083835231e-06  6.0939606663127303e-06  4.3274950662235567e-06  2.6711333366011302e-05  1.1191606920148788e-05  1.0911047915459186e-05  3.0852277113178435e-05  2.3096504752411384e-05  2.0289773312875613e-05  1.7479261008873050e-05  1.1979608695380788e-05  1.9675803711711692e-05  1.0423772068489189e-05  9.0633988194498054e-06  3.8351497109502668e-06  6.8641008399860465e-06  7.0326829570675699e-06  9.1049806703650276e-06  6.0276087183498392e-07  3.6384179705408826e-06  1.6775565684385637e-05  5.1136697907309333e-06  1.8785369049485206e-05  8.7107390856883630e-06  1.7614741441233514e-05  1.3350500335524313e-06  4.9711456105930982e-06  2.7726556959306394e-06  -3.9593699810527436e-22  -2.3478125532252593e-20  3.3746960022499364e-04  5.9154015182720943e-04  9.6401010246417664e-04  1.3825969730563899e-04  5.6997664899463335e-04  7.3054830862344291e-04  6.9136807734683330e-04  1.3380095261753459e-03  4.0475298871942147e-04  1.6903751098714635e-03  9.1776035848508926e-04  1.5201178542170654e-05  1.4219249838851220e-03  1.4995374502176106e-03  3.9587952916202780e-04  1.2712012555581964e-03  9.6352009066724405e-04  1.0292590117218640e-03  1.5705428285053226e-03  9.9967239988351894e-04  2.3593329506194009e-03  1.1292722102868196e-03  2.0891163163205568e-03  1.1916758985554446e-03  2.8175137337781916e-03  2.5525509304097790e-03  3.6695312032376422e-03  2.8600387170765254e-03  2.2072653627601218e-03  1.7050979893902965e-03  3.6500017875721567e-03  2.5478995413995703e-03  3.5603710659743884e-03  3.1664989239203142e-03  1.8631639072918640e-03  4.1535522239701271e-04  3.1359778297691374e-03  2.9405798911517401e-03  3.4126755856965004e-03  3.6409087610858289e-03  3.6623088207811375e-03  3.4234866803639860e-03  2.6264150674198288e-03  1.7116266277466270e-03  2.3116330863455280e-03  1.3977535817515747e-03  3.7401319708288165e-03  1.3275449270893883e-03  2.2772092081831809e-05  2.0259925828462866e-04  1.9882104745979454e-04  3.7706348809690487e-04  1.5807519111093427e-03  6.0634259207641150e-04  4.7684682595832995e-04  7.5993242315706904e-05  4.3505068869512399e-05  6.1079511209836726e-05  6.5388266924441132e-05  4.2546303330070875e-05  2.6123807517581276e-05  1.9446628377637277e-05  1.6107274850736961e-05  1.8206517102810920e-05  1.5349275558445909e-05  4.1472355295242275e-05  4.0449578686511049e-05  4.4334775097337123e-05  1.2680348461172649e-04  8.1483205828291672e-05  1.9989805939540404e-05  4.5017576679403655e-06  2.3741831365772740e-06  2.9959225475300886e-06  1.5296378503579791e-05  1.9943290145848867e-05  2.8738594768040284e-05  1.3037090637820695e-05  3.3567012731167743e-05  1.9956626331198975e-05  1.7539888964090676e-05  1.9578214565974178e-05  1.3814568665102446e-05  1.2914180960938011e-05  1.1099040871162366e-05  1.9352045474528897e-06  8.1664808447083847e-06  7.2639934339595329e-06  1.0235866554784957e-05  3.5547278295365959e-06  1.3223017964499849e-05  1.0751597718804306e-05  3.2761222510162992e-06  1.2007910114919284e-05  3.2494939378521473e-05  7.8320304383586247e-06  1.0150915669623606e-05  4.8117130713017179e-06  2.7657076534654922e-06  1.2048817095928447e-37  -1.3090604808863280e-20  4.2294430959364225e-04  6.5492659910112213e-04  5.6683144167227542e-04  6.0338815418710693e-04  2.4660958482415201e-04  6.0990094537278084e-04  1.0813042452207313e-03  1.5421260648763957e-03  1.3880228324352438e-03  6.0535261717169708e-04  5.4311212559319969e-04  4.3307246434764888e-04  4.6327954304554796e-04  1.5160207529027671e-03  1.8736836046701671e-03  5.7522234097008291e-04  9.1142753971555385e-04  1.5296447019662680e-03  1.8453304035655522e-04  1.6748173926634359e-03  2.1463432515136558e-04  9.8874303083419543e-05  1.8628881159883711e-03  1.5457286724885723e-03  2.4885991457220154e-03  9.5010876748296809e-04  8.3310839085703407e-04  1.4131772697287028e-03  2.5103856369643358e-03  4.5377689701389520e-03  2.1996612270877031e-03  1.8396484278019733e-03  4.5528478197887651e-03  9.6272891015349439e-04  4.1284255965808887e-03  1.2154691758144997e-03  2.6168087385694491e-03  3.4706503545584096e-03  3.5132927901513514e-03  3.9019168740717872e-03  3.9936421662844857e-03  3.8924435908798010e-03  3.5435937954529030e-03  2.3308908374281537e-03  6.7913015472503271e-04  3.1647551885652498e-03  1.8003689362339850e-03  3.4407947776612267e-03  3.7294176560282483e-03  2.5606988213052423e-03  1.1879648698147327e-03  4.0030729536733207e-04  1.0032947372843922e-03  8.3822567374214915e-04  1.0562900942734539e-03  2.0950520279873833e-04  2.1345403521348358e-05  2.0300387268330901e-05  6.1906856095585278e-05  6.0134345624346509e-05  3.3591258939217254e-05  2.5299069036520722e-05  2.0985639074488614e-05  1.1953337810832269e-05  1.9627627025742909e-05  2.7039829498137543e-05  4.0065698039146976e-05  6.5570669789703312e-05  4.2601385809483923e-05  1.5468448451239571e-04  1.8987818374484722e-05  3.3504530467207381e-05  4.0276103152375627e-06  3.8204055982983276e-06  1.1731216645948311e-06  2.8408312202383466e-05  1.1881592500881949e-05  1.9715289387037167e-05  3.6720781259680410e-05  2.6566876917166891e-05  1.7572381653095263e-05  1.5664102694799904e-05  1.5165213445264494e-05  1.9793612790660447e-05  9.0610652233912345e-06  8.3857227925301805e-06  5.4288270320421336e-07  8.3366982049783654e-06  6.9734498212284916e-06  9.1509358598782983e-06  5.1947611291814545e-06  1.0696462478899102e-05  2.1261271196209365e-05  7.2342661963283380e-06  9.6167845812042373e-06  8.1414223742822796e-07  1.3401728991969076e-05  1.4534026522722682e-06  4.2235384308793373e-06  -2.3445348056757251e-22  -2.1084866792313126e-20  2.3581937175700451e-04  5.3601747677222257e-04  8.7948377408355422e-04  9.1563589627956948e-04  6.8822349882589385e-05  7.1522990245356148e-04  4.8111853447130846e-04  4.0260719254936017e-04  1.7733345640218085e-03  6.4458243494943041e-04  1.6734358880071637e-03  9.1456055175721113e-04  1.8941168218356249e-04  1.5441071592926783e-03  1.8490177159805649e-03  6.8276157589965256e-04  1.1219234697863469e-03  1.2049037444920863e-03  1.3370195749357234e-03  1.3835397756528556e-03  5.6717873814104557e-04  2.1526511762809037e-03  9.5271921255536782e-04  2.3454468789541345e-03  1.4337735704261034e-03  3.2235283341320361e-03  2.7801255948350979e-03  3.8735629405883144e-03  2.7554756370203005e-03  1.8066940060341373e-03  2.7291724361469928e-03  4.4962201195693809e-03  2.5665455893245665e-03  5.0915518216415280e-03  3.5692483573757819e-03  3.1659127893192370e-03  4.9476453068918018e-04  4.0406102912760060e-03  3.8274359526773122e-03  4.1327111884472620e-03  4.3560939909301549e-03  4.3583344911832314e-03  4.0734737035207479e-03  3.1109524840249344e-03  1.8244846417269855e-03  2.8995079288271965e-03  2.2443923689365844e-03  4.6136817059571162e-03  8.8055265649698530e-04  8.4344177420131450e-04  8.7357939945567501e-04  6.4855070865350113e-04  3.4334395980341049e-04  1.8662300058326199e-03  4.6534091407749595e-04  8.5472442547592084e-04  7.0343736760935166e-05  1.4069280417108923e-05  2.1475403164226142e-05  5.9218994467520303e-05  4.7449519601064939e-05  2.8812863909871718e-05  2.3328934900572676e-05  1.9964411647592448e-05  1.7460526538323259e-05  1.7287975155428733e-05  4.2684577641971521e-05  4.6037979452435565e-05  5.3228111473520728e-05  1.4380328895358680e-04  1.1229709413187641e-04  3.3076607119261819e-05  2.1952892220345856e-05  2.0364031179891760e-06  1.0673848608908178e-06  1.3151299009525075e-05  2.1838823743324813e-05  3.6577274309702156e-05  8.0525356240614413e-06  4.0382869048405166e-05  2.1241040305429576e-05  1.6359324323301946e-05  1.4943272765736546e-05  1.2420420771856842e-05  1.5865590132016409e-05  9.8326168904788800e-06  3.4667158760211108e-06  4.4770599857513012e-06  7.9310679589525328e-06  9.6563073916606573e-06  3.2045891794982646e-06  3.8409921592832209e-06  1.2257089630195352e-05  7.4866646601006038e-06  1.0156024214932096e-05  3.2970272808238298e-05  9.4407073134879035e-06  1.1343101507164442e-05  9.1429148064519758e-07  -1.2688343162886481e-22  -1.5363502728560756e-20  3.7983119291607311e-04  6.5233216534086908e-04  7.1474364341393281e-04  7.0418394950598723e-04  9.8555621417839600e-04  1.2633059161149384e-04  5.1746065209776367e-04  1.0092571102470621e-03  1.6028086394898225e-03  1.7761382853864222e-03  7.5993012677711086e-04  5.6778644506949734e-04  6.6502693382089299e-04  4.2858168510824540e-04  1.8493005182182321e-03  2.1520786942789264e-03 