<?xml version="1.0"?>
<VTKFile type="UnstructuredGrid"  version="0.1"  >
<UnstructuredGrid>
<Piece  NumberOfPoints="10201" NumberOfCells="20000">
<Points>
<DataArray  type="Float64"  NumberOfComponents="3"  format="ascii">0 0 0  0.01 0 0  0.02 0 0  0.03 0 0  0.04 0 0  0.05 0 0  0.06 0 0  0.07000000000000001 0 0  0.08 0 0  0.09 0 0  0.1 0 0  0.11 0 0  0.12 0 0  0.13 0 0  0.14 0 0  0.15 0 0  0.16 0 0  0.17 0 0  0.18 0 0  0.19 0 0  0.2 0 0  0.21 0 0  0.22 0 0  0.23 0 0  0.24 0 0  0.25 0 0  0.26 0 0  0.27 0 0  0.28 0 0  0.29 0 0  0.3 0 0  0.31 0 0  0.32 0 0  0.33 0 0  0.34 0 0  0.35 0 0  0.36 0 0  0.37 0 0  0.38 0 0  0.39 0 0  0.4 0 0  0.41 0 0  0.42 0 0  0.43 0 0  0.44 0 0  0.45 0 0  0.46 0 0  0.47 0 0  0.48 0 0  0.49 0 0  0.5 0 0  0.51 0 0  0.52 0 0  0.53 0 0  0.54 0 0  0.55 0 0  0.5600000000000001 0 0  0.57 0 0  0.58 0 0  0.59 0 0  0.6 0 0  0.61 0 0  0.62 0 0  0.63 0 0  0.64 0 0  0.65 0 0  0.66 0 0  0.67 0 0  0.68 0 0  0.6899999999999999 0 0  0.7 0 0  0.71 0 0  0.72 0 0  0.73 0 0  0.74 0 0  0.75 0 0  0.76 0 0  0.77 0 0  0.78 0 0  0.79 0 0  0.8 0 0  0.8100000000000001 0 0  0.82 0 0  0.83 0 0  0.84 0 0  0.85 0 0  0.86 0 0  0.87 0 0  0.88 0 0  0.89 0 0  0.9 0 0  0.91 0 0  0.92 0 0  0.93 0 0  0.9399999999999999 0 0  0.95 0 0  0.96 0 0  0.97 0 0  0.98 0 0  0.99 0 0  1 0 0  0 0.01 0  0.01 0.01 0  0.02 0.01 0  0.03 0.01 0  0.04 0.01 0  0.05 0.01 0  0.06 0.01 0  0.07000000000000001 0.01 0  0.08 0.01 0  0.09 0.01 0  0.1 0.01 0  0.11 0.01 0  0.12 0.01 0  0.13 0.01 0  0.14 0.01 0  0.15 0.01 0  0.16 0.01 0  0.17 0.01 0  0.18 0.01 0  0.19 0.01 0  0.2 0.01 0  0.21 0.01 0  0.22 0.01 0  0.23 0.01 0  0.24 0.01 0  0.25 0.01 0  0.26 0.01 0  0.27 0.01 0  0.28 0.01 0  0.29 0.01 0  0.3 0.01 0  0.31 0.01 0  0.32 0.01 0  0.33 0.01 0  0.34 0.01 0  0.35 0.01 0  0.36 0.01 0  0.37 0.01 0  0.38 0.01 0  0.39 0.01 0  0.4 0.01 0  0.41 0.01 0  0.42 0.01 0  0.43 0.01 0  0.44 0.01 0  0.45 0.01 0  0.46 0.01 0  0.47 0.01 0  0.48 0.01 0  0.49 0.01 0  0.5 0.01 0  0.51 0.01 0  0.52 0.01 0  0.53 0.01 0  0.54 0.01 0  0.55 0.01 0  0.5600000000000001 0.01 0  0.57 0.01 0  0.58 0.01 0  0.59 0.01 0  0.6 0.01 0  0.61 0.01 0  0.62 0.01 0  0.63 0.01 0  0.64 0.01 0  0.65 0.01 0  0.66 0.01 0  0.67 0.01 0  0.68 0.01 0  0.6899999999999999 0.01 0  0.7 0.01 0  0.71 0.01 0  0.72 0.01 0  0.73 0.01 0  0.74 0.01 0  0.75 0.01 0  0.76 0.01 0  0.77 0.01 0  0.78 0.01 0  0.79 0.01 0  0.8 0.01 0  0.8100000000000001 0.01 0  0.82 0.01 0  0.83 0.01 0  0.84 0.01 0  0.85 0.01 0  0.86 0.01 0  0.87 0.01 0  0.88 0.01 0  0.89 0.01 0  0.9 0.01 0  0.91 0.01 0  0.92 0.01 0  0.93 0.01 0  0.9399999999999999 0.01 0  0.95 0.01 0  0.96 0.01 0  0.97 0.01 0  0.98 0.01 0  0.99 0.01 0  1 0.01 0  0 0.02 0  0.01 0.02 0  0.02 0.02 0  0.03 0.02 0  0.04 0.02 0  0.05 0.02 0  0.06 0.02 0  0.07000000000000001 0.02 0  0.08 0.02 0  0.09 0.02 0  0.1 0.02 0  0.11 0.02 0  0.12 0.02 0  0.13 0.02 0  0.14 0.02 0  0.15 0.02 0  0.16 0.02 0  0.17 0.02 0  0.18 0.02 0  0.19 0.02 0  0.2 0.02 0  0.21 0.02 0  0.22 0.02 0  0.23 0.02 0  0.24 0.02 0  0.25 0.02 0  0.26 0.02 0  0.27 0.02 0  0.28 0.02 0  0.29 0.02 0  0.3 0.02 0  0.31 0.02 0  0.32 0.02 0  0.33 0.02 0  0.34 0.02 0  0.35 0.02 0  0.36 0.02 0  0.37 0.02 0  0.38 0.02 0  0.39 0.02 0  0.4 0.02 0  0.41 0.02 0  0.42 0.02 0  0.43 0.02 0  0.44 0.02 0  0.45 0.02 0  0.46 0.02 0  0.47 0.02 0  0.48 0.02 0  0.49 0.02 0  0.5 0.02 0  0.51 0.02 0  0.52 0.02 0  0.53 0.02 0  0.54 0.02 0  0.55 0.02 0  0.5600000000000001 0.02 0  0.57 0.02 0  0.58 0.02 0  0.59 0.02 0  0.6 0.02 0  0.61 0.02 0  0.62 0.02 0  0.63 0.02 0  0.64 0.02 0  0.65 0.02 0  0.66 0.02 0  0.67 0.02 0  0.68 0.02 0  0.6899999999999999 0.02 0  0.7 0.02 0  0.71 0.02 0  0.72 0.02 0  0.73 0.02 0  0.74 0.02 0  0.75 0.02 0  0.76 0.02 0  0.77 0.02 0  0.78 0.02 0  0.79 0.02 0  0.8 0.02 0  0.8100000000000001 0.02 0  0.82 0.02 0  0.83 0.02 0  0.84 0.02 0  0.85 0.02 0  0.86 0.02 0  0.87 0.02 0  0.88 0.02 0  0.89 0.02 0  0.9 0.02 0  0.91 0.02 0  0.92 0.02 0  0.93 0.02 0  0.9399999999999999 0.02 0  0.95 0.02 0  0.96 0.02 0  0.97 0.02 0  0.98 0.02 0  0.99 0.02 0  1 0.02 0  0 0.03 0  0.01 0.03 0  0.02 0.03 0  0.03 0.03 0  0.04 0.03 0  0.05 0.03 0  0.06 0.03 0  0.07000000000000001 0.03 0  0.08 0.03 0  0.09 0.03 0  0.1 0.03 0  0.11 0.03 0  0.12 0.03 0  0.13 0.03 0  0.14 0.03 0  0.15 0.03 0  0.16 0.03 0  0.17 0.03 0  0.18 0.03 0  0.19 0.03 0  0.2 0.03 0  0.21 0.03 0  0.22 0.03 0  0.23 0.03 0  0.24 0.03 0  0.25 0.03 0  0.26 0.03 0  0.27 0.03 0  0.28 0.03 0  0.29 0.03 0  0.3 0.03 0  0.31 0.03 0  0.32 0.03 0  0.33 0.03 0  0.34 0.03 0  0.35 0.03 0  0.36 0.03 0  0.37 0.03 0  0.38 0.03 0  0.39 0.03 0  0.4 0.03 0  0.41 0.03 0  0.42 0.03 0  0.43 0.03 0  0.44 0.03 0  0.45 0.03 0  0.46 0.03 0  0.47 0.03 0  0.48 0.03 0  0.49 0.03 0  0.5 0.03 0  0.51 0.03 0  0.52 0.03 0  0.53 0.03 0  0.54 0.03 0  0.55 0.03 0  0.5600000000000001 0.03 0  0.57 0.03 0  0.58 0.03 0  0.59 0.03 0  0.6 0.03 0  0.61 0.03 0  0.62 0.03 0  0.63 0.03 0  0.64 0.03 0  0.65 0.03 0  0.66 0.03 0  0.67 0.03 0  0.68 0.03 0  0.6899999999999999 0.03 0  0.7 0.03 0  0.71 0.03 0  0.72 0.03 0  0.73 0.03 0  0.74 0.03 0  0.75 0.03 0  0.76 0.03 0  0.77 0.03 0  0.78 0.03 0  0.79 0.03 0  0.8 0.03 0  0.8100000000000001 0.03 0  0.82 0.03 0  0.83 0.03 0  0.84 0.03 0  0.85 0.03 0  0.86 0.03 0  0.87 0.03 0  0.88 0.03 0  0.89 0.03 0  0.9 0.03 0  0.91 0.03 0  0.92 0.03 0  0.93 0.03 0  0.9399999999999999 0.03 0  0.95 0.03 0  0.96 0.03 0  0.97 0.03 0  0.98 0.03 0  0.99 0.03 0  1 0.03 0  0 0.04 0  0.01 0.04 0  0.02 0.04 0  0.03 0.04 0  0.04 0.04 0  0.05 0.04 0  0.06 0.04 0  0.07000000000000001 0.04 0  0.08 0.04 0  0.09 0.04 0  0.1 0.04 0  0.11 0.04 0  0.12 0.04 0  0.13 0.04 0  0.14 0.04 0  0.15 0.04 0  0.16 0.04 0  0.17 0.04 0  0.18 0.04 0  0.19 0.04 0  0.2 0.04 0  0.21 0.04 0  0.22 0.04 0  0.23 0.04 0  0.24 0.04 0  0.25 0.04 0  0.26 0.04 0  0.27 0.04 0  0.28 0.04 0  0.29 0.04 0  0.3 0.04 0  0.31 0.04 0  0.32 0.04 0  0.33 0.04 0  0.34 0.04 0  0.35 0.04 0  0.36 0.04 0  0.37 0.04 0  0.38 0.04 0  0.39 0.04 0  0.4 0.04 0  0.41 0.04 0  0.42 0.04 0  0.43 0.04 0  0.44 0.04 0  0.45 0.04 0  0.46 0.04 0  0.47 0.04 0  0.48 0.04 0  0.49 0.04 0  0.5 0.04 0  0.51 0.04 0  0.52 0.04 0  0.53 0.04 0  0.54 0.04 0  0.55 0.04 0  0.5600000000000001 0.04 0  0.57 0.04 0  0.58 0.04 0  0.59 0.04 0  0.6 0.04 0  0.61 0.04 0  0.62 0.04 0  0.63 0.04 0  0.64 0.04 0  0.65 0.04 0  0.66 0.04 0  0.67 0.04 0  0.68 0.04 0  0.6899999999999999 0.04 0  0.7 0.04 0  0.71 0.04 0  0.72 0.04 0  0.73 0.04 0  0.74 0.04 0  0.75 0.04 0  0.76 0.04 0  0.77 0.04 0  0.78 0.04 0  0.79 0.04 0  0.8 0.04 0  0.8100000000000001 0.04 0  0.82 0.04 0  0.83 0.04 0  0.84 0.04 0  0.85 0.04 0  0.86 0.04 0  0.87 0.04 0  0.88 0.04 0  0.89 0.04 0  0.9 0.04 0  0.91 0.04 0  0.92 0.04 0  0.93 0.04 0  0.9399999999999999 0.04 0  0.95 0.04 0  0.96 0.04 0  0.97 0.04 0  0.98 0.04 0  0.99 0.04 0  1 0.04 0  0 0.05 0  0.01 0.05 0  0.02 0.05 0  0.03 0.05 0  0.04 0.05 0  0.05 0.05 0  0.06 0.05 0  0.07000000000000001 0.05 0  0.08 0.05 0  0.09 0.05 0  0.1 0.05 0  0.11 0.05 0  0.12 0.05 0  0.13 0.05 0  0.14 0.05 0  0.15 0.05 0  0.16 0.05 0  0.17 0.05 0  0.18 0.05 0  0.19 0.05 0  0.2 0.05 0  0.21 0.05 0  0.22 0.05 0  0.23 0.05 0  0.24 0.05 0  0.25 0.05 0  0.26 0.05 0  0.27 0.05 0  0.28 0.05 0  0.29 0.05 0  0.3 0.05 0  0.31 0.05 0  0.32 0.05 0  0.33 0.05 0  0.34 0.05 0  0.35 0.05 0  0.36 0.05 0  0.37 0.05 0  0.38 0.05 0  0.39 0.05 0  0.4 0.05 0  0.41 0.05 0  0.42 0.05 0  0.43 0.05 0  0.44 0.05 0  0.45 0.05 0  0.46 0.05 0  0.47 0.05 0  0.48 0.05 0  0.49 0.05 0  0.5 0.05 0  0.51 0.05 0  0.52 0.05 0  0.53 0.05 0  0.54 0.05 0  0.55 0.05 0  0.5600000000000001 0.05 0  0.57 0.05 0  0.58 0.05 0  0.59 0.05 0  0.6 0.05 0  0.61 0.05 0  0.62 0.05 0  0.63 0.05 0  0.64 0.05 0  0.65 0.05 0  0.66 0.05 0  0.67 0.05 0  0.68 0.05 0  0.6899999999999999 0.05 0  0.7 0.05 0  0.71 0.05 0  0.72 0.05 0  0.73 0.05 0  0.74 0.05 0  0.75 0.05 0  0.76 0.05 0  0.77 0.05 0  0.78 0.05 0  0.79 0.05 0  0.8 0.05 0  0.8100000000000001 0.05 0  0.82 0.05 0  0.83 0.05 0  0.84 0.05 0  0.85 0.05 0  0.86 0.05 0  0.87 0.05 0  0.88 0.05 0  0.89 0.05 0  0.9 0.05 0  0.91 0.05 0  0.92 0.05 0  0.93 0.05 0  0.9399999999999999 0.05 0  0.95 0.05 0  0.96 0.05 0  0.97 0.05 0  0.98 0.05 0  0.99 0.05 0  1 0.05 0  0 0.06 0  0.01 0.06 0  0.02 0.06 0  0.03 0.06 0  0.04 0.06 0  0.05 0.06 0  0.06 0.06 0  0.07000000000000001 0.06 0  0.08 0.06 0  0.09 0.06 0  0.1 0.06 0  0.11 0.06 0  0.12 0.06 0  0.13 0.06 0  0.14 0.06 0  0.15 0.06 0  0.16 0.06 0  0.17 0.06 0  0.18 0.06 0  0.19 0.06 0  0.2 0.06 0  0.21 0.06 0  0.22 0.06 0  0.23 0.06 0  0.24 0.06 0  0.25 0.06 0  0.26 0.06 0  0.27 0.06 0  0.28 0.06 0  0.29 0.06 0  0.3 0.06 0  0.31 0.06 0  0.32 0.06 0  0.33 0.06 0  0.34 0.06 0  0.35 0.06 0  0.36 0.06 0  0.37 0.06 0  0.38 0.06 0  0.39 0.06 0  0.4 0.06 0  0.41 0.06 0  0.42 0.06 0  0.43 0.06 0  0.44 0.06 0  0.45 0.06 0  0.46 0.06 0  0.47 0.06 0  0.48 0.06 0  0.49 0.06 0  0.5 0.06 0  0.51 0.06 0  0.52 0.06 0  0.53 0.06 0  0.54 0.06 0  0.55 0.06 0  0.5600000000000001 0.06 0  0.57 0.06 0  0.58 0.06 0  0.59 0.06 0  0.6 0.06 0  0.61 0.06 0  0.62 0.06 0  0.63 0.06 0  0.64 0.06 0  0.65 0.06 0  0.66 0.06 0  0.67 0.06 0  0.68 0.06 0  0.6899999999999999 0.06 0  0.7 0.06 0  0.71 0.06 0  0.72 0.06 0  0.73 0.06 0  0.74 0.06 0  0.75 0.06 0  0.76 0.06 0  0.77 0.06 0  0.78 0.06 0  0.79 0.06 0  0.8 0.06 0  0.8100000000000001 0.06 0  0.82 0.06 0  0.83 0.06 0  0.84 0.06 0  0.85 0.06 0  0.86 0.06 0  0.87 0.06 0  0.88 0.06 0  0.89 0.06 0  0.9 0.06 0  0.91 0.06 0  0.92 0.06 0  0.93 0.06 0  0.9399999999999999 0.06 0  0.95 0.06 0  0.96 0.06 0  0.97 0.06 0  0.98 0.06 0  0.99 0.06 0  1 0.06 0  0 0.07000000000000001 0  0.01 0.07000000000000001 0  0.02 0.07000000000000001 0  0.03 0.07000000000000001 0  0.04 0.07000000000000001 0  0.05 0.07000000000000001 0  0.06 0.07000000000000001 0  0.07000000000000001 0.07000000000000001 0  0.08 0.07000000000000001 0  0.09 0.07000000000000001 0  0.1 0.07000000000000001 0  0.11 0.07000000000000001 0  0.12 0.07000000000000001 0  0.13 0.07000000000000001 0  0.14 0.07000000000000001 0  0.15 0.07000000000000001 0  0.16 0.07000000000000001 0  0.17 0.0700
[...]
<PointData  Scalars="Indicator Function"> 
<DataArray  type="Float64"  Name="Indicator Function"  format="ascii">-6.0185310762101120e-36  -6.5798032906989636e-20  2.4076973607163524e-20  3.1507754943400297e-19  3.4281271741094224e-19  -3.5109419428136925e-20  -3.0719832808248294e-20  6.5187153169565601e-19  9.1875163114438829e-19  -4.5138983071575840e-36  4.9166587690784599e-18  2.7411712879961248e-18  -4.0835218866426186e-20  -3.6046541937473137e-20  7.7975853103770015e-18  -9.0292892151452856e-21  -5.1803305231232625e-21  2.1470265875541846e-18  -3.5587382477211027e-20  -3.9120451995365728e-35  5.7114962306300535e-18  -6.0185310762101120e-36  -3.8522189525555126e-20  1.2820225249631666e-17  -5.2188071755006841e-20  -2.6094035877503429e-20  -1.9600870633813906e-20  -4.5674380993553658e-20  4.1395193338021775e-17  -1.7490246450177893e-20  -8.3203872097033497e-20  -2.9833972880933861e-20  -4.9012969688412497e-20  -1.5961686430291847e-20  2.2053775846190364e-17  -9.5400003445815622e-20  -1.2754377494048176e-19  -1.4498636288715993e-19  -1.5021320631464145e-19  -1.4630812324133464e-19  8.8737440261323326e-18  -8.4578981316912182e-20  -2.5393066886461866e-20  -3.3784934850008305e-20  -2.0486597457779213e-20  -2.2543675244220410e-20  2.8748377109007102e-17  -1.4755855582159392e-20  -8.2582487924477963e-21  -1.6443809624989152e-21  -2.2905075887612309e-20  -1.1452537943806154e-20  -8.3470019870603896e-21  -9.7192841803828030e-21  -8.8735748653640704e-21  -4.8768419324249745e-21  2.7598945235924957e-19  -7.0658707245562374e-22  -1.3253717774626107e-22  -4.2956619302773359e-22  -3.1755907039006176e-22  -4.3220452822715032e-22  -1.1462060500816157e-21  -1.8273556711307796e-21  -1.3811369078618986e-21  -1.9271274701267464e-21  -2.5163768795615299e-21  -1.9858679284086055e-21  9.2858528233513511e-19  -2.8161832057620140e-23  -1.7823532120007525e-22  -4.6607478831864892e-22  -4.8788475804094655e-22  -5.7163549972119905e-22  -6.6631150628923296e-22  -4.1326125593924116e-22  -5.6913629325195366e-22  -5.2517059254433380e-22  -5.0771572524051018e-22  -7.1750539018967698e-22  -5.6902650913585318e-22  1.8673170367550978e-19  -3.8577042722471149e-22  -3.0080457245841008e-23  -1.5040228622920610e-23  -1.6406527675660349e-22  -1.1920822170770578e-22  -1.1712575981960435e-22  -2.7178664760832253e-22  -1.0423144202468546e-22  -1.7326247918186439e-22  -4.2385680094055832e-23  -4.0604846045257566e-22  2.1246750902375127e-19  -2.5650747193083698e-22  -1.0660185297995415e-22  -4.4322834888672828e-23  -4.6840538114719171e-23  -1.5222892559195708e-23  -7.6114462795978630e-24  0.0000000000000000e+00  -3.5369826840634248e-20  5.5859058811754813e-04  2.3283155617703422e-04  1.5373866055877657e-04  3.5288942317480743e-04  2.7994927697396133e-04  4.9250043452802683e-04  3.0714909308843122e-04  7.0020203291085983e-04  6.0203526574050097e-05  2.6024047706233759e-05  4.3668862374638187e-04  7.5019659568491704e-04  3.6052360803926002e-04  4.6909496733076430e-04  2.6616889195750292e-04  2.9572768200243503e-05  7.7726993329716506e-04  1.3404016533708431e-04  6.4108528985383560e-04  2.0584360278064594e-04  3.1833948008556885e-04  2.4088414025231803e-04  5.7351200344498787e-04  2.1705462112256579e-04  9.4013672203613406e-04  7.0619578946065251e-04  9.2783625112322435e-04  3.5887837533017111e-04  6.3015253916511407e-04  8.4797111258297613e-04  1.0748821531964417e-03  6.7401994375942400e-04  5.4592919622051142e-04  1.4575582128405981e-05  8.3857391821487578e-04  1.2992867207714390e-03  1.6479810287958006e-03  1.7878516050917671e-03  1.8120747573931030e-03  1.7296154585472530e-03  1.3803500582309613e-03  8.3346444585340662e-04  4.5744082627065485e-04  3.7989486686960803e-04  8.1222149943549645e-04  6.0378914487125331e-04  5.3163572561076714e-04  2.9753476947520584e-04  1.1436198688720557e-05  2.9622533959860951e-05  4.1262116492937480e-04  1.0347888739753030e-04  9.8626776455578693e-05  1.2577367022453039e-04  9.6965278716126083e-05  7.1432174270127398e-05  4.4833039874984820e-05  2.4741635047049312e-05  1.5198111837700072e-05  9.5558305329669756e-06  8.8137971246509477e-06  8.6147656490781730e-06  1.8351535500733286e-05  2.3742945527945118e-05  1.3008877890405392e-05  3.4716042225433041e-05  2.7972994795751623e-05  2.1787718851676691e-05  7.4588847009186223e-06  5.0731846544307294e-07  2.9571428718421424e-06  6.9174855360735295e-06  8.7996244499174202e-06  5.8978574691858455e-06  9.0542722711545291e-06  5.8302979342030476e-06  8.3193524382463688e-06  5.3009561204312336e-06  9.5318722415804604e-06  8.1594919107879711e-06  8.8916604021785368e-06  7.4165644733632260e-06  3.2411399725174579e-06  5.4188134417401650e-07  2.0924439005666300e-06  1.9093153267785918e-06  1.1928067480599976e-06  2.2814790237423383e-06  3.7553334677012999e-06  6.2424386934458555e-06  1.5271050646194804e-06  1.9054603988243144e-06  6.3619885813420677e-06  1.7161304808892309e-06  3.7627625795772442e-06  3.8986971641481474e-08  7.9844921075452387e-07  4.4457951461986868e-07  2.7423125302837955e-07  7.6114462795979159e-24  -1.2969863152870882e-20  6.3716615591855735e-04  1.6263752611492223e-04  9.6153600149937287e-05  1.0487223208218464e-05  3.4155828367735309e-04  5.3726346796811842e-04  6.5420599246502156e-04  7.7707834953525908e-04  6.0221472870146792e-05  2.0233120848625659e-04  4.7949135875818664e-04  6.5311471648143646e-04  9.9839107576204351e-04  9.2933349956778608e-04  6.2352855387152540e-04  1.2392702822047233e-03  6.0699571909593111e-05  5.0045123836662717e-04  9.8207298572215436e-04  4.7015246378364598e-04  1.6232697081775200e-03  1.0577532969420782e-03  1.7535993218660640e-03  1.0057598375076313e-03  1.2711715911591071e-03  2.6993387179350413e-05  3.3178994014593824e-04  1.7413057108008798e-03  1.2561905084804308e-03  5.4232639003420861e-05  1.7375685249489960e-03  1.2790568331594190e-04  1.1832289198924226e-03  6.6812480845292264e-04  1.1156799376398476e-03  1.6091412224163409e-03  2.1442488606889742e-03  2.4771035474743081e-03  2.5749128562881315e-03  2.5049735522201188e-03  2.2999990525706879e-03  1.7254926579427590e-03  2.5863488480125244e-04  1.0863294291406174e-03  9.3729510805365401e-04  8.8836532018390306e-04  1.2698539700956202e-03  1.0742141986857703e-03  3.5586102223882516e-04  3.7476224573190607e-04  6.5517684678565336e-04  2.3106750870062750e-04  3.0206951673303204e-04  1.2824950699675709e-04  1.3653419655255877e-04  9.5436039357605932e-05  8.1488389031563220e-05  4.6061130686281524e-05  2.7195575549649928e-05  1.8955125312201114e-05  1.2687620573663347e-05  1.2812902485568296e-05  2.0176863051575344e-05  2.4209963807663638e-05  3.4701139514934882e-05  2.8834320116153978e-05  5.1096606427074071e-05  2.4521602831392939e-05  2.3967246327949177e-05  2.9514414444454671e-06  4.9175505904614609e-06  7.3144304892072196e-06  7.4559583795666805e-06  1.1975963833675650e-05  1.3029167930878816e-05  6.4930976913078354e-06  1.4052979862111838e-05  9.3952943724957015e-06  9.9097936224790042e-06  1.3763841247529647e-05  1.0314776991817327e-05  1.5511253258747566e-05  6.8553133223368397e-06  2.3619867912528902e-06  1.1288597239535228e-06  6.5792126645698395e-06  4.0329321273000141e-06  2.8631628805023282e-06  3.9573093736138365e-06  1.4801825342712896e-06  7.0015690100232350e-06  3.7096480617536876e-06  7.4583386460159573e-06  4.6442465907428684e-06  3.6078791152820035e-06  9.5583658103366580e-07  1.2110128259683016e-06  1.7671873800282366e-06  1.5746695219359907e-07  -7.6304142660699709e-23  -2.3974193899016894e-20  2.3364428344926330e-04  4.5452310386760741e-04  7.5852941692403544e-05  5.2434089566737684e-04  7.3828876327096296e-04  6.5522943985760944e-04  8.6555897152017875e-04  2.2278597001999686e-04  1.3407398986328462e-03  5.0368225519451220e-04  1.4045306578749336e-06  1.0592882802926947e-03  1.2492828833362204e-03  2.5152367013028630e-04  1.0385277028723396e-03  2.1051736647078407e-04  3.4895392117414043e-04  1.5378963603752780e-03  8.2777322240070166e-04  1.7643532365450385e-03  4.5051446949833848e-04  1.1455380562048400e-03  3.2912045708932778e-04  1.6885654884481202e-03  1.4509619789721045e-03  2.4806008921224349e-03  2.0955615635435063e-03  2.0041294217668431e-03  7.9207783594048662e-04  2.1575143479631870e-03  1.9549103459869988e-03  2.1286679910552534e-03  2.2302097677630640e-03  1.0067003116232529e-03  2.1794277439573593e-04  1.9704626257627408e-03  2.2256729983743235e-03  2.7205610633943369e-03  2.9382690471913748e-03  2.9785247363246399e-03  2.8014105049857223e-03  2.1258178664767631e-03  1.3211866607811924e-03  1.3705230073330380e-03  7.4330449013336648e-04  2.3559520665529013e-03  1.3898916110939537e-03  8.2936687102430997e-04  4.8847389525657255e-04  1.7556711930215600e-04  2.0853044156809831e-04  1.0443178594176396e-03  4.4791489416605646e-04  2.4162366676595660e-04  1.2016741631895006e-04  8.4840857521150694e-05  8.4088963647966272e-05  6.8870891865864062e-05  3.9261776359545400e-05  2.6469565537988134e-05  1.7343533471695187e-05  1.6000083471807529e-05  1.4175432202985428e-05  3.2116653940548734e-05  3.3100938614985931e-05  1.4048623472019245e-05  7.7462586491449262e-05  3.0647050351767548e-05  1.9516294143765633e-05  1.3747940828013472e-05  1.8222462505126669e-06  5.0864736904898997e-06  1.1323320382662198e-05  1.2010493466673062e-05  8.6795228722054203e-06  1.8036696064360012e-05  5.7858890899485808e-06  1.7638430461946828e-05  8.0740115343778663e-06  1.6656420768294191e-05  1.4410182156507342e-05  1.3436758282314262e-05  1.4136409883722700e-05  2.6334177669487336e-06  3.1752149521160314e-06  6.7323896061906916e-06  6.8262644793892436e-06  4.0423538723116607e-06  5.8249864478695994e-06  4.5531789835974381e-06  1.5303124426990083e-05  3.9382476175381184e-06  1.8936387882288730e-06  1.2912530995613577e-05  1.2459343469646158e-06  5.3586468426401080e-06  2.3965404550913832e-06  2.1702380932851913e-06  1.5245751604042885e-06  -2.1157730573155350e-22  -1.8798486457096361e-20  4.3188068284048272e-04  6.0399432220737336e-04  7.6710844140281847e-06  1.5389003457321940e-04  4.8470248165351459e-04  6.9567928946624919e-04  1.1621222791963056e-03  1.0551589867646013e-03  6.7431016530704248e-04  2.0212413529862699e-04  2.6843636312987975e-05  4.5093065555635719e-04  9.9813956363767743e-04  1.5129174484431319e-03  7.2981811099728170e-04  9.4452187102342974e-04  1.7796883041290127e-03  3.7112193693957830e-04  1.2001791086642467e-03  6.6541107014139245e-04  4.0456666339547221e-04  2.1257867471505595e-03  1.6757558741754303e-03  2.5037882178259720e-03  1.3089848585652747e-03  1.3330241850999730e-03  5.4178315081498919e-04  1.4922938251334021e-03  3.3040003794893441e-03  1.9865754886136105e-03  7.3397215396689116e-04  3.2199254166754444e-03  4.0574301007133994e-04  2.6724914121888390e-03  8.3810687311212657e-04  1.9058959800823600e-03  2.4147095171017244e-03  2.7799963909315661e-03  3.1582758250408506e-03  3.2593598519781923e-03  3.1752550965998116e-03  2.9157931080075242e-03  2.0160566992901449e-03  6.0334739584977544e-04  1.9800420919570839e-03  1.5195243215579005e-03  2.0461297631481517e-03  2.8323130027965524e-03  2.2468410750985570e-03  1.0038382028624932e-03  3.8095887215819937e-04  9.4947678273824823e-04  5.0555244115672675e-04  7.4470104929057592e-04  1.5250253720233077e-04  9.2610125351966162e-05  4.8311378276732243e-05  7.7410131879289626e-05  4.9412211124737241e-05  3.1479707182351139e-05  2.4957825602492630e-05  1.5887420731613505e-05  1.6056574465977941e-05  2.3740935125182648e-05  3.1073581585308869e-05  4.5367988940882982e-05  4.7332704534823595e-05  7.9114013645933547e-05  7.2223137363297247e-06  2.1049137268030802e-05  3.8658398314100398e-06  6.3406374206214762e-06  7.2107532469874681e-06  9.8043179602038218e-06  1.4734528098289541e-05  1.2667127503211674e-05  1.1800707468620607e-05  1.4601283693662274e-05  1.3497501789641205e-05  1.1768868213913779e-05  1.9725142691121948e-05  1.3022618550293752e-05  2.0439168763019762e-05  8.2944271297364437e-06  5.3293868215302804e-06  2.5334639282179818e-06  1.3800581199369470e-05  7.1886160790695165e-06  1.5527570197727425e-06  4.5187529753825277e-06  2.9508731581024171e-06  1.7425031043903207e-05  8.9611054127292380e-06  1.1539863504287785e-05  9.2187845608728493e-06  1.5507491132356187e-06  1.6373080038134308e-06  2.4560224616137181e-06  2.1962874661773735e-06  5.4863300557029561e-22  -2.2717948771280170e-20  3.3864342641323357e-04  5.8671404780316074e-04  9.5071785074935476e-04  1.2755896621824349e-04  5.4791026445569354e-04  7.0679107929495462e-04  6.7476009701209730e-04  1.3113663015998807e-03  4.1043347220223633e-04  1.6802838162736987e-03  9.1478205843006455e-04  3.4566072538212247e-05  1.3976785247594397e-03  1.4433119544184823e-03  3.7017486962474800e-04  1.2794336266936043e-03  9.7590118316398338e-04  1.0610341951352393e-03  1.4889727545557944e-03  9.5537354174500164e-04  2.3113107893578968e-03  1.1340397647108833e-03  2.0690415758841552e-03  1.1975372829515333e-03  2.7978904534084119e-03  2.5287140958129019e-03  3.5877129210458163e-03  2.7763944859791733e-03  2.1216516692542718e-03  1.7101482195223856e-03  3.5703560246027576e-03  2.4368844487999029e-03  3.4897408909943311e-03  3.0609511536730132e-03  1.8344035454607454e-03  3.1013461640790057e-04  2.9863113249131187e-03  2.8640648224600700e-03  3.2981374164091329e-03  3.5229357501729490e-03  3.5513823056997390e-03  3.3265363064629845e-03  2.5290579622041318e-03  1.5366445403890974e-03  2.2265693671481052e-03  1.3464164704351223e-03  3.6473220776025573e-03  1.3624358883931411e-03  9.5551625208798233e-05  1.1510254398300560e-04  6.5042469766242390e-05  4.5407510062365179e-04  1.5768051868806248e-03  5.3988683850224567e-04  5.3169926815452111e-04  1.0047359429856624e-04  4.2582616669352714e-05  5.2566355092659356e-05  6.8176406994844692e-05  3.7822845157062754e-05  2.6863218496645026e-05  1.9102024676629207e-05  1.7903441762899120e-05  1.4132040896341087e-05  3.6073455095214861e-05  3.7498728237317921e-05  1.9746828376636417e-05  1.0533859774047985e-04  3.7047684705116884e-05  1.0916070470726665e-07  1.7046961160750622e-05  1.3786094199162220e-06  6.8665978165859047e-06  9.9061773026382369e-06  1.2138119137043068e-05  1.1274225601359587e-05  1.6944831527606051e-05  6.9966949362844867e-06  2.0462205622706001e-05  8.1474938211268939e-06  1.9582882002682756e-05  1.8808286918833327e-05  1.4213850677606088e-05  2.0737307755345613e-05  1.0295706791816099e-06  6.3914450961951501e-06  1.0712375922336805e-05  1.4995267951668513e-05  7.1221685540587750e-06  7.3454506117865835e-06  1.5664977751219711e-06  1.9869203112057893e-05  2.3486191633495129e-06  7.0558360985344405e-07  1.8993501846602492e-05  9.8399119275635473e-07  6.5550641929138628e-06  1.4974001105228646e-06  1.4371044662048008e-06  -7.9775323358610373e-23  -1.2160319320613391e-20  4.0925018248383777e-04  6.4700616444500264e-04  5.5169324779924794e-04  6.0878223376302379e-04  2.4651486727015107e-04  5.9085400638232634e-04  1.0659531557219422e-03  1.5189378830820844e-03  1.3686775487042307e-03  6.0052968332727631e-04  5.3318904940809577e-04  3.7049481398041261e-04  4.1582350121557421e-04  1.4740229133542386e-03  1.8620489129643667e-03  4.9652993881017229e-04  8.2365295643154173e-04  1.4783675281545834e-03  1.8852486853870821e-04  1.6644609560310989e-03  1.7718138082741951e-04  1.3171488654450578e-04  1.7878894011654953e-03  1.4824932960924872e-03  2.3998607993122594e-03  8.7533905332513819e-04  7.6068132932130409e-04  1.4312966755617113e-03  2.4824627956300605e-03  4.4295939544851714e-03  2.1054693207260031e-03  1.8533043816853936e-03  4.4342402427831294e-03  9.9094856518724462e-04  4.0522703639840930e-03  1.1715464782403476e-03  2.3644244523179569e-03  3.3833125572723423e-03  3.4064267717699285e-03  3.7668055612446062e-03  3.8616211371502247e-03  3.7659910808790381e-03  3.4281300254405474e-03  2.2259271375013471e-03  7.6606735154660763e-04  3.0307980866761584e-03  1.7651623242045749e-03  3.3210528007129804e-03  3.6535941783375774e-03  2.5191383902757542e-03  1.1680120099217691e-03  3.3320561788537762e-04  9.1461844909828869e-04  9.1469996875707764e-04  1.0564395585928343e-03  2.5854855522472600e-04  4.0840942169009892e-05  1.9973864083758344e-06  6.5492216716910357e-05  5.4376566383496163e-05  3.3153703551057452e-05  2.6532233128170258e-05  1.4802434227121202e-05  1.6307718893626690e-05  2.3423854165925903e-05  3.4735007742238686e-05  5.2603018995502807e-05  5.7906833592440772e-05  1.0483144580144829e-04  3.9692442336009113e-06  6.2459395182028375e-06  1.0543114498819899e-05  4.4218841494960241e-06  8.6442032639230193e-06  9.1720838880808195e-06  1.2020547303873617e-05  1.3500638105564496e-05  1.1808348071511004e-05  1.1352727800303687e-05  1.6580891712734865e-05  8.2674845662946829e-06  2.3225935394687344e-05  1.5219995748641666e-05  2.0177143908598522e-05  1.4176277463756377e-05  9.5205242985021580e-06  6.7423121277066316e-07  1.8748072531820194e-05  1.3439902467730496e-05  1.3807346056559987e-06  7.8856119807925816e-06  7.0577606139796391e-06  2.4770750235016975e-05  7.8259996782316152e-06  1.3482342994223317e-05  1.5626721664338957e-05  2.6537441883211448e-06  4.6743842055741323e-06  8.8300200748087641e-07  -4.9016457974774827e-23  -2.0638964982912823e-20  2.1906083824408282e-04  5.2201633305552634e-04  8.6121903636104892e-04  8.9864106584179127e-04  5.9700069312397070e-05  6.9058060988173517e-04  4.6075927273704203e-04  3.8903130311877967e-04  1.7386639141203947e-03  6.4864411626417220e-04  1.6564049255489138e-03  9.0818116474658496e-04  1.4129065337844374e-04  1.4948480907238035e-03  1.7812468454394179e-03  6.6590987111106567e-04  1.1148049732733641e-03  1.1850450625378781e-03  1.3502934197927687e-03  1.3077900172116482e-03  5.2081438539874935e-04  2.0943072731850264e-03  9.4977769480632712e-04  2.3104233783559493e-03  1.4237482380045552e-03  3.1857574205996172e-03  2.7336494226497857e-03  3.7666577989598953e-03  2.6504067107200901e-03  1.7136798444475660e-03  2.7153016617544440e-03  4.3797338650793495e-03  2.4264376338182432e-03  4.9752816282494323e-03  3.4296026079763966e-03  3.1083789454393611e-03  3.7911989878637386e-04  3.8072686376120516e-03  3.7367081266487874e-03  3.9904473217054386e-03  4.1995789559149226e-03  4.2102005464059880e-03  3.9429518976792791e-03  2.9844297442983086e-03  1.6194709598047361e-03  2.8201093011511686e-03  2.1301784828105449e-03  4.4955791973616778e-03  9.3112005484867336e-04  7.5493523035122018e-04  7.8954051669878113e-04  5.2541484208994376e-04  4.0470925990092500e-04  1.8341057536962215e-03  3.7839762103782483e-04  9.0562595618841313e-04  1.0575999313084648e-04  1.6465733546211189e-05  3.3343509852300992e-06  6.2725632089184982e-05  4.1953637581929204e-05  3.0707039784781897e-05  2.2967053414753505e-05  1.8582925736961185e-05  1.3178242986795235e-05  3.7957630915252519e-05  4.1250344615387977e-05  2.6470739237779825e-05  1.2872980520957481e-04  5.2643209913869866e-05  1.9471360800293790e-05  1.0184293663811443e-05  4.4891610948044499e-06  4.1547697577838815e-06  8.8242594753877844e-06  1.2923981859442407e-05  9.0019154370663093e-06  1.3586476189683117e-05  8.4258802694879710e-06  1.4919334474092082e-05  1.0337109563627452e-05  1.4672547676074111e-05  1.9501544690455810e-05  1.2842609984961584e-05  2.0340094013340822e-05  3.1959870356113635e-06  1.1646543017065234e-05  9.8732646051844061e-06  2.0041859705975077e-05  1.0298618328870677e-05  6.3185562510277579e-06  2.4996319588001944e-06  2.1947786051701765e-05  1.0219152870494190e-05  3.5693694894920336e-06  2.3401864323738749e-05  6.6698107563615549e-06  7.6273003951555683e-06  2.1786811468124719e-06  1.7788820768195579e-22  -1.4021726496433049e-20  3.7179854002543686e-04  6.3444591611643009e-04  7.0063015909549420e-04  6.7787941143289995e-04  9.7860534688468245e-04  1.2667080294178433e-04  4.9265883181977472e-04  9.9195265712522939e-04  1.5756397328782529e-03  1.7499591160717127e-03  7.5762201359260589e-04  5.5958125104973446e-04  6.1531820383781014e-04  4.0583245194252807e-04  1.7910917825969405e-03  2.1211076919156200