<?xml version="1.0"?>
<VTKFile type="UnstructuredGrid"  version="0.1"  >
<UnstructuredGrid>
<Piece  NumberOfPoints="10201" NumberOfCells="20000">
<Points>
<DataArray  type="Float64"  NumberOfComponents="3"  format="ascii">0 0 0  0.01 0 0  0.02 0 0  0.03 0 0  0.04 0 0  0.05 0 0  0.06 0 0  0.07000000000000001 0 0  0.08 0 0  0.09 0 0  0.1 0 0  0.11 0 0  0.12 0 0  0.13 0 0  0.14 0 0  0.15 0 0  0.16 0 0  0.17 0 0  0.18 0 0  0.19 0 0  0.2 0 0  0.21 0 0  0.22 0 0  0.23 0 0  0.24 0 0  0.25 0 0  0.26 0 0  0.27 0 0  0.28 0 0  0.29 0 0  0.3 0 0  0.31 0 0  0.32 0 0  0.33 0 0  0.34 0 0  0.35 0 0  0.36 0 0  0.37 0 0  0.38 0 0  0.39 0 0  0.4 0 0  0.41 0 0  0.42 0 0  0.43 0 0  0.44 0 0  0.45 0 0  0.46 0 0  0.47 0 0  0.48 0 0  0.49 0 0  0.5 0 0  0.51 0 0  0.52 0 0  0.53 0 0  0.54 0 0  0.55 0 0  0.5600000000000001 0 0  0.57 0 0  0.58 0 0  0.59 0 0  0.6 0 0  0.61 0 0  0.62 0 0  0.63 0 0  0.64 0 0  0.65 0 0  0.66 0 0  0.67 0 0  0.68 0 0  0.6899999999999999 0 0  0.7 0 0  0.71 0 0  0.72 0 0  0.73 0 0  0.74 0 0  0.75 0 0  0.76 0 0  0.77 0 0  0.78 0 0  0.79 0 0  0.8 0 0  0.8100000000000001 0 0  0.82 0 0  0.83 0 0  0.84 0 0  0.85 0 0  0.86 0 0  0.87 0 0  0.88 0 0  0.89 0 0  0.9 0 0  0.91 0 0  0.92 0 0  0.93 0 0  0.9399999999999999 0 0  0.95 0 0  0.96 0 0  0.97 0 0  0.98 0 0  0.99 0 0  1 0 0  0 0.01 0  0.01 0.01 0  0.02 0.01 0  0.03 0.01 0  0.04 0.01 0  0.05 0.01 0  0.06 0.01 0  0.07000000000000001 0.01 0  0.08 0.01 0  0.09 0.01 0  0.1 0.01 0  0.11 0.01 0  0.12 0.01 0  0.13 0.01 0  0.14 0.01 0  0.15 0.01 0  0.16 0.01 0  0.17 0.01 0  0.18 0.01 0  0.19 0.01 0  0.2 0.01 0  0.21 0.01 0  0.22 0.01 0  0.23 0.01 0  0.24 0.01 0  0.25 0.01 0  0.26 0.01 0  0.27 0.01 0  0.28 0.01 0  0.29 0.01 0  0.3 0.01 0  0.31 0.01 0  0.32 0.01 0  0.33 0.01 0  0.34 0.01 0  0.35 0.01 0  0.36 0.01 0  0.37 0.01 0  0.38 0.01 0  0.39 0.01 0  0.4 0.01 0  0.41 0.01 0  0.42 0.01 0  0.43 0.01 0  0.44 0.01 0  0.45 0.01 0  0.46 0.01 0  0.47 0.01 0  0.48 0.01 0  0.49 0.01 0  0.5 0.01 0  0.51 0.01 0  0.52 0.01 0  0.53 0.01 0  0.54 0.01 0  0.55 0.01 0  0.5600000000000001 0.01 0  0.57 0.01 0  0.58 0.01 0  0.59 0.01 0  0.6 0.01 0  0.61 0.01 0  0.62 0.01 0  0.63 0.01 0  0.64 0.01 0  0.65 0.01 0  0.66 0.01 0  0.67 0.01 0  0.68 0.01 0  0.6899999999999999 0.01 0  0.7 0.01 0  0.71 0.01 0  0.72 0.01 0  0.73 0.01 0  0.74 0.01 0  0.75 0.01 0  0.76 0.01 0  0.77 0.01 0  0.78 0.01 0  0.79 0.01 0  0.8 0.01 0  0.8100000000000001 0.01 0  0.82 0.01 0  0.83 0.01 0  0.84 0.01 0  0.85 0.01 0  0.86 0.01 0  0.87 0.01 0  0.88 0.01 0  0.89 0.01 0  0.9 0.01 0  0.91 0.01 0  0.92 0.01 0  0.93 0.01 0  0.9399999999999999 0.01 0  0.95 0.01 0  0.96 0.01 0  0.97 0.01 0  0.98 0.01 0  0.99 0.01 0  1 0.01 0  0 0.02 0  0.01 0.02 0  0.02 0.02 0  0.03 0.02 0  0.04 0.02 0  0.05 0.02 0  0.06 0.02 0  0.07000000000000001 0.02 0  0.08 0.02 0  0.09 0.02 0  0.1 0.02 0  0.11 0.02 0  0.12 0.02 0  0.13 0.02 0  0.14 0.02 0  0.15 0.02 0  0.16 0.02 0  0.17 0.02 0  0.18 0.02 0  0.19 0.02 0  0.2 0.02 0  0.21 0.02 0  0.22 0.02 0  0.23 0.02 0  0.24 0.02 0  0.25 0.02 0  0.26 0.02 0  0.27 0.02 0  0.28 0.02 0  0.29 0.02 0  0.3 0.02 0  0.31 0.02 0  0.32 0.02 0  0.33 0.02 0  0.34 0.02 0  0.35 0.02 0  0.36 0.02 0  0.37 0.02 0  0.38 0.02 0  0.39 0.02 0  0.4 0.02 0  0.41 0.02 0  0.42 0.02 0  0.43 0.02 0  0.44 0.02 0  0.45 0.02 0  0.46 0.02 0  0.47 0.02 0  0.48 0.02 0  0.49 0.02 0  0.5 0.02 0  0.51 0.02 0  0.52 0.02 0  0.53 0.02 0  0.54 0.02 0  0.55 0.02 0  0.5600000000000001 0.02 0  0.57 0.02 0  0.58 0.02 0  0.59 0.02 0  0.6 0.02 0  0.61 0.02 0  0.62 0.02 0  0.63 0.02 0  0.64 0.02 0  0.65 0.02 0  0.66 0.02 0  0.67 0.02 0  0.68 0.02 0  0.6899999999999999 0.02 0  0.7 0.02 0  0.71 0.02 0  0.72 0.02 0  0.73 0.02 0  0.74 0.02 0  0.75 0.02 0  0.76 0.02 0  0.77 0.02 0  0.78 0.02 0  0.79 0.02 0  0.8 0.02 0  0.8100000000000001 0.02 0  0.82 0.02 0  0.83 0.02 0  0.84 0.02 0  0.85 0.02 0  0.86 0.02 0  0.87 0.02 0  0.88 0.02 0  0.89 0.02 0  0.9 0.02 0  0.91 0.02 0  0.92 0.02 0  0.93 0.02 0  0.9399999999999999 0.02 0  0.95 0.02 0  0.96 0.02 0  0.97 0.02 0  0.98 0.02 0  0.99 0.02 0  1 0.02 0  0 0.03 0  0.01 0.03 0  0.02 0.03 0  0.03 0.03 0  0.04 0.03 0  0.05 0.03 0  0.06 0.03 0  0.07000000000000001 0.03 0  0.08 0.03 0  0.09 0.03 0  0.1 0.03 0  0.11 0.03 0  0.12 0.03 0  0.13 0.03 0  0.14 0.03 0  0.15 0.03 0  0.16 0.03 0  0.17 0.03 0  0.18 0.03 0  0.19 0.03 0  0.2 0.03 0  0.21 0.03 0  0.22 0.03 0  0.23 0.03 0  0.24 0.03 0  0.25 0.03 0  0.26 0.03 0  0.27 0.03 0  0.28 0.03 0  0.29 0.03 0  0.3 0.03 0  0.31 0.03 0  0.32 0.03 0  0.33 0.03 0  0.34 0.03 0  0.35 0.03 0  0.36 0.03 0  0.37 0.03 0  0.38 0.03 0  0.39 0.03 0  0.4 0.03 0  0.41 0.03 0  0.42 0.03 0  0.43 0.03 0  0.44 0.03 0  0.45 0.03 0  0.46 0.03 0  0.47 0.03 0  0.48 0.03 0  0.49 0.03 0  0.5 0.03 0  0.51 0.03 0  0.52 0.03 0  0.53 0.03 0  0.54 0.03 0  0.55 0.03 0  0.5600000000000001 0.03 0  0.57 0.03 0  0.58 0.03 0  0.59 0.03 0  0.6 0.03 0  0.61 0.03 0  0.62 0.03 0  0.63 0.03 0  0.64 0.03 0  0.65 0.03 0  0.66 0.03 0  0.67 0.03 0  0.68 0.03 0  0.6899999999999999 0.03 0  0.7 0.03 0  0.71 0.03 0  0.72 0.03 0  0.73 0.03 0  0.74 0.03 0  0.75 0.03 0  0.76 0.03 0  0.77 0.03 0  0.78 0.03 0  0.79 0.03 0  0.8 0.03 0  0.8100000000000001 0.03 0  0.82 0.03 0  0.83 0.03 0  0.84 0.03 0  0.85 0.03 0  0.86 0.03 0  0.87 0.03 0  0.88 0.03 0  0.89 0.03 0  0.9 0.03 0  0.91 0.03 0  0.92 0.03 0  0.93 0.03 0  0.9399999999999999 0.03 0  0.95 0.03 0  0.96 0.03 0  0.97 0.03 0  0.98 0.03 0  0.99 0.03 0  1 0.03 0  0 0.04 0  0.01 0.04 0  0.02 0.04 0  0.03 0.04 0  0.04 0.04 0  0.05 0.04 0  0.06 0.04 0  0.07000000000000001 0.04 0  0.08 0.04 0  0.09 0.04 0  0.1 0.04 0  0.11 0.04 0  0.12 0.04 0  0.13 0.04 0  0.14 0.04 0  0.15 0.04 0  0.16 0.04 0  0.17 0.04 0  0.18 0.04 0  0.19 0.04 0  0.2 0.04 0  0.21 0.04 0  0.22 0.04 0  0.23 0.04 0  0.24 0.04 0  0.25 0.04 0  0.26 0.04 0  0.27 0.04 0  0.28 0.04 0  0.29 0.04 0  0.3 0.04 0  0.31 0.04 0  0.32 0.04 0  0.33 0.04 0  0.34 0.04 0  0.35 0.04 0  0.36 0.04 0  0.37 0.04 0  0.38 0.04 0  0.39 0.04 0  0.4 0.04 0  0.41 0.04 0  0.42 0.04 0  0.43 0.04 0  0.44 0.04 0  0.45 0.04 0  0.46 0.04 0  0.47 0.04 0  0.48 0.04 0  0.49 0.04 0  0.5 0.04 0  0.51 0.04 0  0.52 0.04 0  0.53 0.04 0  0.54 0.04 0  0.55 0.04 0  0.5600000000000001 0.04 0  0.57 0.04 0  0.58 0.04 0  0.59 0.04 0  0.6 0.04 0  0.61 0.04 0  0.62 0.04 0  0.63 0.04 0  0.64 0.04 0  0.65 0.04 0  0.66 0.04 0  0.67 0.04 0  0.68 0.04 0  0.6899999999999999 0.04 0  0.7 0.04 0  0.71 0.04 0  0.72 0.04 0  0.73 0.04 0  0.74 0.04 0  0.75 0.04 0  0.76 0.04 0  0.77 0.04 0  0.78 0.04 0  0.79 0.04 0  0.8 0.04 0  0.8100000000000001 0.04 0  0.82 0.04 0  0.83 0.04 0  0.84 0.04 0  0.85 0.04 0  0.86 0.04 0  0.87 0.04 0  0.88 0.04 0  0.89 0.04 0  0.9 0.04 0  0.91 0.04 0  0.92 0.04 0  0.93 0.04 0  0.9399999999999999 0.04 0  0.95 0.04 0  0.96 0.04 0  0.97 0.04 0  0.98 0.04 0  0.99 0.04 0  1 0.04 0  0 0.05 0  0.01 0.05 0  0.02 0.05 0  0.03 0.05 0  0.04 0.05 0  0.05 0.05 0  0.06 0.05 0  0.07000000000000001 0.05 0  0.08 0.05 0  0.09 0.05 0  0.1 0.05 0  0.11 0.05 0  0.12 0.05 0  0.13 0.05 0  0.14 0.05 0  0.15 0.05 0  0.16 0.05 0  0.17 0.05 0  0.18 0.05 0  0.19 0.05 0  0.2 0.05 0  0.21 0.05 0  0.22 0.05 0  0.23 0.05 0  0.24 0.05 0  0.25 0.05 0  0.26 0.05 0  0.27 0.05 0  0.28 0.05 0  0.29 0.05 0  0.3 0.05 0  0.31 0.05 0  0.32 0.05 0  0.33 0.05 0  0.34 0.05 0  0.35 0.05 0  0.36 0.05 0  0.37 0.05 0  0.38 0.05 0  0.39 0.05 0  0.4 0.05 0  0.41 0.05 0  0.42 0.05 0  0.43 0.05 0  0.44 0.05 0  0.45 0.05 0  0.46 0.05 0  0.47 0.05 0  0.48 0.05 0  0.49 0.05 0  0.5 0.05 0  0.51 0.05 0  0.52 0.05 0  0.53 0.05 0  0.54 0.05 0  0.55 0.05 0  0.5600000000000001 0.05 0  0.57 0.05 0  0.58 0.05 0  0.59 0.05 0  0.6 0.05 0  0.61 0.05 0  0.62 0.05 0  0.63 0.05 0  0.64 0.05 0  0.65 0.05 0  0.66 0.05 0  0.67 0.05 0  0.68 0.05 0  0.6899999999999999 0.05 0  0.7 0.05 0  0.71 0.05 0  0.72 0.05 0  0.73 0.05 0  0.74 0.05 0  0.75 0.05 0  0.76 0.05 0  0.77 0.05 0  0.78 0.05 0  0.79 0.05 0  0.8 0.05 0  0.8100000000000001 0.05 0  0.82 0.05 0  0.83 0.05 0  0.84 0.05 0  0.85 0.05 0  0.86 0.05 0  0.87 0.05 0  0.88 0.05 0  0.89 0.05 0  0.9 0.05 0  0.91 0.05 0  0.92 0.05 0  0.93 0.05 0  0.9399999999999999 0.05 0  0.95 0.05 0  0.96 0.05 0  0.97 0.05 0  0.98 0.05 0  0.99 0.05 0  1 0.05 0  0 0.06 0  0.01 0.06 0  0.02 0.06 0  0.03 0.06 0  0.04 0.06 0  0.05 0.06 0  0.06 0.06 0  0.07000000000000001 0.06 0  0.08 0.06 0  0.09 0.06 0  0.1 0.06 0  0.11 0.06 0  0.12 0.06 0  0.13 0.06 0  0.14 0.06 0  0.15 0.06 0  0.16 0.06 0  0.17 0.06 0  0.18 0.06 0  0.19 0.06 0  0.2 0.06 0  0.21 0.06 0  0.22 0.06 0  0.23 0.06 0  0.24 0.06 0  0.25 0.06 0  0.26 0.06 0  0.27 0.06 0  0.28 0.06 0  0.29 0.06 0  0.3 0.06 0  0.31 0.06 0  0.32 0.06 0  0.33 0.06 0  0.34 0.06 0  0.35 0.06 0  0.36 0.06 0  0.37 0.06 0  0.38 0.06 0  0.39 0.06 0  0.4 0.06 0  0.41 0.06 0  0.42 0.06 0  0.43 0.06 0  0.44 0.06 0  0.45 0.06 0  0.46 0.06 0  0.47 0.06 0  0.48 0.06 0  0.49 0.06 0  0.5 0.06 0  0.51 0.06 0  0.52 0.06 0  0.53 0.06 0  0.54 0.06 0  0.55 0.06 0  0.5600000000000001 0.06 0  0.57 0.06 0  0.58 0.06 0  0.59 0.06 0  0.6 0.06 0  0.61 0.06 0  0.62 0.06 0  0.63 0.06 0  0.64 0.06 0  0.65 0.06 0  0.66 0.06 0  0.67 0.06 0  0.68 0.06 0  0.6899999999999999 0.06 0  0.7 0.06 0  0.71 0.06 0  0.72 0.06 0  0.73 0.06 0  0.74 0.06 0  0.75 0.06 0  0.76 0.06 0  0.77 0.06 0  0.78 0.06 0  0.79 0.06 0  0.8 0.06 0  0.8100000000000001 0.06 0  0.82 0.06 0  0.83 0.06 0  0.84 0.06 0  0.85 0.06 0  0.86 0.06 0  0.87 0.06 0  0.88 0.06 0  0.89 0.06 0  0.9 0.06 0  0.91 0.06 0  0.92 0.06 0  0.93 0.06 0  0.9399999999999999 0.06 0  0.95 0.06 0  0.96 0.06 0  0.97 0.06 0  0.98 0.06 0  0.99 0.06 0  1 0.06 0  0 0.07000000000000001 0  0.01 0.07000000000000001 0  0.02 0.07000000000000001 0  0.03 0.07000000000000001 0  0.04 0.07000000000000001 0  0.05 0.07000000000000001 0  0.06 0.07000000000000001 0  0.07000000000000001 0.07000000000000001 0  0.08 0.07000000000000001 0  0.09 0.07000000000000001 0  0.1 0.07000000000000001 0  0.11 0.07000000000000001 0  0.12 0.07000000000000001 0  0.13 0.07000000000000001 0  0.14 0.07000000000000001 0  0.15 0.07000000000000001 0  0.16 0.07000000000000001 0  0.17 0.0700
[...]
<PointData  Scalars="Indicator Function"> 
<DataArray  type="Float64"  Name="Indicator Function"  format="ascii">-1.8055593228630336e-35  -6.4985316397593779e-20  2.6789247685137361e-20  2.9938424605415368e-19  3.4204134426346600e-19  -3.4668693018277221e-20  -3.0256887369819099e-20  6.5203784155643594e-19  9.0619266813445186e-19  -6.0185310762101120e-36  4.8565403379210311e-18  2.6192564733867339e-18  -3.9883719925459165e-20  -3.5771764112113987e-20  7.8915130819371824e-18  -9.0396745482108387e-21  -4.4473264912532307e-21  2.1286279580757959e-18  -3.5485999741697089e-20  -3.3101920919155616e-35  5.8084546629524706e-18  0.0000000000000000e+00  -3.8313459857206000e-20  1.2532463935386766e-17  -5.1786149697818753e-20  -2.5893074848909392e-20  -1.9434071462056823e-20  -4.5347276654395365e-20  4.1364722540342232e-17  -1.7382107254477628e-20  -8.2145397807548805e-20  -2.9500691974412608e-20  -4.8456109948411791e-20  -1.7073324163362711e-20  2.0313138858507629e-17  -9.3444130841064600e-20  -1.2546809296210861e-19  -1.4292764842056383e-19  -1.4825716693621668e-19  -1.4454551221276796e-19  8.9194876787408236e-18  -8.2243561419643229e-20  -2.5180814420956145e-20  -3.3249582684667573e-20  -2.1362918479261330e-20  -2.2342563688768814e-20  2.7825259137263729e-17  -1.4814323225672269e-20  -8.4829685314047146e-21  -2.0316683199716353e-21  -2.3035897244576546e-20  -1.1517948622288277e-20  -8.3805561465077392e-21  -9.9870072797127174e-21  -8.9940282376535385e-21  -4.9460265078143222e-21  2.8894271422932411e-19  -4.8965371973477114e-22  -2.3938338787784140e-22  -2.1303059112049352e-22  -5.7951903921056076e-22  -4.1229309039456328e-22  -1.1987662757931261e-21  -1.7858005085939330e-21  -6.7083057531372237e-22  -2.7815585807150184e-21  -2.6287405828645317e-21  -1.1190391507502743e-21  2.4623876689453361e-20  -5.3009961956388369e-23  -2.7636387043614072e-22  -3.7651188493902120e-22  -4.1782034368090361e-22  -4.3892254335274625e-22  -4.2324467000517783e-22  -5.2181225358536218e-22  -3.5332824558298644e-22  -3.0005237777602075e-22  0.0000000000000000e+00  -6.7944463308070872e-22  -5.7026104036263117e-22  2.6071622066528992e-19  -4.9216612066132981e-22  -1.7204146827256593e-22  -1.6588025907255236e-22  -3.9929762468134719e-23  -3.7202279414623789e-23  -7.9038131127788388e-23  -2.1040803805523931e-22  -3.1410064898199383e-23  -1.7280941548066921e-22  2.3509887016445750e-38  -4.4032485086680232e-22  5.2910449962092581e-20  -1.7124964003042277e-22  -5.7735324995315033e-24  -2.5638415281769098e-23  -3.0741304443147696e-23  1.0285575569695016e-38  -1.4693679385278594e-39  1.1754943508222875e-38  -3.4789458799022169e-20  5.5009663825077984e-04  2.3109671405871889e-04  1.4970072370250423e-04  3.5209537613034163e-04  2.7589671694073186e-04  4.8658729336377568e-04  3.0176598005454626e-04  6.9580320343424064e-04  6.5495225235964003e-05  2.1501866081777523e-05  4.3387594667846339e-04  7.4322643678391865e-04  3.4686800638582922e-04  4.7097281090989089e-04  2.5636331842744512e-04  3.4662640493768836e-05  7.7019656801535395e-04  1.3369946120116044e-04  6.3925894085430600e-04  1.9782181438341115e-04  3.1823601727637955e-04  2.3218985740639406e-04  5.7409900544155715e-04  2.1981482670429915e-04  9.3289633792819704e-04  7.0018621595848525e-04  9.1522185998226696e-04  3.5929298298087133e-04  6.2625641403343498e-04  8.3385097752004106e-04  1.0628744430650910e-03  6.6664174366256245e-04  5.3958680299868306e-04  3.7772263861036167e-05  8.1586479380255724e-04  1.2754074144418349e-03  1.6225285196232386e-03  1.7634913568595502e-03  1.7890180086460278e-03  1.7093914554349831e-03  1.3620554787525945e-03  8.0054055087621376e-04  4.5361722577241462e-04  3.7216261986936633e-04  8.0497569202596267e-04  6.0446628461249439e-04  5.3374224447106961e-04  3.0563115133623928e-04  2.5525780093454399e-05  3.6599282755058787e-05  4.1497783298727976e-04  9.7131972618502612e-05  1.0240469184502778e-04  1.2870758313132850e-04  9.7668217312960487e-05  7.1354593348339708e-05  4.3582554102454347e-05  2.3006363003481135e-05  1.3646869525700844e-05  8.8184238044786910e-06  7.1686054312350688e-06  1.1186493271114831e-05  1.6001806776307542e-05  2.4169218632092934e-05  1.5835724449500067e-05  4.2190242525719404e-05  2.6260059174909895e-05  1.2317549692799321e-05  5.1081390088489272e-06  9.5494257965486228e-07  4.5010576058320534e-06  4.5321063359317311e-06  5.2607290084706552e-06  5.9619855439014154e-06  6.6569813731414774e-06  6.0716431966468418e-06  7.5703278029614764e-06  1.6200992054941318e-06  1.1302233887178413e-05  6.5886694418554420e-06  9.3149634622189982e-06  1.4490629761931705e-05  1.6207617494931314e-06  3.0992235696184028e-06  1.4386213069798700e-06  1.3403533736722653e-06  5.5650876787032998e-07  5.3174147891112411e-06  1.1316668525697094e-06  3.2494394882939258e-06  1.4883379325124600e-06  3.0061770153179290e-06  6.4290988294837599e-06  3.1116965554632983e-06  2.3608645670823769e-06  1.0400671525400609e-07  4.0985727241037857e-07  3.4885747273498214e-07  1.2796275790545457e-07  -3.1905233148011518e-23  -1.3070824742332588e-20  6.2671117473478953e-04  1.6054350056822096e-04  9.7307683605893052e-05  1.0837522056851999e-05  3.4595200238247552e-04  5.3181105217353414e-04  6.4892058173170457e-04  7.7145090726389955e-04  5.1061870474270001e-05  2.2007198082218621e-04  4.6940621913710805e-04  6.3760536003550907e-04  9.9509560583679641e-04  9.0820119477779554e-04  6.1146882755348526e-04  1.2319869163121082e-03  4.6140684240318832e-05  5.0546886985452296e-04  9.6504401487626501e-04  4.6151411697909834e-04  1.6055917563457896e-03  1.0458739908592600e-03  1.7349273382427516e-03  9.9095012519964144e-04  1.2511544274316866e-03  1.6383496651269700e-05  3.3538759808283264e-04  1.7277353177709094e-03  1.2371596048039073e-03  6.6054293966313370e-05  1.7205291285098546e-03  1.3653568417461813e-04  1.1784591207094212e-03  6.5839980972071186e-04  1.0609684296459016e-03  1.5823177093044572e-03  2.1086055313771215e-03  2.4411594755505209e-03  2.5411817344292162e-03  2.4723211896430040e-03  2.2662325023725420e-03  1.6920342475965629e-03  2.7207514669851400e-04  1.0773938223934130e-03  9.3233209428819348e-04  8.7034616345224710e-04  1.2488343045522884e-03  1.0521641104723053e-03  3.3199391059281349e-04  3.7827896224562472e-04  6.4372797106891969e-04  2.4898592684305816e-04  3.1027537108031762e-04  1.3249950446779247e-04  1.3910308421187124e-04  9.4767701733067808e-05  7.9881210603004697e-05  4.4706894876801115e-05  2.6856721962370724e-05  1.5858560113830059e-05  1.4455792584981392e-05  1.1953510291848657e-05  2.0236968159947405e-05  3.0317970768248032e-05  9.8789087340067764e-06  5.7883604500571745e-05  4.6069301153776757e-05  1.5153988994913831e-05  1.0007157502194473e-05  2.4001097468505402e-06  3.1361625840790713e-06  6.7093387789499738e-06  9.0252795044150021e-06  8.4264275613326000e-06  8.8396742970587643e-06  9.8650018922489168e-06  8.7388662421482787e-06  1.4247201735660172e-05  3.5153006217908228e-07  2.1784811390182185e-05  6.0425523446592808e-06  1.8867972497915382e-05  1.4682425304954453e-05  6.6465877442484488e-06  2.2107679292989481e-06  1.6553849239727954e-06  1.4223109108263394e-06  4.3902683835521642e-06  4.0975146633825553e-06  5.6813036483397386e-07  1.0061035420427243e-05  3.1573135318731782e-06  9.4836335986488758e-06  7.4204488349855229e-06  2.3388518609677381e-06  1.6029048922000240e-06  3.2698202799548730e-07  2.4234835450987864e-07  4.5645666573874653e-07  -1.2453779189726927e-23  -2.3795197168296083e-20  2.3546304575597710e-04  4.5429818660031295e-04  7.3767539235503689e-05  5.1405235600101022e-04  7.3173230195124615e-04  6.4602605826713435e-04  8.5600002683969376e-04  2.1816913905508555e-04  1.3371116744751608e-03  4.9675388257799371e-04  3.8851219236243330e-06  1.0546914308937716e-03  1.2323562112700884e-03  2.3256691358608287e-04  1.0463749220751956e-03  2.2582822931523051e-04  3.6513816019442672e-04  1.5125356951788693e-03  8.1712387488468434e-04  1.7537901031644662e-03  4.6072476967007721e-04  1.1441545139016271e-03  3.3927221520061693e-04  1.6887049206830821e-03  1.4486284124302670e-03  2.4592398076052941e-03  2.0715704172594327e-03  1.9746910358523560e-03  7.9721357756910047e-04  2.1379143981528422e-03  1.9203452760993903e-03  2.1086130703368375e-03  2.2003321463878742e-03  9.9791005902628307e-04  1.7562908452750265e-04  1.9307560207495870e-03  2.1938102892871732e-03  2.6775889697690405e-03  2.8956802121529865e-03  2.9381548136828868e-03  2.7661272710047305e-03  2.0915063492251387e-03  1.2543031007842161e-03  1.3435164359352854e-03  7.2527755538121679e-04  2.3283814394399762e-03  1.3962195712338434e-03  8.4556946183503832e-04  5.1730260583607898e-04  2.2043741411848151e-04  2.3457660403059419e-04  1.0481201693674316e-03  4.2819266909735622e-04  2.5909045122574423e-04  1.2564142099399451e-04  8.4096885253278603e-05  8.2915537178798257e-05  6.7363809469364380e-05  3.7518616078126742e-05  2.5418206374160589e-05  1.5945127454370768e-05  1.4045797948021613e-05  1.9590493579318588e-05  2.4461778693662887e-05  3.8420194884350040e-05  4.2157241412534226e-05  7.5429377904032637e-05  2.1522946681572311e-05  5.7824144710474342e-06  7.5327261666310516e-06  9.7050277681936946e-07  6.5021727264654807e-06  6.8159049164617446e-06  9.6715178314728456e-06  1.1123382879983428e-05  1.1521327439202500e-05  1.0649314969804067e-05  1.3332342264466184e-05  6.7149694240075836e-06  1.5842339062853696e-05  1.7284091344784051e-05  1.0137578697327369e-05  2.7317407948222755e-05  1.2052834050516558e-06  8.8651174106751618e-06  3.4781987437987332e-06  6.6449886225005401e-06  1.1596472645142265e-06  1.0572174165618513e-05  1.6472908024210641e-06  6.0578712957809083e-06  4.8521188944720919e-06  7.2021799092744775e-07  1.2596481887130403e-05  3.7595459203521322e-06  2.6523174801023176e-06  3.2045067372784572e-07  1.6654646662627613e-08  1.9182412350442856e-07  2.7917990832029328e-37  -1.8822373006344276e-20  4.2865616440138359e-04  5.9638829931107299e-04  1.3248875926656260e-05  1.5269589571061112e-04  4.8051788397281858e-04  6.9737744191970569e-04  1.1543166326305645e-03  1.0474276834981045e-03  6.6715065218391357e-04  1.9316171634118306e-04  5.9903907284185212e-05  4.2718556809424370e-04  9.7975852563858827e-04  1.5127746943494219e-03  6.9469483854786086e-04  9.1362478956299022e-04  1.7582896681326628e-03  3.7982707141897794e-04  1.2038108322295611e-03  6.4481487257043502e-04  3.8846580288713655e-04  2.0940794817819277e-03  1.6513518603995308e-03  2.4688718416923882e-03  1.2801219932904926e-03  1.3017416938103557e-03  5.5556208670095794e-04  1.4884799132064384e-03  3.2727889740153020e-03  1.9525212711164512e-03  7.4687733046649300e-04  3.1862675895938143e-03  4.1710618313044835e-04  2.6561193552515155e-03  8.1970034465311597e-04  1.8075021059130137e-03  2.3877354430208455e-03  2.7374106856633139e-03  3.1091940386858445e-03  3.2123573961853331e-03  3.1294988259976965e-03  2.8712768760978482e-03  1.9746046605442252e-03  6.3118510082733610e-04  1.9493244412402304e-03  1.5149635507903758e-03  2.0069741830154027e-03  2.7973004930113600e-03  2.2175666224346631e-03  9.8206760109193674e-04  3.7343977699769881e-04  9.2155259240633499e-04  5.3778742573555051e-04  7.5042969305750596e-04  1.6318907598269773e-04  9.6061906454085512e-05  4.5681074904605351e-05  7.5183534718270152e-05  4.8967674335264454e-05  3.1415571451646057e-05  2.0517563242716007e-05  1.8625960978239857e-05  1.3218574927206828e-05  2.5257761907701510e-05  3.6427703866013355e-05  1.3648669672107234e-05  9.2958969109990729e-05  5.6250851218471996e-05  1.4874690427026198e-06  5.4455191069773314e-06  4.5164218224800706e-06  2.3505595893453496e-06  7.1694499062923000e-06  9.1863890018731682e-06  8.6149956823448355e-06  1.0232175371195625e-05  1.1460961018036316e-05  1.0169872801142356e-05  1.6411319061423386e-05  1.0575004970199741e-06  2.8599014309422393e-05  8.3570199377688836e-06  1.9631380613536015e-05  2.2827195301944600e-05  1.5589892398060212e-05  4.0568032473022920e-06  8.3631713653396628e-06  7.2802319829347885e-06  6.5067488097907690e-06  8.1080895998282953e-06  3.7830056696186811e-06  1.4424300867506403e-05  5.9466482779771758e-06  1.0368526347701316e-05  9.8772670080952421e-06  5.9916633870433287e-07  1.2477382561506783e-06  1.1009780993240977e-06  1.0864061879002357e-07  2.7138446187796505e-23  -2.2340547638443235e-20  3.3907372823040177e-04  5.8399883622589665e-04  9.4480999983578720e-04  1.2679689440060461e-04  5.3767407898379154e-04  6.9559637580023169e-04  6.6337556122195304e-04  1.3005030172040667e-03  4.0804076769987478e-04  1.6748173835371204e-03  9.1183917721990098e-04  4.4742112771961717e-05  1.3846526413496259e-03  1.4162893578212050e-03  3.5721180354218951e-04  1.2830666182186699e-03  9.8087247826541472e-04  1.0745011252985435e-03  1.4507660024951994e-03  9.3365608699600420e-04  2.2902436163748669e-03  1.1372850578789022e-03  2.0596183734950891e-03  1.1999609788802231e-03  2.7884336243518266e-03  2.5167356178671138e-03  3.5480737835977111e-03  2.7364337349714608e-03  2.0815394912720542e-03  1.7121586437166233e-03  3.5321746808977994e-03  2.3840758786621602e-03  3.4563967561637922e-03  3.0109261707678340e-03  1.8207334987400681e-03  2.6546134464402131e-04  2.9091033468589332e-03  2.8290989114659747e-03  3.2435814465022173e-03  3.4667547133223368e-03  3.4987398723411783e-03  3.2804557754017392e-03  2.4831856291801691e-03  1.4525344101444060e-03  2.1880747497228124e-03  1.3128211494013288e-03  3.6044980684889669e-03  1.3805919358419703e-03  1.2612138967112597e-04  7.0143957630417424e-05  2.2729705768937232e-06  4.9313390477106480e-04  1.5735463270846687e-03  5.0491265927339601e-04  5.5715221888388085e-04  1.0600627318750680e-04  3.8892689130118685e-05  4.8529079488446155e-05  6.6012833061247932e-05  3.6967670044708269e-05  2.6855572614376674e-05  1.6204137832631938e-05  1.5588085554029000e-05  1.9764259133296248e-05  2.6906486709192005e-05  4.6805585156654349e-05  5.2246098329115122e-05  1.0324965826656441e-04  1.6112797373539488e-05  6.9250214559184677e-06  6.8657647176178777e-06  6.3467360889378272e-07  5.1706022843165823e-06  6.1928414486320821e-06  9.3195990249228538e-06  1.0136668352184656e-05  1.1011816565919338e-05  9.4690950226305640e-06  1.4771414466219479e-05  5.5665804001678204e-06  1.1840328923934824e-05  2.5466199185390587e-05  7.3402383892968273e-06  2.9434516301420670e-05  1.3969029017509207e-06  1.7772273298044198e-05  5.3432687321582383e-06  1.2502552155676045e-05  2.4186784166670946e-06  1.3178253108794147e-05  4.9374644285890480e-07  1.0587069047024905e-05  9.2012926662932205e-06  3.8585721321658134e-06  1.5890379221754112e-05  4.2036138163485668e-06  8.2854415110316210e-07  9.7154831411266053e-07  9.3010062233170777e-07  -5.1630956306542274e-23  -1.1712631947814618e-20  4.0245152807898322e-04  6.4249461373000103e-04  5.4434748789598277e-04  6.0948384388406210e-04  2.4440865030793461e-04  5.8277954345429173e-04  1.0623922113466540e-03  1.5077794601799485e-03  1.3584683966425635e-03  5.9474184694801549e-04  5.2866932518358769e-04  3.3674219764435960e-04  3.9012780564913338e-04  1.4546445238936606e-03  1.8565607468274271e-03  4.5700466313604131e-04  7.8111442368853344e-04  1.4532805285202607e-03  1.8919492677889929e-04  1.6565098132718112e-03  1.6319334297912403e-04  1.4730563776623772e-04  1.7514151913071109e-03  1.4526760689212077e-03  2.3583458825206607e-03  8.3974208072106231e-04  7.2638519230439102e-04  1.4386392159228946e-03  2.4685340794886176e-03  4.3786194861391743e-03  2.0608208493469653e-03  1.8592125002010393e-03  4.3780173780918162e-03  1.0020405170776178e-03  4.0149276805012861e-03  1.1470042705271947e-03  2.2419202722714967e-03  3.3406563786731172e-03  3.3563626657588936e-03  3.7022236195893652e-03  3.7988981939697714e-03  3.7061392317323614e-03  3.3733559974054653e-03  2.1742527282487671e-03  8.0157552465335061e-04  2.9740377079788584e-03  1.7627353374792909e-03  3.2616969538016207e-03  3.6174998451058830e-03  2.4935586756086718e-03  1.1619543525444470e-03  3.0059777513058021e-04  8.6489827620358378e-04  9.5190103736562687e-04  1.0523670837674440e-03  2.8130335247033498e-04  4.4609494443349076e-05  4.4191117263629927e-06  5.9752300908499818e-05  5.3415641595170475e-05  3.3000418612488568e-05  2.2226813763608063e-05  1.8371846536297699e-05  1.2661547605432507e-05  2.7060810409854619e-05  3.9953398883377563e-05  1.8739554220939793e-05  1.1622406193836715e-04  6.9414521338396440e-05  1.4790121627367177e-05  1.6954585728243349e-07  6.1150299942150956e-06  1.5550968869562696e-06  6.5236496559865087e-06  8.5999467074637808e-06  8.4832510748991305e-06  9.5311848716143134e-06  1.1441286791383352e-05  9.4237148239699334e-06  1.7706785249230880e-05  2.5381046832913453e-07  2.2299441201224156e-05  1.7172993401272877e-05  1.6922385017880542e-05  2.5961411533438072e-05  1.8092478675928009e-05  9.1970536173634095e-06  1.3761207732563560e-05  1.3691539595784057e-05  5.4873861159089289e-06  1.0395757675931276e-05  6.6747921749125804e-06  1.7863070111877931e-05  1.3082753964314230e-06  7.7533453048192994e-06  1.4270516302038409e-05  1.2953453668805460e-06  1.1338205364273347e-06  8.6900998370960838e-07  -4.8239744627176795e-23  -2.0524365484565242e-20  2.1099601950282267e-04  5.1522596383624336e-04  8.5192556566622720e-04  8.9095217635520722e-04  5.9669262740288721e-05  6.7934338920904813e-04  4.5074882286561571e-04  3.7816714013457896e-04  1.7239389070557659e-03  6.4518576427857917e-04  1.6468213402793268e-03  9.0291756117913109e-04  1.1648811205641600e-04  1.4694063034884186e-03  1.7490479442380405e-03  6.5711606262379332e-04  1.1108509174391722e-03  1.1752808106734963e-03  1.3555266962239152e-03  1.2723999913425994e-03  4.9881915747074462e-04  2.0697781575975543e-03  9.5001119835127123e-04  2.2934542598523669e-03  1.4191354849592726e-03  3.1681252430134899e-03  2.7111406548482823e-03  3.7153490994954190e-03  2.6009565690011025e-03  1.6701722179885889e-03  2.7087689022517801e-03  4.3245226984269742e-03  2.3599847990522483e-03  4.9205753445435976e-03  3.3642883770373766e-03  3.0808245549047869e-03  3.3025022808348101e-04  3.6897685295252578e-03  3.6951416709590360e-03  3.9229945044389125e-03  4.1248954382948596e-03  4.1399251549560931e-03  3.8811415101791136e-03  2.9246657893689625e-03  1.5218758361189534e-03  2.7812931408702181e-03  2.0688335598422454e-03  4.4440764577580007e-03  9.5636105727508959e-04  7.1607298820256611e-04  7.4663180918743092e-04  4.6955514257642845e-04  4.3604782315544182e-04  1.8129191142420618e-03  3.3446732430809348e-04  9.2932663520170088e-04  1.1938933066408312e-04  1.8506902692354017e-05  2.2693516414210030e-06  5.8386787998200220e-05  4.1059394072079785e-05  3.0777007132611911e-05  1.8274109404361470e-05  1.6065037026214098e-05  1.9174999323304743e-05  2.9980179231411563e-05  5.4234807686812400e-05  5.6668823643063292e-05  1.2856442885868596e-04  1.5642928036519570e-05  1.9596002305805236e-05  6.1646387049051699e-06  2.8785643802633839e-06  4.0922822005940018e-06  5.9851972111792890e-06  8.8031143918153444e-06  1.0356887415836092e-05  1.0796629815749908e-05  8.2800336752768754e-06  1.4741730071673958e-05  5.9155804331951388e-06  1.4154933727510877e-05  2.2139160155205418e-05  1.2415094728247077e-05  2.7293710407835058e-05  5.2767403843452157e-06  2.4781882982737466e-05  4.4491045760595659e-06  1.8988139209977200e-05  8.6452204866013763e-06  1.3752253612536643e-05  8.2584403238021409e-07  1.6980302368632553e-05  1.1583635426334740e-05  3.6176135332959557e-07  1.6499489625149767e-05  8.1232215807245329e-06  1.9565977666512254e-06  5.2252999495147257e-07  7.5880848018467934e-23  -1.3449080560521922e-20  3.6973409899321671e-04  6.2717755695758089e-04  6.9396729512321165e-04  6.6578860181692285e-04  9.7380234206074535e-04  1.2462882214741002e-04  4.8274431780677153e-04  9.8674446935588262e-04  1.5616219840312565e-03  1.7370466349306279e-03  7.5215683314176936e-04  5.5593294844851631e-04  5.8845103751040920e-04  3.9351622052759749e-04  1.7631459312119283e-03  2.1065736744535855e-03