<?xml version="1.0"?>
<VTKFile type="UnstructuredGrid"  version="0.1"  >
<UnstructuredGrid>
<Piece  NumberOfPoints="10201" NumberOfCells="20000">
<Points>
<DataArray  type="Float64"  NumberOfComponents="3"  format="ascii">0 0 0  0.01 0 0  0.02 0 0  0.03 0 0  0.04 0 0  0.05 0 0  0.06 0 0  0.07000000000000001 0 0  0.08 0 0  0.09 0 0  0.1 0 0  0.11 0 0  0.12 0 0  0.13 0 0  0.14 0 0  0.15 0 0  0.16 0 0  0.17 0 0  0.18 0 0  0.19 0 0  0.2 0 0  0.21 0 0  0.22 0 0  0.23 0 0  0.24 0 0  0.25 0 0  0.26 0 0  0.27 0 0  0.28 0 0  0.29 0 0  0.3 0 0  0.31 0 0  0.32 0 0  0.33 0 0  0.34 0 0  0.35 0 0  0.36 0 0  0.37 0 0  0.38 0 0  0.39 0 0  0.4 0 0  0.41 0 0  0.42 0 0  0.43 0 0  0.44 0 0  0.45 0 0  0.46 0 0  0.47 0 0  0.48 0 0  0.49 0 0  0.5 0 0  0.51 0 0  0.52 0 0  0.53 0 0  0.54 0 0  0.55 0 0  0.5600000000000001 0 0  0.57 0 0  0.58 0 0  0.59 0 0  0.6 0 0  0.61 0 0  0.62 0 0  0.63 0 0  0.64 0 0  0.65 0 0  0.66 0 0  0.67 0 0  0.68 0 0  0.6899999999999999 0 0  0.7 0 0  0.71 0 0  0.72 0 0  0.73 0 0  0.74 0 0  0.75 0 0  0.76 0 0  0.77 0 0  0.78 0 0  0.79 0 0  0.8 0 0  0.8100000000000001 0 0  0.82 0 0  0.83 0 0  0.84 0 0  0.85 0 0  0.86 0 0  0.87 0 0  0.88 0 0  0.89 0 0  0.9 0 0  0.91 0 0  0.92 0 0  0.93 0 0  0.9399999999999999 0 0  0.95 0 0  0.96 0 0  0.97 0 0  0.98 0 0  0.99 0 0  1 0 0  0 0.01 0  0.01 0.01 0  0.02 0.01 0  0.03 0.01 0  0.04 0.01 0  0.05 0.01 0  0.06 0.01 0  0.07000000000000001 0.01 0  0.08 0.01 0  0.09 0.01 0  0.1 0.01 0  0.11 0.01 0  0.12 0.01 0  0.13 0.01 0  0.14 0.01 0  0.15 0.01 0  0.16 0.01 0  0.17 0.01 0  0.18 0.01 0  0.19 0.01 0  0.2 0.01 0  0.21 0.01 0  0.22 0.01 0  0.23 0.01 0  0.24 0.01 0  0.25 0.01 0  0.26 0.01 0  0.27 0.01 0  0.28 0.01 0  0.29 0.01 0  0.3 0.01 0  0.31 0.01 0  0.32 0.01 0  0.33 0.01 0  0.34 0.01 0  0.35 0.01 0  0.36 0.01 0  0.37 0.01 0  0.38 0.01 0  0.39 0.01 0  0.4 0.01 0  0.41 0.01 0  0.42 0.01 0  0.43 0.01 0  0.44 0.01 0  0.45 0.01 0  0.46 0.01 0  0.47 0.01 0  0.48 0.01 0  0.49 0.01 0  0.5 0.01 0  0.51 0.01 0  0.52 0.01 0  0.53 0.01 0  0.54 0.01 0  0.55 0.01 0  0.5600000000000001 0.01 0  0.57 0.01 0  0.58 0.01 0  0.59 0.01 0  0.6 0.01 0  0.61 0.01 0  0.62 0.01 0  0.63 0.01 0  0.64 0.01 0  0.65 0.01 0  0.66 0.01 0  0.67 0.01 0  0.68 0.01 0  0.6899999999999999 0.01 0  0.7 0.01 0  0.71 0.01 0  0.72 0.01 0  0.73 0.01 0  0.74 0.01 0  0.75 0.01 0  0.76 0.01 0  0.77 0.01 0  0.78 0.01 0  0.79 0.01 0  0.8 0.01 0  0.8100000000000001 0.01 0  0.82 0.01 0  0.83 0.01 0  0.84 0.01 0  0.85 0.01 0  0.86 0.01 0  0.87 0.01 0  0.88 0.01 0  0.89 0.01 0  0.9 0.01 0  0.91 0.01 0  0.92 0.01 0  0.93 0.01 0  0.9399999999999999 0.01 0  0.95 0.01 0  0.96 0.01 0  0.97 0.01 0  0.98 0.01 0  0.99 0.01 0  1 0.01 0  0 0.02 0  0.01 0.02 0  0.02 0.02 0  0.03 0.02 0  0.04 0.02 0  0.05 0.02 0  0.06 0.02 0  0.07000000000000001 0.02 0  0.08 0.02 0  0.09 0.02 0  0.1 0.02 0  0.11 0.02 0  0.12 0.02 0  0.13 0.02 0  0.14 0.02 0  0.15 0.02 0  0.16 0.02 0  0.17 0.02 0  0.18 0.02 0  0.19 0.02 0  0.2 0.02 0  0.21 0.02 0  0.22 0.02 0  0.23 0.02 0  0.24 0.02 0  0.25 0.02 0  0.26 0.02 0  0.27 0.02 0  0.28 0.02 0  0.29 0.02 0  0.3 0.02 0  0.31 0.02 0  0.32 0.02 0  0.33 0.02 0  0.34 0.02 0  0.35 0.02 0  0.36 0.02 0  0.37 0.02 0  0.38 0.02 0  0.39 0.02 0  0.4 0.02 0  0.41 0.02 0  0.42 0.02 0  0.43 0.02 0  0.44 0.02 0  0.45 0.02 0  0.46 0.02 0  0.47 0.02 0  0.48 0.02 0  0.49 0.02 0  0.5 0.02 0  0.51 0.02 0  0.52 0.02 0  0.53 0.02 0  0.54 0.02 0  0.55 0.02 0  0.5600000000000001 0.02 0  0.57 0.02 0  0.58 0.02 0  0.59 0.02 0  0.6 0.02 0  0.61 0.02 0  0.62 0.02 0  0.63 0.02 0  0.64 0.02 0  0.65 0.02 0  0.66 0.02 0  0.67 0.02 0  0.68 0.02 0  0.6899999999999999 0.02 0  0.7 0.02 0  0.71 0.02 0  0.72 0.02 0  0.73 0.02 0  0.74 0.02 0  0.75 0.02 0  0.76 0.02 0  0.77 0.02 0  0.78 0.02 0  0.79 0.02 0  0.8 0.02 0  0.8100000000000001 0.02 0  0.82 0.02 0  0.83 0.02 0  0.84 0.02 0  0.85 0.02 0  0.86 0.02 0  0.87 0.02 0  0.88 0.02 0  0.89 0.02 0  0.9 0.02 0  0.91 0.02 0  0.92 0.02 0  0.93 0.02 0  0.9399999999999999 0.02 0  0.95 0.02 0  0.96 0.02 0  0.97 0.02 0  0.98 0.02 0  0.99 0.02 0  1 0.02 0  0 0.03 0  0.01 0.03 0  0.02 0.03 0  0.03 0.03 0  0.04 0.03 0  0.05 0.03 0  0.06 0.03 0  0.07000000000000001 0.03 0  0.08 0.03 0  0.09 0.03 0  0.1 0.03 0  0.11 0.03 0  0.12 0.03 0  0.13 0.03 0  0.14 0.03 0  0.15 0.03 0  0.16 0.03 0  0.17 0.03 0  0.18 0.03 0  0.19 0.03 0  0.2 0.03 0  0.21 0.03 0  0.22 0.03 0  0.23 0.03 0  0.24 0.03 0  0.25 0.03 0  0.26 0.03 0  0.27 0.03 0  0.28 0.03 0  0.29 0.03 0  0.3 0.03 0  0.31 0.03 0  0.32 0.03 0  0.33 0.03 0  0.34 0.03 0  0.35 0.03 0  0.36 0.03 0  0.37 0.03 0  0.38 0.03 0  0.39 0.03 0  0.4 0.03 0  0.41 0.03 0  0.42 0.03 0  0.43 0.03 0  0.44 0.03 0  0.45 0.03 0  0.46 0.03 0  0.47 0.03 0  0.48 0.03 0  0.49 0.03 0  0.5 0.03 0  0.51 0.03 0  0.52 0.03 0  0.53 0.03 0  0.54 0.03 0  0.55 0.03 0  0.5600000000000001 0.03 0  0.57 0.03 0  0.58 0.03 0  0.59 0.03 0  0.6 0.03 0  0.61 0.03 0  0.62 0.03 0  0.63 0.03 0  0.64 0.03 0  0.65 0.03 0  0.66 0.03 0  0.67 0.03 0  0.68 0.03 0  0.6899999999999999 0.03 0  0.7 0.03 0  0.71 0.03 0  0.72 0.03 0  0.73 0.03 0  0.74 0.03 0  0.75 0.03 0  0.76 0.03 0  0.77 0.03 0  0.78 0.03 0  0.79 0.03 0  0.8 0.03 0  0.8100000000000001 0.03 0  0.82 0.03 0  0.83 0.03 0  0.84 0.03 0  0.85 0.03 0  0.86 0.03 0  0.87 0.03 0  0.88 0.03 0  0.89 0.03 0  0.9 0.03 0  0.91 0.03 0  0.92 0.03 0  0.93 0.03 0  0.9399999999999999 0.03 0  0.95 0.03 0  0.96 0.03 0  0.97 0.03 0  0.98 0.03 0  0.99 0.03 0  1 0.03 0  0 0.04 0  0.01 0.04 0  0.02 0.04 0  0.03 0.04 0  0.04 0.04 0  0.05 0.04 0  0.06 0.04 0  0.07000000000000001 0.04 0  0.08 0.04 0  0.09 0.04 0  0.1 0.04 0  0.11 0.04 0  0.12 0.04 0  0.13 0.04 0  0.14 0.04 0  0.15 0.04 0  0.16 0.04 0  0.17 0.04 0  0.18 0.04 0  0.19 0.04 0  0.2 0.04 0  0.21 0.04 0  0.22 0.04 0  0.23 0.04 0  0.24 0.04 0  0.25 0.04 0  0.26 0.04 0  0.27 0.04 0  0.28 0.04 0  0.29 0.04 0  0.3 0.04 0  0.31 0.04 0  0.32 0.04 0  0.33 0.04 0  0.34 0.04 0  0.35 0.04 0  0.36 0.04 0  0.37 0.04 0  0.38 0.04 0  0.39 0.04 0  0.4 0.04 0  0.41 0.04 0  0.42 0.04 0  0.43 0.04 0  0.44 0.04 0  0.45 0.04 0  0.46 0.04 0  0.47 0.04 0  0.48 0.04 0  0.49 0.04 0  0.5 0.04 0  0.51 0.04 0  0.52 0.04 0  0.53 0.04 0  0.54 0.04 0  0.55 0.04 0  0.5600000000000001 0.04 0  0.57 0.04 0  0.58 0.04 0  0.59 0.04 0  0.6 0.04 0  0.61 0.04 0  0.62 0.04 0  0.63 0.04 0  0.64 0.04 0  0.65 0.04 0  0.66 0.04 0  0.67 0.04 0  0.68 0.04 0  0.6899999999999999 0.04 0  0.7 0.04 0  0.71 0.04 0  0.72 0.04 0  0.73 0.04 0  0.74 0.04 0  0.75 0.04 0  0.76 0.04 0  0.77 0.04 0  0.78 0.04 0  0.79 0.04 0  0.8 0.04 0  0.8100000000000001 0.04 0  0.82 0.04 0  0.83 0.04 0  0.84 0.04 0  0.85 0.04 0  0.86 0.04 0  0.87 0.04 0  0.88 0.04 0  0.89 0.04 0  0.9 0.04 0  0.91 0.04 0  0.92 0.04 0  0.93 0.04 0  0.9399999999999999 0.04 0  0.95 0.04 0  0.96 0.04 0  0.97 0.04 0  0.98 0.04 0  0.99 0.04 0  1 0.04 0  0 0.05 0  0.01 0.05 0  0.02 0.05 0  0.03 0.05 0  0.04 0.05 0  0.05 0.05 0  0.06 0.05 0  0.07000000000000001 0.05 0  0.08 0.05 0  0.09 0.05 0  0.1 0.05 0  0.11 0.05 0  0.12 0.05 0  0.13 0.05 0  0.14 0.05 0  0.15 0.05 0  0.16 0.05 0  0.17 0.05 0  0.18 0.05 0  0.19 0.05 0  0.2 0.05 0  0.21 0.05 0  0.22 0.05 0  0.23 0.05 0  0.24 0.05 0  0.25 0.05 0  0.26 0.05 0  0.27 0.05 0  0.28 0.05 0  0.29 0.05 0  0.3 0.05 0  0.31 0.05 0  0.32 0.05 0  0.33 0.05 0  0.34 0.05 0  0.35 0.05 0  0.36 0.05 0  0.37 0.05 0  0.38 0.05 0  0.39 0.05 0  0.4 0.05 0  0.41 0.05 0  0.42 0.05 0  0.43 0.05 0  0.44 0.05 0  0.45 0.05 0  0.46 0.05 0  0.47 0.05 0  0.48 0.05 0  0.49 0.05 0  0.5 0.05 0  0.51 0.05 0  0.52 0.05 0  0.53 0.05 0  0.54 0.05 0  0.55 0.05 0  0.5600000000000001 0.05 0  0.57 0.05 0  0.58 0.05 0  0.59 0.05 0  0.6 0.05 0  0.61 0.05 0  0.62 0.05 0  0.63 0.05 0  0.64 0.05 0  0.65 0.05 0  0.66 0.05 0  0.67 0.05 0  0.68 0.05 0  0.6899999999999999 0.05 0  0.7 0.05 0  0.71 0.05 0  0.72 0.05 0  0.73 0.05 0  0.74 0.05 0  0.75 0.05 0  0.76 0.05 0  0.77 0.05 0  0.78 0.05 0  0.79 0.05 0  0.8 0.05 0  0.8100000000000001 0.05 0  0.82 0.05 0  0.83 0.05 0  0.84 0.05 0  0.85 0.05 0  0.86 0.05 0  0.87 0.05 0  0.88 0.05 0  0.89 0.05 0  0.9 0.05 0  0.91 0.05 0  0.92 0.05 0  0.93 0.05 0  0.9399999999999999 0.05 0  0.95 0.05 0  0.96 0.05 0  0.97 0.05 0  0.98 0.05 0  0.99 0.05 0  1 0.05 0  0 0.06 0  0.01 0.06 0  0.02 0.06 0  0.03 0.06 0  0.04 0.06 0  0.05 0.06 0  0.06 0.06 0  0.07000000000000001 0.06 0  0.08 0.06 0  0.09 0.06 0  0.1 0.06 0  0.11 0.06 0  0.12 0.06 0  0.13 0.06 0  0.14 0.06 0  0.15 0.06 0  0.16 0.06 0  0.17 0.06 0  0.18 0.06 0  0.19 0.06 0  0.2 0.06 0  0.21 0.06 0  0.22 0.06 0  0.23 0.06 0  0.24 0.06 0  0.25 0.06 0  0.26 0.06 0  0.27 0.06 0  0.28 0.06 0  0.29 0.06 0  0.3 0.06 0  0.31 0.06 0  0.32 0.06 0  0.33 0.06 0  0.34 0.06 0  0.35 0.06 0  0.36 0.06 0  0.37 0.06 0  0.38 0.06 0  0.39 0.06 0  0.4 0.06 0  0.41 0.06 0  0.42 0.06 0  0.43 0.06 0  0.44 0.06 0  0.45 0.06 0  0.46 0.06 0  0.47 0.06 0  0.48 0.06 0  0.49 0.06 0  0.5 0.06 0  0.51 0.06 0  0.52 0.06 0  0.53 0.06 0  0.54 0.06 0  0.55 0.06 0  0.5600000000000001 0.06 0  0.57 0.06 0  0.58 0.06 0  0.59 0.06 0  0.6 0.06 0  0.61 0.06 0  0.62 0.06 0  0.63 0.06 0  0.64 0.06 0  0.65 0.06 0  0.66 0.06 0  0.67 0.06 0  0.68 0.06 0  0.6899999999999999 0.06 0  0.7 0.06 0  0.71 0.06 0  0.72 0.06 0  0.73 0.06 0  0.74 0.06 0  0.75 0.06 0  0.76 0.06 0  0.77 0.06 0  0.78 0.06 0  0.79 0.06 0  0.8 0.06 0  0.8100000000000001 0.06 0  0.82 0.06 0  0.83 0.06 0  0.84 0.06 0  0.85 0.06 0  0.86 0.06 0  0.87 0.06 0  0.88 0.06 0  0.89 0.06 0  0.9 0.06 0  0.91 0.06 0  0.92 0.06 0  0.93 0.06 0  0.9399999999999999 0.06 0  0.95 0.06 0  0.96 0.06 0  0.97 0.06 0  0.98 0.06 0  0.99 0.06 0  1 0.06 0  0 0.07000000000000001 0  0.01 0.07000000000000001 0  0.02 0.07000000000000001 0  0.03 0.07000000000000001 0  0.04 0.07000000000000001 0  0.05 0.07000000000000001 0  0.06 0.07000000000000001 0  0.07000000000000001 0.07000000000000001 0  0.08 0.07000000000000001 0  0.09 0.07000000000000001 0  0.1 0.07000000000000001 0  0.11 0.07000000000000001 0  0.12 0.07000000000000001 0  0.13 0.07000000000000001 0  0.14 0.07000000000000001 0  0.15 0.07000000000000001 0  0.16 0.07000000000000001 0  0.17 0.0700
[...]
<PointData  Scalars="Indicator Function"> 
<DataArray  type="Float64"  Name="Indicator Function"  format="ascii">-1.8055593228630336e-35  -5.9166621109740786e-20  2.8626681987568797e-20  1.2079380534471940e-19  3.3247722478493236e-19  -3.2184881483449454e-20  -2.7527890295697621e-20  6.5642251438701853e-19  8.5502866406081727e-19  2.6331073458419240e-36  4.4152584672481555e-18  1.8450095326331463e-18  -3.4721936048291635e-20  -3.4163855052561995e-20  8.2498249300680284e-18  -8.9536481117631768e-21  -6.8492869610633697e-22  2.0255349720969347e-18  -3.4962833836236226e-20  -1.8055593228630336e-35  6.3668317900016029e-18  0.0000000000000000e+00  -3.6974056558065348e-20  1.0950027383803119e-17  -4.8702772904664714e-20  -2.4601203526319450e-20  -1.8483022358398215e-20  -4.3418326030054420e-20  4.1201783808528273e-17  -1.6829568545048686e-20  -7.5932342362443424e-20  -2.7559807478433246e-20  -4.5525607336191763e-20  -2.3150859490232553e-20  9.8144658762263043e-18  -8.2534614887752898e-20  -1.1400885538025071e-19  -1.3153430641745856e-19  -1.3742206989224828e-19  -1.3459220369371006e-19  9.1141341483346269e-18  -7.0862002145475254e-20  -2.4009367045698422e-20  -3.0638315799879141e-20  -2.4771714495343379e-20  -2.1096232118488272e-20  2.2464551555908777e-17  -1.4996863706968868e-20  -9.7452855933173862e-21  -6.0201060723765430e-21  -2.3108670642869388e-20  -1.1554335321434703e-20  -8.5676075571022899e-21  -1.1502319488535974e-20  -8.9630387678806739e-21  -2.1737369769478654e-21  3.4120286091045842e-19  -1.8807909613156600e-37  -4.7019774032891500e-38  -1.8807909613156600e-37  -4.7019774032891500e-38  -1.4073918566309707e-22  -1.6494525511691726e-23  1.4105932209867450e-37  -4.9321954992135263e-23  -1.4598803306196303e-22  -4.9143439414444051e-23  -9.3836557344904981e-23  -2.0475036093887471e-20  -3.2522068066237663e-23  -2.7465340776862399e-23  -1.8651871956854496e-23  -8.3741489577873528e-23  -1.5713448528284224e-22  -2.0565273631814005e-23  -4.5604391734343312e-23  -4.0110383350473845e-23  -1.3341007351397747e-22  -6.2377989886163228e-23  -5.6899019124249181e-22  -7.0753371293984008e-22  4.4860119231720373e-20  -1.1560660949499829e-22  -3.5862215140569712e-22  -5.3465693683183432e-22  -3.8734050663455085e-22  -9.9641314789278704e-23  -2.7879446967980071e-23  -9.3627891840848718e-23  -1.8849611303187701e-22  -2.7516723869179431e-22  -2.6738899926785506e-22  -1.8022385544574329e-22  -1.0776101377776928e-20  -9.2408256647963833e-23  -2.8965883074821580e-23  -2.6252387481195046e-23  -6.6917277358216104e-25  -1.2298705386196604e-23  -3.7179518223536212e-24  0.0000000000000000e+00  -3.0652362368447248e-20  4.9049661117784844e-04  2.2082084665271825e-04  1.3316962739183281e-04  3.4225012700585006e-04  2.5350109234542899e-04  4.5304073485059155e-04  2.6937801848670378e-04  6.7224720902734020e-04  8.3008675070464212e-05  5.9470885143775910e-06  4.1903521947115566e-04  7.0299329297464981e-04  2.7399814650734864e-04  4.7844222628335489e-04  2.0634811626824018e-04  5.8120527064852584e-05  7.3074382126394331e-04  1.3145647421783724e-04  6.2983442174676003e-04  1.5195148024274062e-04  3.1834345186112676e-04  1.8210562908635151e-04  5.7501257480594358e-04  2.3464041462991364e-04  8.8635176827198386e-04  6.6592106084770153e-04  8.4232154473538933e-04  3.6099425535231764e-04  6.0634910902629955e-04  7.4985753110656046e-04  9.9294670952219640e-04  6.2312034659433972e-04  5.0855625964318484e-04  1.6277067887247526e-04  6.8321955425191161e-04  1.1452016662886492e-03  1.4812001212854103e-03  1.6289113528297065e-03  1.6611202546219926e-03  1.5940374662968696e-03  1.2664741429901914e-03  6.4329927433326233e-04  4.3251430592163541e-04  3.3567367751756352e-04  7.6007186486199742e-04  6.1134868986826923e-04  5.4031895841944887e-04  3.5111091653346589e-04  1.1411378404593150e-04  1.0844858985714340e-04  4.1628880198501638e-04  5.7100703147093148e-05  1.2578994523294344e-04  1.4431239443339622e-04  8.9307555003840700e-05  6.4324988088072032e-05  3.6326345669229078e-05  1.7493043767331149e-05  7.2813015351136026e-06  5.3506902147517067e-06  5.0706635528700125e-06  5.9427791158486258e-07  1.0056110468533332e-06  1.7770107049901179e-06  5.2597732103872635e-06  3.7011309681662320e-06  8.8528950173837815e-07  1.8447787257884398e-06  1.7870739613521691e-06  5.8586549449770539e-07  2.0183884670427217e-07  3.0171051300668915e-06  2.4927527087577062e-06  2.8306832374674516e-06  3.7047103466003904e-07  8.2153568648498677e-07  3.1179658680103395e-07  2.2474039360595597e-06  3.1307994587330690e-06  8.6846163236620772e-06  8.4034861019606459e-06  4.1651670675459250e-06  1.4966285167803173e-06  5.7120480913598524e-06  6.7754990802676715e-06  3.5899567052456136e-06  1.3118417594894313e-07  4.3663937993068983e-07  1.4683304652583826e-06  2.6614788650154013e-06  3.6262328620400321e-06  3.0037355588427116e-06  2.8302239375151916e-06  1.1423943010864749e-06  1.0934820102796710e-06  1.2007230017181945e-06  2.4109490030008625e-08  1.7520089688758513e-07  1.3395333153386556e-07  2.9795441785061426e-24  -1.4022147158746829e-20  5.5218387096225754e-04  1.4308871476108933e-04  1.0117426609077385e-04  1.0144571993993226e-05  3.7949147419617026e-04  5.0705532974871029e-04  6.1883467599257677e-04  7.3969866598328578e-04  4.6793028338405826e-06  3.1872642854914281e-04  4.2290448393609279e-04  5.4841797493599537e-04  9.7931772729523765e-04  7.8640353054255485e-04  5.3625224270653041e-04  1.1792018237971496e-03  2.1952295937595805e-05  5.2967594490744641e-04  8.7046659098753319e-04  4.1084023852722059e-04  1.5022707713629006e-03  9.7852388772213736e-04  1.6277257368991181e-03  9.0721633509204273e-04  1.1391087134361147e-03  3.7527578379004671e-05  3.5849820670861047e-04  1.6501160150978783e-03  1.1277103511127767e-03  1.4278918371182382e-04  1.6298735442447695e-03  1.7785295913599645e-04  1.1543084916212682e-03  5.8180133868094056e-04  7.1057853293526635e-04  1.4399422878217183e-03  1.9102475461417426e-03  2.2408115337619553e-03  2.3565861823810815e-03  2.2968214921420971e-03  2.0827353582313041e-03  1.5228771129599048e-03  3.0874697493209679e-04  1.0236596884856382e-03  8.9401037597407174e-04  7.6886770314521535e-04  1.1224931728716489e-03  9.1181064331693248e-04  2.2576497592131228e-04  3.9257811018464172e-04  5.3529496265728555e-04  3.4460330938136441e-04  3.5409613150362942e-04  1.7132496075506214e-04  1.4028267483867570e-04  7.5155917560582196e-05  7.4373696559529472e-05  3.4644053956815926e-05  1.7020271644423738e-05  1.1922245880547975e-05  2.1400221716344856e-06  5.2158230322909294e-06  4.7581798544471686e-06  1.2320731968421051e-05  7.3434513883997753e-06  1.8248534189029099e-06  5.0809943196983359e-06  5.1283155076394998e-06  3.3790773660545475e-06  9.4786177540778495e-07  2.0043436768474036e-06  1.0814478787229140e-06  4.9862519744188981e-06  1.4698161950678030e-07  1.3179791603814930e-06  6.5001277755854051e-06  1.8676563180811208e-06  3.7847492960986879e-06  1.5654364911357794e-06  9.3970815463493223e-06  1.0243490836769507e-05  1.0109536689555335e-05  1.5862489778784655e-07  8.0593143494142833e-06  6.9628367428430334e-06  5.0028743611949697e-06  2.5651921817664021e-06  1.8888307053569347e-06  3.5024908489617815e-06  1.0892249064490016e-06  5.0290117100499309e-06  5.7672752208758475e-06  2.7547509469132138e-06  2.1232162752528534e-06  1.5404126859448928e-06  1.2801509266381270e-06  1.9406739039694481e-06  1.3123178204492004e-06  8.0350792927940452e-08  -2.0983418211119700e-22  -2.2192509557425843e-20  2.5260054687626662e-04  4.4864073041683025e-04  5.5187913573599642e-05  4.6777953222767391e-04  6.7882929422499662e-04  5.8582619690635701e-04  8.0443584461769267e-04  1.9082010300352977e-04  1.3242150011093872e-03  4.8233808110596842e-04  3.1402657610459418e-06  1.0274300541694582e-03  1.1306794553191315e-03  1.3891294894773757e-04  1.0808359607998462e-03  2.9374016177960422e-04  4.3520182028445188e-04  1.3806143354865884e-03  7.5972601272371375e-04  1.6959385590662917e-03  5.1773071131575922e-04  1.1374750274052649e-03  3.9948309539892439e-04  1.6843206919681510e-03  1.4307768135453079e-03  2.3292439322050345e-03  1.9328121962749181e-03  1.8035284037585192e-03  8.2534937769045906e-04  2.0293291666422775e-03  1.7116444256594218e-03  1.9999864734410290e-03  2.0286894394549509e-03  9.6516210070182306e-04  3.3195986215978230e-05  1.6744172804626315e-03  2.0241749041444057e-03  2.4356061723624593e-03  2.6582168442274086e-03  2.7153424721726885e-03  2.5704338636626054e-03  1.9241001489673666e-03  9.4036578926925431e-04  1.1956207863503155e-03  6.3325286982705929e-04  2.1746255645792769e-03  1.4303315011331768e-03  9.3656366401594668e-04  6.7445162260964034e-04  4.7017112751776856e-04  4.5266913733295729e-04  1.0462346557549476e-03  2.9586618786111099e-04  3.6083544352184203e-04  1.5946648205996438e-04  5.2661167877507031e-05  7.2845577994607035e-05  6.4014085362381945e-05  3.0644706856061354e-05  1.3965057104013146e-05  1.2663084609400529e-05  5.0022947410094137e-06  4.0862081505491495e-07  1.5019824436986839e-06  6.3933690119358664e-06  1.8658331136899426e-06  5.1565144028946921e-06  7.1628512321401320e-06  1.7346140380344965e-06  8.1487776119706934e-07  5.9135242477703908e-07  3.6470850525639856e-08  5.9849349640671878e-06  2.6620244762148397e-06  3.5774757774749087e-06  9.8308857346638514e-07  5.6170214570357261e-06  1.4162288219077321e-06  5.1696140707778727e-06  7.7799589009357491e-06  1.3525565567403669e-05  1.0405540266729420e-05  4.8596155541669793e-06  7.1317025399436928e-06  1.0289558691978681e-05  6.5700729480495020e-06  3.0475294504487135e-06  5.4842981737620838e-07  2.8815281095643121e-06  2.9627251874418581e-06  2.4525346026439570e-06  6.8281008895819295e-06  5.0437233848727199e-06  2.5619329488340378e-06  2.0672149401567632e-06  1.0110134545465165e-06  1.3600769717417727e-06  1.7796352516925531e-06  8.0070422875904454e-07  -1.1112003383537736e-22  -1.8840129664383166e-20  3.9978471109295745e-04  5.4034271424794895e-04  5.5895784163421818e-05  1.4403656564534307e-04  4.8839769445301582e-04  7.2499065527871747e-04  1.1186158266637434e-03  1.0034592769561125e-03  6.2592207376011011e-04  1.4427763091219930e-04  2.3162837090947013e-04  3.2165399814928971e-04  8.6874086617073334e-04  1.5109332044576035e-03  4.9844763749427911e-04  7.3171174820479447e-04  1.6292480748906013e-03  4.1490597733765549e-04  1.2194865569426737e-03  5.3001834288369197e-04  2.9419539844763543e-04  1.9098561937509002e-03  1.5105840898160959e-03  2.2690369326822568e-03  1.1193265409647009e-03  1.1292556779926737e-03  6.2203652533126630e-04  1.4670577915528943e-03  3.0971896283117002e-03  1.7572842705826553e-03  8.3465507783807204e-04  2.9996396346568675e-03  4.7308878827884517e-04  2.5625313735189613e-03  6.9506683169207203e-04  1.2146485111884135e-03  2.2554752180025690e-03  2.5087379049887376e-03  2.8356219174933443e-03  2.9545053611393333e-03  2.8811211327384100e-03  2.6224966613795980e-03  1.7731814488497297e-03  7.1601140824923673e-04  1.7829380883912847e-03  1.4723754734941160e-03  1.8018649493628006e-03  2.5844797527542766e-03  2.0194359936629939e-03  8.7103844742385120e-04  3.0639984375355965e-04  6.7262607443556487e-04  7.1026850169901470e-04  7.7120197642299498e-04  2.4965628441596014e-04  9.4818621294587134e-05  3.5063313329522996e-06  7.6699008636489370e-05  4.4627596336136028e-05  2.3488122918033919e-05  1.5663052098869881e-05  5.7189764034296133e-06  9.2997521778334516e-06  1.0418746145522690e-06  6.9717892759286692e-06  3.8423711514792952e-06  5.1818548243615127e-06  6.4468419926348380e-07  2.3346362910334812e-06  1.6806819667117900e-07  1.9003793820922612e-06  5.7275607408443151e-06  5.1286993672945333e-06  7.3812435449406726e-06  5.7260620992502510e-07  9.1618610781033780e-07  6.9315107015098946e-06  2.8069180756298954e-06  2.1853079211247584e-07  1.7835194157391584e-06  1.5237291193718115e-05  1.3782400819755177e-05  8.5918780773682533e-06  1.3051651913125345e-06  1.2529553559690863e-05  1.0006404195495804e-05  3.1014048363867415e-06  1.1043759739261798e-07  1.7632180585649432e-06  4.4616384500050196e-06  1.8093795460814201e-06  4.2217824306597963e-06  6.9465145015053003e-06  4.1781704457444517e-06  1.1743443943728093e-06  2.3593766506242311e-06  1.6982340204901365e-06  1.4017407531773930e-06  1.4690665833088780e-06  3.4013721665540984e-22  -1.9301149539429414e-20  3.3939360374451121e-04  5.6375919308889453e-04  8.8768252970877759e-04  1.2552077777702714e-04  4.9772577909185285e-04  6.0307698825882744e-04  5.7042564895629089e-04  1.2410061998017301e-03  3.9310711905071516e-04  1.6529941827169276e-03  9.2129996834421166e-04  1.3255689926903292e-04  1.3154654396035101e-03  1.2505912158908997e-03  3.0172470592397478e-04  1.2873516828743458e-03  9.8237397284977029e-04  1.1197061105711710e-03  1.2585172999415545e-03  8.1900702413261047e-04  2.1744694741669020e-03  1.1515925676365019e-03  2.0055271732214875e-03  1.2159110111396056e-03  2.7289472606249884e-03  2.4399992792376477e-03  3.3168575451726838e-03  2.5083887667352958e-03  1.8519181049964392e-03  1.7239854549820012e-03  3.3149291307653546e-03  2.0691023387963453e-03  3.2810938142404382e-03  2.7285282416910730e-03  1.7636105425737584e-03  6.3844255183692178e-05  2.4108774800785542e-03  2.6679884310678611e-03  2.9456713119646416e-03  3.1566416868213138e-03  3.2110358600916733e-03  3.0262180806931191e-03  2.2538379849237002e-03  1.0551121331555714e-03  1.9614036263652015e-03  1.1425799850021099e-03  3.3635953362417333e-03  1.4613324778705917e-03  3.2106996868851259e-04  1.8642712811637330e-04  3.4802263013987021e-04  7.6296711302002891e-04  1.5053068307248961e-03  2.7725101555950134e-04  7.0665308445064777e-04  1.6086004127350621e-04  1.1952928848736817e-05  2.6491032775570514e-05  6.9590002723602407e-05  3.2215375972589564e-05  1.7134814664124096e-05  1.2128613588450802e-05  5.6631251016295381e-06  3.7277102584329050e-06  4.9857318467008826e-06  2.8557132840193585e-06  4.0945515449295239e-06  4.6604726492057942e-06  3.1511835572280759e-06  1.8755165854183811e-06  2.5484759204309972e-06  3.8990469784406251e-06  5.2433318893882488e-06  6.0913499638370065e-07  1.0807746859417548e-06  5.2671851605293777e-07  3.3305201275821208e-06  6.3276523936453603e-06  3.3408811336118391e-06  8.6337210820853221e-07  4.9242477086210522e-06  1.8628174586437936e-05  1.3784168431307283e-05  3.0117440003438851e-06  1.0157393272732321e-05  1.2486334721899578e-05  6.7453770210414820e-06  1.1334183628051979e-06  3.0308014371448751e-06  3.3577903880672867e-06  2.6416584655132415e-06  3.2995294751841638e-06  6.2002686841683208e-06  5.2813277299948400e-06  2.5909197534208386e-06  1.3885226385014472e-06  1.7036951782146637e-06  8.9539623294861647e-07  1.2911201455678309e-06  -7.1671565658339482e-23  -9.1732217061821668e-21  3.4769859949438628e-04  6.0456215955070999e-04  4.9207310928962747e-04  6.0801417901462282e-04  2.2003750900986664e-04  5.7216623841224745e-04  1.0532455835385417e-03  1.4416295624096161e-03  1.2955930882782814e-03  5.5654150466222436e-04  5.0759718938401079e-04  1.7154425107829624e-04  2.8696282103382207e-04  1.3348095545263547e-03  1.8165079051191337e-03  2.4429571493033716e-04  5.3732487170567687e-04  1.3107684946644528e-03  1.9060055653732726e-04  1.6127986307704725e-03  8.1375385351163007e-05  2.4002346776888292e-04  1.5424045908346616e-03  1.2807251299689932e-03  2.1201852156686185e-03  6.4395811249957078e-04  5.4111059155412310e-04  1.4653859193621925e-03  2.3860112525405553e-03  4.0922564032561176e-03  1.8054483338823476e-03  1.9076449002112185e-03  4.0615815305691718e-03  1.0618574677223173e-03  3.8011898126977979e-03  9.9333723719335519e-04  1.5341723214232596e-03  3.0969081934701043e-03  3.1019092645902251e-03  3.3471796877071174e-03  3.4571591876497525e-03  3.3818954497886306e-03  3.0670509001787809e-03  1.9315050202221374e-03  9.3189617581179826e-04  2.6601502301916188e-03  1.7164766084387122e-03  2.9402938789153360e-03  3.3934938178702754e-03  2.3296148032472177e-03  1.1235127678000186e-03  9.9704210855457422e-05  4.9481348111355143e-04  1.1488696098867772e-03  9.9854218493960643e-04  4.3765955614533629e-04  5.0038909308412208e-05  6.9896165173348844e-05  6.2759153311465059e-05  5.5750032568660002e-05  2.6884038385649360e-05  1.7869835238352234e-05  7.4055071990209014e-06  4.8080028157946602e-06  3.7043114185301117e-07  1.8568956494226455e-06  2.1309992894223491e-06  1.9913265401311254e-06  5.0170709886780389e-06  1.8762934552079593e-07  2.5967140925694047e-06  4.6554653616773085e-06  6.9274479814379881e-07  3.0736048637862571e-06  1.7517450142534434e-07  4.1320204518471449e-06  2.2886400157314951e-06  7.3138707945797154e-06  7.9227107917510542e-06  4.3021407823119891e-06  4.8516856590442814e-06  1.2720574877122582e-05  1.8150227262938758e-05  1.0091112999242722e-05  4.9957252776075992e-06  1.6994002359438813e-05  1.1496784045005736e-05  2.3359324472440916e-06  2.2483584310330881e-06  3.4507247808134624e-06  3.6818583321744844e-06  9.4612906083023014e-07  5.4882665724862273e-06  5.5447724597878533e-06  4.3716586496341874e-06  1.6581969036292215e-06  1.1885356521030344e-06  2.4232454513575256e-06  1.0643384760729445e-06  -5.9082654106531654e-23  -1.9535796596683568e-20  1.6525007143099586e-04  4.6666859124857072e-04  7.8363885757533986e-04  8.2083227593112416e-04  6.2618547182941185e-05  6.2856504908855710e-04  3.6252465706303357e-04  2.7531214507399925e-04  1.6414183372941941e-03  6.2447195156271071e-04  1.5975847453065079e-03  8.9708071426637800e-04  3.8142961940512090e-05  1.3421116137166060e-03  1.5478826446968361e-03  6.2338604314482883e-04  1.0705880767915934e-03  1.0912258748075449e-03  1.3566443456439266e-03  1.0948698089668100e-03  3.8352979540021761e-04  1.9316709843538913e-03  9.4450217729915675e-04  2.1945079654779528e-03  1.3941662496967096e-03  3.0592239909161194e-03  2.5749846868908664e-03  3.4199488385032511e-03  2.3246475192701507e-03  1.4267345840887837e-03  2.6723753385997683e-03  4.0090522532040436e-03  1.9680016043255276e-03  4.6264678736084334e-03  2.9959633507433141e-03  2.9431517996772283e-03  1.1269501281606080e-04  2.9672554510462592e-03  3.5093198362256355e-03  3.5658938682971981e-03  3.7170998844910960e-03  3.7602416235453374e-03  3.5420465316123276e-03  2.6229677907222489e-03  1.0707003545994340e-03  2.5494565124724532e-03  1.7527749888473841e-03  4.1427126604773072e-03  1.0734312236888464e-03  4.8321241343339403e-04  4.7418018418310788e-04  1.4255629241149634e-04  6.5192618606007256e-04  1.6224239319573752e-03  4.3670844380836844e-05  1.0495371395147172e-03  2.1873441395794249e-04  7.6673436895560531e-05  4.4229002106779438e-05  6.9698080133517629e-05  4.0940373461742398e-05  2.3479196951240249e-05  1.3664207030935698e-05  1.0214508270000475e-05  3.0583019885009996e-07  4.3286406156246233e-06  8.5889727150372115e-06  1.4438850310475730e-05  1.9241451663003978e-06  2.4285675236812182e-06  8.8344709793430794e-06  5.1568273326615284e-06  5.1660078485524661e-06  2.5148579711121073e-06  6.2210606111796015e-06  2.4354200252422609e-06  2.6780164503810045e-06  4.4279496770848719e-06  4.4031420251017665e-06  8.3932919395802822e-06  1.0041995365400907e-06  1.1637719362621597e-05  1.8558926515034417e-05  1.6093440919864970e-05  3.8942945953003699e-06  1.4163896972855228e-05  1.7415669734619222e-05  5.7720061229836110e-06  1.5151854555904878e-06  4.3316138797044487e-06  4.9284352542053313e-06  1.1315636066567972e-06  2.3833981486735153e-06  7.6356325807055473e-06  4.5026223698605542e-06  2.7138787613879456e-06  2.0490075829951836e-06  1.5084876145160226e-06  9.7945342072452945e-07  -1.3592646740453044e-22  -9.7068993478673225e-21  3.5192562509284061e-04  5.7141141656347910e-04  6.4872852583849905e-04  5.8267756074634322e-04  9.2618833980402508e-04  1.0061116363865652e-04  4.6429011776887014e-04  9.5500112348088429e-04  1.4580897422153899e-03  1.6540694045734095e-03  7.1424164727717002e-04  5.3936361268558158e-04  4.5763631791723500e-04  3.6086075965753188e-04  1.5990614718729612e-03  2.0046538684014366