<?xml version="1.0"?>
<VTKFile type="UnstructuredGrid"  version="0.1"  >
<UnstructuredGrid>
<Piece  NumberOfPoints="10201" NumberOfCells="20000">
<Points>
<DataArray  type="Float64"  NumberOfComponents="3"  format="ascii">0 0 0  0.01 0 0  0.02 0 0  0.03 0 0  0.04 0 0  0.05 0 0  0.06 0 0  0.07000000000000001 0 0  0.08 0 0  0.09 0 0  0.1 0 0  0.11 0 0  0.12 0 0  0.13 0 0  0.14 0 0  0.15 0 0  0.16 0 0  0.17 0 0  0.18 0 0  0.19 0 0  0.2 0 0  0.21 0 0  0.22 0 0  0.23 0 0  0.24 0 0  0.25 0 0  0.26 0 0  0.27 0 0  0.28 0 0  0.29 0 0  0.3 0 0  0.31 0 0  0.32 0 0  0.33 0 0  0.34 0 0  0.35 0 0  0.36 0 0  0.37 0 0  0.38 0 0  0.39 0 0  0.4 0 0  0.41 0 0  0.42 0 0  0.43 0 0  0.44 0 0  0.45 0 0  0.46 0 0  0.47 0 0  0.48 0 0  0.49 0 0  0.5 0 0  0.51 0 0  0.52 0 0  0.53 0 0  0.54 0 0  0.55 0 0  0.5600000000000001 0 0  0.57 0 0  0.58 0 0  0.59 0 0  0.6 0 0  0.61 0 0  0.62 0 0  0.63 0 0  0.64 0 0  0.65 0 0  0.66 0 0  0.67 0 0  0.68 0 0  0.6899999999999999 0 0  0.7 0 0  0.71 0 0  0.72 0 0  0.73 0 0  0.74 0 0  0.75 0 0  0.76 0 0  0.77 0 0  0.78 0 0  0.79 0 0  0.8 0 0  0.8100000000000001 0 0  0.82 0 0  0.83 0 0  0.84 0 0  0.85 0 0  0.86 0 0  0.87 0 0  0.88 0 0  0.89 0 0  0.9 0 0  0.91 0 0  0.92 0 0  0.93 0 0  0.9399999999999999 0 0  0.95 0 0  0.96 0 0  0.97 0 0  0.98 0 0  0.99 0 0  1 0 0  0 0.01 0  0.01 0.01 0  0.02 0.01 0  0.03 0.01 0  0.04 0.01 0  0.05 0.01 0  0.06 0.01 0  0.07000000000000001 0.01 0  0.08 0.01 0  0.09 0.01 0  0.1 0.01 0  0.11 0.01 0  0.12 0.01 0  0.13 0.01 0  0.14 0.01 0  0.15 0.01 0  0.16 0.01 0  0.17 0.01 0  0.18 0.01 0  0.19 0.01 0  0.2 0.01 0  0.21 0.01 0  0.22 0.01 0  0.23 0.01 0  0.24 0.01 0  0.25 0.01 0  0.26 0.01 0  0.27 0.01 0  0.28 0.01 0  0.29 0.01 0  0.3 0.01 0  0.31 0.01 0  0.32 0.01 0  0.33 0.01 0  0.34 0.01 0  0.35 0.01 0  0.36 0.01 0  0.37 0.01 0  0.38 0.01 0  0.39 0.01 0  0.4 0.01 0  0.41 0.01 0  0.42 0.01 0  0.43 0.01 0  0.44 0.01 0  0.45 0.01 0  0.46 0.01 0  0.47 0.01 0  0.48 0.01 0  0.49 0.01 0  0.5 0.01 0  0.51 0.01 0  0.52 0.01 0  0.53 0.01 0  0.54 0.01 0  0.55 0.01 0  0.5600000000000001 0.01 0  0.57 0.01 0  0.58 0.01 0  0.59 0.01 0  0.6 0.01 0  0.61 0.01 0  0.62 0.01 0  0.63 0.01 0  0.64 0.01 0  0.65 0.01 0  0.66 0.01 0  0.67 0.01 0  0.68 0.01 0  0.6899999999999999 0.01 0  0.7 0.01 0  0.71 0.01 0  0.72 0.01 0  0.73 0.01 0  0.74 0.01 0  0.75 0.01 0  0.76 0.01 0  0.77 0.01 0  0.78 0.01 0  0.79 0.01 0  0.8 0.01 0  0.8100000000000001 0.01 0  0.82 0.01 0  0.83 0.01 0  0.84 0.01 0  0.85 0.01 0  0.86 0.01 0  0.87 0.01 0  0.88 0.01 0  0.89 0.01 0  0.9 0.01 0  0.91 0.01 0  0.92 0.01 0  0.93 0.01 0  0.9399999999999999 0.01 0  0.95 0.01 0  0.96 0.01 0  0.97 0.01 0  0.98 0.01 0  0.99 0.01 0  1 0.01 0  0 0.02 0  0.01 0.02 0  0.02 0.02 0  0.03 0.02 0  0.04 0.02 0  0.05 0.02 0  0.06 0.02 0  0.07000000000000001 0.02 0  0.08 0.02 0  0.09 0.02 0  0.1 0.02 0  0.11 0.02 0  0.12 0.02 0  0.13 0.02 0  0.14 0.02 0  0.15 0.02 0  0.16 0.02 0  0.17 0.02 0  0.18 0.02 0  0.19 0.02 0  0.2 0.02 0  0.21 0.02 0  0.22 0.02 0  0.23 0.02 0  0.24 0.02 0  0.25 0.02 0  0.26 0.02 0  0.27 0.02 0  0.28 0.02 0  0.29 0.02 0  0.3 0.02 0  0.31 0.02 0  0.32 0.02 0  0.33 0.02 0  0.34 0.02 0  0.35 0.02 0  0.36 0.02 0  0.37 0.02 0  0.38 0.02 0  0.39 0.02 0  0.4 0.02 0  0.41 0.02 0  0.42 0.02 0  0.43 0.02 0  0.44 0.02 0  0.45 0.02 0  0.46 0.02 0  0.47 0.02 0  0.48 0.02 0  0.49 0.02 0  0.5 0.02 0  0.51 0.02 0  0.52 0.02 0  0.53 0.02 0  0.54 0.02 0  0.55 0.02 0  0.5600000000000001 0.02 0  0.57 0.02 0  0.58 0.02 0  0.59 0.02 0  0.6 0.02 0  0.61 0.02 0  0.62 0.02 0  0.63 0.02 0  0.64 0.02 0  0.65 0.02 0  0.66 0.02 0  0.67 0.02 0  0.68 0.02 0  0.6899999999999999 0.02 0  0.7 0.02 0  0.71 0.02 0  0.72 0.02 0  0.73 0.02 0  0.74 0.02 0  0.75 0.02 0  0.76 0.02 0  0.77 0.02 0  0.78 0.02 0  0.79 0.02 0  0.8 0.02 0  0.8100000000000001 0.02 0  0.82 0.02 0  0.83 0.02 0  0.84 0.02 0  0.85 0.02 0  0.86 0.02 0  0.87 0.02 0  0.88 0.02 0  0.89 0.02 0  0.9 0.02 0  0.91 0.02 0  0.92 0.02 0  0.93 0.02 0  0.9399999999999999 0.02 0  0.95 0.02 0  0.96 0.02 0  0.97 0.02 0  0.98 0.02 0  0.99 0.02 0  1 0.02 0  0 0.03 0  0.01 0.03 0  0.02 0.03 0  0.03 0.03 0  0.04 0.03 0  0.05 0.03 0  0.06 0.03 0  0.07000000000000001 0.03 0  0.08 0.03 0  0.09 0.03 0  0.1 0.03 0  0.11 0.03 0  0.12 0.03 0  0.13 0.03 0  0.14 0.03 0  0.15 0.03 0  0.16 0.03 0  0.17 0.03 0  0.18 0.03 0  0.19 0.03 0  0.2 0.03 0  0.21 0.03 0  0.22 0.03 0  0.23 0.03 0  0.24 0.03 0  0.25 0.03 0  0.26 0.03 0  0.27 0.03 0  0.28 0.03 0  0.29 0.03 0  0.3 0.03 0  0.31 0.03 0  0.32 0.03 0  0.33 0.03 0  0.34 0.03 0  0.35 0.03 0  0.36 0.03 0  0.37 0.03 0  0.38 0.03 0  0.39 0.03 0  0.4 0.03 0  0.41 0.03 0  0.42 0.03 0  0.43 0.03 0  0.44 0.03 0  0.45 0.03 0  0.46 0.03 0  0.47 0.03 0  0.48 0.03 0  0.49 0.03 0  0.5 0.03 0  0.51 0.03 0  0.52 0.03 0  0.53 0.03 0  0.54 0.03 0  0.55 0.03 0  0.5600000000000001 0.03 0  0.57 0.03 0  0.58 0.03 0  0.59 0.03 0  0.6 0.03 0  0.61 0.03 0  0.62 0.03 0  0.63 0.03 0  0.64 0.03 0  0.65 0.03 0  0.66 0.03 0  0.67 0.03 0  0.68 0.03 0  0.6899999999999999 0.03 0  0.7 0.03 0  0.71 0.03 0  0.72 0.03 0  0.73 0.03 0  0.74 0.03 0  0.75 0.03 0  0.76 0.03 0  0.77 0.03 0  0.78 0.03 0  0.79 0.03 0  0.8 0.03 0  0.8100000000000001 0.03 0  0.82 0.03 0  0.83 0.03 0  0.84 0.03 0  0.85 0.03 0  0.86 0.03 0  0.87 0.03 0  0.88 0.03 0  0.89 0.03 0  0.9 0.03 0  0.91 0.03 0  0.92 0.03 0  0.93 0.03 0  0.9399999999999999 0.03 0  0.95 0.03 0  0.96 0.03 0  0.97 0.03 0  0.98 0.03 0  0.99 0.03 0  1 0.03 0  0 0.04 0  0.01 0.04 0  0.02 0.04 0  0.03 0.04 0  0.04 0.04 0  0.05 0.04 0  0.06 0.04 0  0.07000000000000001 0.04 0  0.08 0.04 0  0.09 0.04 0  0.1 0.04 0  0.11 0.04 0  0.12 0.04 0  0.13 0.04 0  0.14 0.04 0  0.15 0.04 0  0.16 0.04 0  0.17 0.04 0  0.18 0.04 0  0.19 0.04 0  0.2 0.04 0  0.21 0.04 0  0.22 0.04 0  0.23 0.04 0  0.24 0.04 0  0.25 0.04 0  0.26 0.04 0  0.27 0.04 0  0.28 0.04 0  0.29 0.04 0  0.3 0.04 0  0.31 0.04 0  0.32 0.04 0  0.33 0.04 0  0.34 0.04 0  0.35 0.04 0  0.36 0.04 0  0.37 0.04 0  0.38 0.04 0  0.39 0.04 0  0.4 0.04 0  0.41 0.04 0  0.42 0.04 0  0.43 0.04 0  0.44 0.04 0  0.45 0.04 0  0.46 0.04 0  0.47 0.04 0  0.48 0.04 0  0.49 0.04 0  0.5 0.04 0  0.51 0.04 0  0.52 0.04 0  0.53 0.04 0  0.54 0.04 0  0.55 0.04 0  0.5600000000000001 0.04 0  0.57 0.04 0  0.58 0.04 0  0.59 0.04 0  0.6 0.04 0  0.61 0.04 0  0.62 0.04 0  0.63 0.04 0  0.64 0.04 0  0.65 0.04 0  0.66 0.04 0  0.67 0.04 0  0.68 0.04 0  0.6899999999999999 0.04 0  0.7 0.04 0  0.71 0.04 0  0.72 0.04 0  0.73 0.04 0  0.74 0.04 0  0.75 0.04 0  0.76 0.04 0  0.77 0.04 0  0.78 0.04 0  0.79 0.04 0  0.8 0.04 0  0.8100000000000001 0.04 0  0.82 0.04 0  0.83 0.04 0  0.84 0.04 0  0.85 0.04 0  0.86 0.04 0  0.87 0.04 0  0.88 0.04 0  0.89 0.04 0  0.9 0.04 0  0.91 0.04 0  0.92 0.04 0  0.93 0.04 0  0.9399999999999999 0.04 0  0.95 0.04 0  0.96 0.04 0  0.97 0.04 0  0.98 0.04 0  0.99 0.04 0  1 0.04 0  0 0.05 0  0.01 0.05 0  0.02 0.05 0  0.03 0.05 0  0.04 0.05 0  0.05 0.05 0  0.06 0.05 0  0.07000000000000001 0.05 0  0.08 0.05 0  0.09 0.05 0  0.1 0.05 0  0.11 0.05 0  0.12 0.05 0  0.13 0.05 0  0.14 0.05 0  0.15 0.05 0  0.16 0.05 0  0.17 0.05 0  0.18 0.05 0  0.19 0.05 0  0.2 0.05 0  0.21 0.05 0  0.22 0.05 0  0.23 0.05 0  0.24 0.05 0  0.25 0.05 0  0.26 0.05 0  0.27 0.05 0  0.28 0.05 0  0.29 0.05 0  0.3 0.05 0  0.31 0.05 0  0.32 0.05 0  0.33 0.05 0  0.34 0.05 0  0.35 0.05 0  0.36 0.05 0  0.37 0.05 0  0.38 0.05 0  0.39 0.05 0  0.4 0.05 0  0.41 0.05 0  0.42 0.05 0  0.43 0.05 0  0.44 0.05 0  0.45 0.05 0  0.46 0.05 0  0.47 0.05 0  0.48 0.05 0  0.49 0.05 0  0.5 0.05 0  0.51 0.05 0  0.52 0.05 0  0.53 0.05 0  0.54 0.05 0  0.55 0.05 0  0.5600000000000001 0.05 0  0.57 0.05 0  0.58 0.05 0  0.59 0.05 0  0.6 0.05 0  0.61 0.05 0  0.62 0.05 0  0.63 0.05 0  0.64 0.05 0  0.65 0.05 0  0.66 0.05 0  0.67 0.05 0  0.68 0.05 0  0.6899999999999999 0.05 0  0.7 0.05 0  0.71 0.05 0  0.72 0.05 0  0.73 0.05 0  0.74 0.05 0  0.75 0.05 0  0.76 0.05 0  0.77 0.05 0  0.78 0.05 0  0.79 0.05 0  0.8 0.05 0  0.8100000000000001 0.05 0  0.82 0.05 0  0.83 0.05 0  0.84 0.05 0  0.85 0.05 0  0.86 0.05 0  0.87 0.05 0  0.88 0.05 0  0.89 0.05 0  0.9 0.05 0  0.91 0.05 0  0.92 0.05 0  0.93 0.05 0  0.9399999999999999 0.05 0  0.95 0.05 0  0.96 0.05 0  0.97 0.05 0  0.98 0.05 0  0.99 0.05 0  1 0.05 0  0 0.06 0  0.01 0.06 0  0.02 0.06 0  0.03 0.06 0  0.04 0.06 0  0.05 0.06 0  0.06 0.06 0  0.07000000000000001 0.06 0  0.08 0.06 0  0.09 0.06 0  0.1 0.06 0  0.11 0.06 0  0.12 0.06 0  0.13 0.06 0  0.14 0.06 0  0.15 0.06 0  0.16 0.06 0  0.17 0.06 0  0.18 0.06 0  0.19 0.06 0  0.2 0.06 0  0.21 0.06 0  0.22 0.06 0  0.23 0.06 0  0.24 0.06 0  0.25 0.06 0  0.26 0.06 0  0.27 0.06 0  0.28 0.06 0  0.29 0.06 0  0.3 0.06 0  0.31 0.06 0  0.32 0.06 0  0.33 0.06 0  0.34 0.06 0  0.35 0.06 0  0.36 0.06 0  0.37 0.06 0  0.38 0.06 0  0.39 0.06 0  0.4 0.06 0  0.41 0.06 0  0.42 0.06 0  0.43 0.06 0  0.44 0.06 0  0.45 0.06 0  0.46 0.06 0  0.47 0.06 0  0.48 0.06 0  0.49 0.06 0  0.5 0.06 0  0.51 0.06 0  0.52 0.06 0  0.53 0.06 0  0.54 0.06 0  0.55 0.06 0  0.5600000000000001 0.06 0  0.57 0.06 0  0.58 0.06 0  0.59 0.06 0  0.6 0.06 0  0.61 0.06 0  0.62 0.06 0  0.63 0.06 0  0.64 0.06 0  0.65 0.06 0  0.66 0.06 0  0.67 0.06 0  0.68 0.06 0  0.6899999999999999 0.06 0  0.7 0.06 0  0.71 0.06 0  0.72 0.06 0  0.73 0.06 0  0.74 0.06 0  0.75 0.06 0  0.76 0.06 0  0.77 0.06 0  0.78 0.06 0  0.79 0.06 0  0.8 0.06 0  0.8100000000000001 0.06 0  0.82 0.06 0  0.83 0.06 0  0.84 0.06 0  0.85 0.06 0  0.86 0.06 0  0.87 0.06 0  0.88 0.06 0  0.89 0.06 0  0.9 0.06 0  0.91 0.06 0  0.92 0.06 0  0.93 0.06 0  0.9399999999999999 0.06 0  0.95 0.06 0  0.96 0.06 0  0.97 0.06 0  0.98 0.06 0  0.99 0.06 0  1 0.06 0  0 0.07000000000000001 0  0.01 0.07000000000000001 0  0.02 0.07000000000000001 0  0.03 0.07000000000000001 0  0.04 0.07000000000000001 0  0.05 0.07000000000000001 0  0.06 0.07000000000000001 0  0.07000000000000001 0.07000000000000001 0  0.08 0.07000000000000001 0  0.09 0.07000000000000001 0  0.1 0.07000000000000001 0  0.11 0.07000000000000001 0  0.12 0.07000000000000001 0  0.13 0.07000000000000001 0  0.14 0.07000000000000001 0  0.15 0.07000000000000001 0  0.16 0.07000000000000001 0  0.17 0.0700
[...]
<PointData  Scalars="Indicator Function"> 
<DataArray  type="Float64"  Name="Indicator Function"  format="ascii">-1.8055593228630336e-35  -5.0689931717245648e-20  -1.5205360482272021e-20  -2.7193689788203470e-20  3.1671541418241053e-19  -2.9475095907300160e-20  -2.4109120808722606e-20  6.6534787020368830e-19  8.1152957649334994e-19  -2.4747811620400261e-21  3.9218687530489267e-18  8.5061903115382380e-19  -2.8672107607832457e-20  -3.1651300738030652e-20  8.0971917846245281e-18  -7.9328524009987273e-21  2.4375050858650954e-34  1.9125095852663548e-18  -3.4133143436863689e-20  4.5138983071575840e-36  7.0905220011334970e-18  0.0000000000000000e+00  -3.5221594095043618e-20  9.3640330943265325e-18  -4.0712048833831396e-20  -2.3123145076483927e-20  -1.7547702552714681e-20  -4.1199368034688136e-20  4.0684766303234276e-17  -1.6338241685891166e-20  -6.9357695536684844e-20  -2.5580970540274092e-20  -4.3217883149408268e-20  -2.8887080083782954e-20  1.5256199512607899e-18  -7.2333294724214713e-20  -1.0317786120769171e-19  -1.2066936987792630e-19  -1.2703752526793732e-19  -1.2479434176138134e-19  8.7068379698693966e-18  -5.9429281055564459e-20  -2.2742998826007407e-20  -2.9080670893337590e-20  -2.6360264899468285e-20  -1.9837501960767733e-20  1.6833559061863868e-17  -1.4901115467560653e-20  -1.0118010696431524e-20  -9.2002609705662189e-21  -1.3632516403625367e-20  -1.1234007160441698e-20  -8.2442724724384786e-21  -1.1747776944297821e-20  -7.9339395648590541e-21  -1.3917853113735884e-35  3.5629703971163863e-33  0.0000000000000000e+00  9.4039548065783001e-38  -6.4641276793398462e-23  -1.8770609694753533e-22  -9.9393860335608372e-23  -9.2478065930933559e-23  -9.7031957789989934e-23  -1.2639165194400794e-22  -1.7905552287395825e-22  -5.6084351006503311e-22  -3.0634533769317218e-22  6.5790389925728892e-20  -1.4420267885657252e-22  -7.2101339428286446e-23  -4.8914296354810348e-22  -1.4105932209867450e-37  -6.1256527447158607e-22  -1.7679109073778029e-21  -1.2105096504877352e-21  -5.6130843781604203e-22  -1.1684422334817436e-22  -5.8422111674087226e-23  -3.4628309482118263e-22  6.1360805112923408e-36  9.8425642086847906e-19  -3.6667383624229050e-22  -5.7391363001698184e-22  -1.1394100058868366e-21  -9.3341437417377106e-22  -1.9668959439135275e-22  -2.7697783431747897e-23  -1.0356201883432952e-22  -1.5254766519967743e-22  -1.3089070820188417e-22  -6.3573619497263989e-23  -1.7977130733799073e-23  8.0890605849352593e-21  -7.3468396926392969e-40  4.0407618309516133e-39  -1.0470281274309911e-25  -5.2351406371548820e-26  -1.2729799070411794e-24  -6.5248091180657719e-25  -1.4693679385278594e-39  -2.5508724832296010e-20  4.1625056708082458e-04  2.1389346279003646e-04  1.2026534562244924e-04  3.2602501058157530e-04  2.2838974654546036e-04  4.1678125050657628e-04  2.2592068470828625e-04  6.4303007763199366e-04  8.9163388153495565e-05  5.0487888916943225e-06  4.1007381434203841e-04  6.5820971699880103e-04  1.8740591405484340e-04  4.7647618781092142e-04  1.5173112464112151e-04  6.7040002147931188e-05  6.8814208210695989e-04  1.4357464227909516e-04  6.1488804825297200e-04  9.7246467095499876e-05  3.2045893706381969e-04  1.2431527695898903e-04  5.7233819368784336e-04  2.5594371985552253e-04  8.3309910040069515e-04  6.3222261342091258e-04  7.6917611627823194e-04  3.5759377597656639e-04  5.8864719334774805e-04  6.5557114390705758e-04  9.2165159514363186e-04  5.7883058643004408e-04  4.8912887657464460e-04  2.7581893411726129e-04  5.5523606729413930e-04  1.0254227630187448e-03  1.3459757276420078e-03  1.5007982530480413e-03  1.5381054793109892e-03  1.4790422645625187e-03  1.1802884641223498e-03  4.8043852000577127e-04  4.0970144415237823e-04  3.1902007231948785e-04  7.1472133150783396e-04  6.1238013767036669e-04  5.3686926453688690e-04  3.6453975361743759e-04  1.7411055008403545e-04  1.6573716751501331e-04  4.0474776369314199e-04  6.8732357694422005e-06  1.4507899185453794e-04  1.3908963954781649e-04  7.3380329297608840e-05  5.5551723590545030e-05  2.6817519677419638e-05  1.0361140554202176e-05  2.5876816153581481e-06  1.1644737203180071e-06  2.9026439260206759e-06  3.3609103831296129e-06  3.6285310200673035e-06  3.1233133699398046e-06  3.3945334272901521e-06  4.9229722408730286e-06  1.1037253989452804e-05  2.6496314546555272e-06  8.8621623033101002e-06  2.5977245230571491e-06  1.7623232546929122e-05  2.8629404448891774e-06  2.2069989934802715e-05  1.8565651818778327e-05  2.2596485300570910e-05  1.0508360593174357e-05  4.8574535889657856e-06  2.1048784029249314e-06  5.3748704502960322e-06  3.5506464420575039e-06  7.1828718826605033e-06  3.8023367013336933e-06  1.6401546345564992e-05  2.1379356683668132e-06  1.9456818077553279e-05  7.0864894720684002e-06  9.9791781713766842e-07  1.7590409944203452e-07  1.8656074777280908e-06  1.8152506937339803e-06  1.4926850667381563e-06  8.5036247026558089e-07  4.5505501692387596e-07  2.0545630413645262e-07  8.8008146022556213e-08  1.9036569802166176e-08  1.8861581938177711e-09  4.1371313151428453e-09  2.3508102330227677e-08  -7.6705765140317822e-24  -1.5311611231079795e-20  4.5952433459769910e-04  1.3846869930876998e-04  8.9749543693177133e-05  4.9793442490193672e-05  4.2650701878511969e-04  4.8636966019238129e-04  5.7983253939352818e-04  7.0075330646890226e-04  5.8182610677138299e-05  4.0758074095050033e-04  3.8114065412599401e-04  4.4500048982103272e-04  9.7036245347988288e-04  6.2951901260118826e-04  4.6376069467684910e-04  1.1079395581758422e-03  9.0726912570087299e-05  5.4888749546348791e-04  7.6109542103324813e-04  3.6933212176266976e-04  1.3929425658686608e-03  9.1566133501394943e-04  1.5137434793842039e-03  8.2348044619277427e-04  1.0139841356733767e-03  8.8749239305052838e-05  3.9965881200028841e-04  1.5754331499048205e-03  1.0127355684114126e-03  2.4521858932642843e-04  1.5559381004850072e-03  2.0110063605968974e-04  1.1279816199751891e-03  4.8491399618491831e-04  3.1214830135763432e-04  1.3238413722866014e-03  1.7231617938050596e-03  2.0476434561648165e-03  2.1815778710763383e-03  2.1339817177298327e-03  1.9040211404146312e-03  1.3236370008331481e-03  3.0622481898119993e-04  9.7508962703223901e-04  8.3117944240361811e-04  6.7541379991800817e-04  9.9067081617589328e-04  7.5320973759537184e-04  1.0242802412834864e-04  3.8454345455958376e-04  4.2707711478262870e-04  4.2071655202133892e-04  3.6428944832207652e-04  1.9605738902786393e-04  1.1016572165826681e-04  6.2612403497925396e-05  6.4887551468380215e-05  2.6203822731423909e-05  1.0451292743316605e-05  2.1020775449171334e-06  1.2310104793886466e-06  2.4268341244036895e-06  2.1630451196257707e-06  1.6515457769364161e-06  1.4222615667168713e-06  2.3574697107730140e-06  7.9054265253264661e-06  8.4786555555853706e-06  2.0945531616963887e-05  5.0560139134030559e-06  9.9091977771481501e-06  3.1994709304026944e-05  2.9540417229462820e-05  1.2648993812990198e-05  3.2843149568048644e-05  2.1706753764237216e-05  6.3474004575710110e-06  6.4671026411784140e-06  3.1583298939489617e-06  1.3672894443292881e-05  5.1894032035579826e-06  2.0336413401802543e-05  2.2830900572097757e-05  1.5481943621706882e-05  1.3935616663651647e-06  2.2874457896083827e-05  4.6034384148582490e-06  2.5616001235979924e-06  1.1858468120218934e-06  2.5490299245668690e-06  1.9540784832112619e-06  1.4638242075356424e-06  6.6894696091856462e-07  3.3275659059320495e-07  9.4490284925412300e-08  3.3036997744949537e-09  4.1709290819644752e-08  4.2655943190953394e-08  4.8568431447951320e-09  -3.1077177877177472e-23  -1.8715326320548603e-20  2.7582946653893200e-04  4.3627552558033448e-04  4.3470234875103486e-06  4.3787309386424079e-04  6.0319606754823151e-04  5.0893339892132039e-04  7.5128610941682216e-04  1.4407295513357466e-04  1.3101098385408800e-03  4.8062428253226773e-04  1.1462670156274334e-05  1.0082672383689591e-03  9.9964431948972444e-04  3.1568596062026011e-05  1.1035250553925664e-03  3.5970275202218215e-04  4.7127697802761367e-04  1.2523760378321776e-03  7.2471267175816762e-04  1.6352365811844265e-03  5.8720468621292277e-04  1.1421774718716755e-03  4.7919732130390053e-04  1.6752791353037389e-03  1.4193668191793227e-03  2.1866444404514134e-03  1.7870650517546689e-03  1.6205197946175258e-03  8.4037592260603397e-04  1.9260112722091463e-03  1.4662993397362939e-03  1.9151034319765386e-03  1.8608006735590839e-03  9.6035826358102866e-04  1.9308978613203522e-04  1.3654897584024781e-03  1.8824054205509035e-03  2.2009750033300918e-03  2.4293008127931775e-03  2.5005165902934521e-03  2.3791336174122670e-03  1.7860896061957711e-03  5.9325275430252480e-04  1.0223463132469697e-03  5.8696249421307856e-04  2.0238179113621297e-03  1.4465174405963298e-03  1.0087990900402735e-03  7.7488795409056213e-04  6.4595074430431887e-04  6.0805819164797849e-04  1.0088519633906776e-03  1.4679120831480745e-04  4.4029099487897058e-04  1.5654017399243869e-04  1.1423017661173531e-05  7.0684040397485829e-05  5.4150850307071087e-05  2.1473560184483604e-05  7.9922001172920263e-06  5.1643035585531475e-07  2.3185651050150286e-06  3.0673475038225544e-06  3.2821736080697329e-06  2.8158663997906415e-06  3.3186492753192158e-06  4.9784948462642336e-06  1.6048787649655025e-05  6.6938814670141533e-06  2.2680605761056550e-05  4.3739260267919224e-06  3.1875243834326918e-05  1.6850519691193890e-05  4.0385306765531706e-05  1.8123966004286066e-05  3.7777685321386629e-05  4.1707875132002596e-06  1.5212778405862616e-05  7.7391715949938903e-06  1.4985476784106229e-05  9.2959749156548193e-06  3.3068095503415177e-06  1.2208096664482243e-05  4.4286623315592997e-05  1.0086273013850039e-05  2.4915414934723579e-06  1.4769194819452226e-05  2.6178040958604536e-06  2.1218126297484579e-06  1.9349231953448990e-06  1.7620793542528805e-06  1.4793693911285550e-06  7.2025738245700561e-07  3.3316411311599538e-07  5.6648501348111135e-08  2.9326470707519376e-08  7.3323852458939293e-08  7.0428553325235355e-08  3.8232299031523774e-08  -5.3057973336439910e-24  -1.9342062226051317e-20  3.3714534657336035e-04  4.5887280519740304e-04  8.4117651336674992e-05  1.4247393247512034e-04  5.0992783013957207e-04  7.7338877743573912e-04  1.0825099544911909e-03  9.4745263338650502e-04  5.7088952286427888e-04  1.0160745983516680e-04  3.8377928227082325e-04  2.2818453025783415e-04  7.4699677983314629e-04  1.5103451204486779e-03  2.3962872967340281e-04  5.3519641841933568e-04  1.4835087911673726e-03  4.5731659772462797e-04  1.2308739490162772e-03  3.8946212363089511e-04  2.0603500365296302e-04  1.7147614597632153e-03  1.3620017927312939e-03  2.0539719305439886e-03  9.5492660082403303e-04  9.3982895200035688e-04  6.8280047686789707e-04  1.4624015499804482e-03  2.9323901811834758e-03  1.5514255637073709e-03  9.6539598972988981e-04  2.8198142199822732e-03  5.1321806848776664e-04  2.4575726688606751e-03  5.6441922107388330e-04  5.9110233013896243e-04  2.1557697088085670e-03  2.3062152654807796e-03  2.5714083034617248e-03  2.7101959342511629e-03  2.6491605545421021e-03  2.3751407973493324e-03  1.5443692218925068e-03  7.3957160073328111e-04  1.6175246338155978e-03  1.3744967543623356e-03  1.6150106026047925e-03  2.3628821787218227e-03  1.7759834045471530e-03  6.9494496538183390e-04  2.5354521380363120e-04  4.4548826015674219e-04  8.3072494470611393e-04  7.3019819209664604e-04  3.1991703917425788e-04  4.6747284364659747e-05  2.0096668038069106e-05  7.5720167751664366e-05  3.6120640822244071e-05  1.5871460956729595e-05  4.8240835972000503e-06  4.9220831255563330e-08  1.7407065143345717e-06  2.6447173709305250e-06  2.3564079576097260e-06  2.2444928115346160e-06  3.7635338606120936e-06  1.2196409473550393e-05  1.3491464042307477e-05  2.5537607749184691e-05  6.4258671858936363e-06  5.4112562561286058e-06  3.9659261789852872e-05  1.7629380122619172e-05  1.6336017829928225e-05  3.4517176492262985e-05  3.0689793007711950e-05  2.2564383184348637e-05  1.6509127767596156e-05  1.3140644300060630e-05  2.8263159228690898e-05  1.7776805718359471e-06  1.6347685483969884e-05  1.8374237097830705e-05  4.5119290779144543e-05  1.0253263522700611e-05  3.6147235845756405e-06  5.2692439358730937e-06  1.2559707064874058e-06  2.9204134343987402e-06  2.3387685270266559e-06  1.6576001624948106e-06  1.0139628638750077e-06  3.9545809529032387e-07  1.1914372766822190e-07  1.2085077876388803e-08  5.7305285912555456e-08  6.0188598099008194e-08  4.5594267343348392e-08  -6.7252501135395259e-24  -1.5059599965622121e-20  3.4843561693528630e-04  5.3949271408147736e-04  7.9122033759437957e-04  1.6624622267633665e-04  4.9350952634630416e-04  4.8363743180135111e-04  4.3410191480174997e-04  1.1753696802008951e-03  3.5113018277513867e-04  1.6281924545401721e-03  9.3757832118667340e-04  2.3359836449322912e-04  1.2466700971434984e-03  1.0417551131263430e-03  2.5085669975960083e-04  1.2524666351242328e-03  9.7242456492919126e-04  1.1238092305375512e-03  1.0771749953687069e-03  7.2737028049795968e-04  2.0466814894781237e-03  1.1759138649644720e-03  1.9593914740845802e-03  1.2499505454902264e-03  2.6599219323904457e-03  2.3575022291283708e-03  3.0652135976411824e-03  2.2652707643266890e-03  1.6006193660683973e-03  1.7286690302395432e-03  3.0863696930291903e-03  1.7043071767806279e-03  3.1517720817907709e-03  2.4631487786606356e-03  1.7343133317473407e-03  6.6637072029314200e-05  1.8238651381597747e-03  2.5812677286010974e-03  2.6702811503173077e-03  2.8610583428479203e-03  2.9392250799374947e-03  2.7859376149652576e-03  2.0608709791162844e-03  6.0100585765432294e-04  1.6696047139476511e-03  1.0286581058632002e-03  3.1164009304430391e-03  1.5092231316476861e-03  4.9907983151908355e-04  4.1187070751752064e-04  6.3407893494128785e-04  9.4367785955719698e-04  1.3907260954192759e-03  5.4422609932751334e-05  8.0053140717164400e-04  1.7802879965024738e-04  7.9646736279019242e-05  2.6822809460269282e-05  6.5593182790700172e-05  2.3934281602327301e-05  9.1815031737601084e-06  1.4576458196292702e-06  1.2661070414048306e-06  2.1775344563049123e-06  2.3121458978231134e-06  1.6718078190911858e-06  3.0035659324223285e-06  6.3098449355148514e-06  2.1113276238311694e-05  7.5513502876981000e-06  2.5082717930147763e-05  3.3997867782138328e-06  2.6187171397724710e-05  1.6470636520648282e-05  2.5084513721572229e-05  1.8800567139220216e-05  4.2575895360065628e-05  1.1367835410040583e-05  3.2729019586800075e-05  1.6681558740949865e-05  2.8346477448061406e-05  1.9652023126660303e-05  6.7536444872872925e-06  4.2267085470216242e-06  3.7866375972057916e-05  4.3625819628378578e-05  1.1490512969062935e-05  8.2751690847055294e-06  1.0200098723228955e-07  2.2589695394203343e-07  3.5397321343421747e-06  2.3414245432321712e-06  1.7331735626908026e-06  6.9398349850381224e-07  3.6860967249815071e-07  9.1878381566352622e-08  2.7249990451667395e-08  1.3103876547324321e-08  2.1095980078495095e-08  -2.8652674801293258e-38  -6.5135688883272206e-21  2.7128963517409808e-04  5.4024405594689582e-04  4.3774141374904870e-04  5.8180436445785875e-04  1.8255209397913136e-04  5.8799695530710493e-04  1.0471053304614887e-03  1.3590261286169506e-03  1.2142870724920407e-03  4.9236355413585428e-04  4.8939558303227881e-04  2.8754783518358917e-05  2.0977985935977615e-04  1.2078732112642825e-03  1.7492134676824792e-03  2.8512255608749553e-05  2.6614600591844931e-04  1.1521524000180101e-03  2.0819022667097970e-04  1.5677585657214693e-03  2.9112964207352248e-05  3.2382163275666208e-04  1.3215791998081939e-03  1.0935735364947417e-03  1.8583089017228706e-03  4.5055333922275109e-04  3.4456879815254591e-04  1.4793958853401049e-03  2.3058122727888540e-03  3.8120690764554634e-03  1.5487234964656196e-03  1.9942179855242295e-03  3.7379650409649816e-03  1.1299447879476172e-03  3.5807895067301271e-03  8.5298589663441960e-04  8.3652802941225519e-04  2.8462440111142826e-03  2.9091573537070241e-03  3.0133884380336012e-03  3.1371872124145426e-03  3.0810981462720548e-03  2.7696354415830096e-03  1.6764539807955460e-03  1.0203984936915660e-03  2.3198034825406074e-03  1.5904391822868969e-03  2.6400255714578522e-03  3.1510887277971353e-03  2.1293100781612094e-03  1.0063984731094164e-03  3.8369694217739621e-05  1.9400629571668217e-04  1.2573630394323611e-03  8.8883370387118942e-04  5.5560103022795726e-04  6.8245926009126036e-06  1.1738715805073594e-04  7.1429671885024542e-05  4.9182088328350843e-05  1.8169518889314049e-05  5.1413182936665391e-06  6.8715048811189605e-07  2.2598457589514998e-06  2.7919140585711093e-06  2.1150485163663145e-06  1.7415095886643114e-06  4.0209372859025258e-06  1.5978731847237826e-05  1.5944215279909884e-05  2.7955842373187916e-05  8.4369700333678638e-06  9.2421961480442272e-06  2.9327742049040154e-05  1.6697179757497871e-05  8.2687289318923564e-07  3.5161862840200233e-05  4.2108642560281395e-05  8.8762762995865218e-06  3.2373559836829120e-05  7.9748037844995119e-06  3.2481975064441430e-05  1.1206793147000899e-05  1.6666964960532848e-05  2.1054306788355738e-05  4.1157919910935139e-05  4.1396892017889331e-05  6.9011993665371660e-06  9.2787839546072650e-06  2.4504882364985375e-06  2.2820957149851565e-06  2.9656477273644686e-06  2.3163743952183057e-06  1.1637227639660545e-06  6.2375856717528660e-07  2.3134352509509809e-07  1.1844981020306815e-07  3.5231241617639723e-08  1.6711754089214859e-08  -9.2768870858600864e-25  -1.9312742697426325e-20  1.1733802567329017e-04  4.0511720313077433e-04  6.9169625442502467e-04  7.0684891468552160e-04  9.5816834933987283e-05  6.1676508622459682e-04  2.5320456808682789e-04  1.3067243529273466e-04  1.5502673720327598e-03  5.7780437518076277e-04  1.5427103562568511e-03  8.9906937666313542e-04  1.9654729822414608e-04  1.2142919238553327e-03  1.3184370639439012e-03  5.9360357747776445e-04  9.5493954995150992e-04  9.6768583389441178e-04  1.3135040076128204e-03  9.2645518460625700e-04  2.8588149880091174e-04  1.7725215446320660e-03  9.4012744071697791e-04  2.0920327321502417e-03  1.3730942576000401e-03  2.9286692699133300e-03  2.4264456312713197e-03  3.0953457129394685e-03  2.0377779780096400e-03  1.1667123787531468e-03  2.6345239122881978e-03  3.6787146228621655e-03  1.5227219943542789e-03  4.3769291421372732e-03  2.6446140431189325e-03  2.8275184683423898e-03  3.2109482428077318e-05  2.1700683298162297e-03  3.4133360692400576e-03  3.2564510247705524e-03  3.3346386043002336e-03  3.4088840084670609e-03  3.2279051605034171e-03  2.3616079638506182e-03  5.7158075873361578e-04  2.2399423355262994e-03  1.4901506275333267e-03  3.8155354625103708e-03  1.1573790646409064e-03  2.7563380427267408e-04  2.0864885024632660e-04  1.7073493864038541e-04  8.0583664250562215e-04  1.4230590601057389e-03  2.1070404077731347e-04  1.0930290242708988e-03  2.7732600633459837e-04  1.5452616959015032e-04  5.4498822423735707e-05  7.6368130006231269e-05  3.2886087192933717e-05  1.3056880091853565e-05  3.0960738311451073e-06  1.4471591763233664e-07  1.6822565360926091e-06  2.5079579962300275e-06  1.6357934546069563e-06  3.3978199755525213e-06  8.2141794260567332e-06  2.5921163670001144e-05  9.7295252962760405e-06  2.5233384917850757e-05  3.4482100178531626e-06  2.5514297185665965e-05  1.4823956868228345e-06  1.7637134744036096e-05  2.5515607039268521e-05  4.4833548756152365e-05  2.5103328832816686e-05  1.5465378623732801e-05  3.0594557867458865e-05  8.4552640218580410e-06  1.7769979114799463e-05  2.1485666710526063e-05  2.2864829159738994e-06  3.1854171121699835e-05  4.2409077090437271e-05  3.3170661664602756e-05  3.3128343875516363e-06  7.8767755941716562e-06  4.1709966334248560e-06  3.4666835998454262e-06  2.7868464897200027e-06  1.9389025856930349e-06  8.1993293127856330e-07  4.1565278627721661e-07  1.6592689403178564e-07  8.0500841204441440e-08  4.4914335084241442e-08  -3.7298884336659919e-24  -4.9002873316762266e-21  3.4790744326252667e-04  5.1560775251116239e-04  5.9009748771545953e-04  4.9685098015806459e-04  8.2309423695960799e-04  6.0581388458257492e-05  4.9427494338448550e-04  9.1555225551319690e-04  1.3204728797892252e-03  1.5517425897125252e-03  6.4837643844687634e-04  5.2828449462878353e-04  3.3616097391633300e-04  3.5783047233342878e-04  1.4091260929170936e-03  1.8576044223099356e