<?xml version="1.0"?>
<VTKFile type="UnstructuredGrid"  version="0.1"  >
<UnstructuredGrid>
<Piece  NumberOfPoints="10201" NumberOfCells="20000">
<Points>
<DataArray  type="Float64"  NumberOfComponents="3"  format="ascii">0 0 0  0.01 0 0  0.02 0 0  0.03 0 0  0.04 0 0  0.05 0 0  0.06 0 0  0.07000000000000001 0 0  0.08 0 0  0.09 0 0  0.1 0 0  0.11 0 0  0.12 0 0  0.13 0 0  0.14 0 0  0.15 0 0  0.16 0 0  0.17 0 0  0.18 0 0  0.19 0 0  0.2 0 0  0.21 0 0  0.22 0 0  0.23 0 0  0.24 0 0  0.25 0 0  0.26 0 0  0.27 0 0  0.28 0 0  0.29 0 0  0.3 0 0  0.31 0 0  0.32 0 0  0.33 0 0  0.34 0 0  0.35 0 0  0.36 0 0  0.37 0 0  0.38 0 0  0.39 0 0  0.4 0 0  0.41 0 0  0.42 0 0  0.43 0 0  0.44 0 0  0.45 0 0  0.46 0 0  0.47 0 0  0.48 0 0  0.49 0 0  0.5 0 0  0.51 0 0  0.52 0 0  0.53 0 0  0.54 0 0  0.55 0 0  0.5600000000000001 0 0  0.57 0 0  0.58 0 0  0.59 0 0  0.6 0 0  0.61 0 0  0.62 0 0  0.63 0 0  0.64 0 0  0.65 0 0  0.66 0 0  0.67 0 0  0.68 0 0  0.6899999999999999 0 0  0.7 0 0  0.71 0 0  0.72 0 0  0.73 0 0  0.74 0 0  0.75 0 0  0.76 0 0  0.77 0 0  0.78 0 0  0.79 0 0  0.8 0 0  0.8100000000000001 0 0  0.82 0 0  0.83 0 0  0.84 0 0  0.85 0 0  0.86 0 0  0.87 0 0  0.88 0 0  0.89 0 0  0.9 0 0  0.91 0 0  0.92 0 0  0.93 0 0  0.9399999999999999 0 0  0.95 0 0  0.96 0 0  0.97 0 0  0.98 0 0  0.99 0 0  1 0 0  0 0.01 0  0.01 0.01 0  0.02 0.01 0  0.03 0.01 0  0.04 0.01 0  0.05 0.01 0  0.06 0.01 0  0.07000000000000001 0.01 0  0.08 0.01 0  0.09 0.01 0  0.1 0.01 0  0.11 0.01 0  0.12 0.01 0  0.13 0.01 0  0.14 0.01 0  0.15 0.01 0  0.16 0.01 0  0.17 0.01 0  0.18 0.01 0  0.19 0.01 0  0.2 0.01 0  0.21 0.01 0  0.22 0.01 0  0.23 0.01 0  0.24 0.01 0  0.25 0.01 0  0.26 0.01 0  0.27 0.01 0  0.28 0.01 0  0.29 0.01 0  0.3 0.01 0  0.31 0.01 0  0.32 0.01 0  0.33 0.01 0  0.34 0.01 0  0.35 0.01 0  0.36 0.01 0  0.37 0.01 0  0.38 0.01 0  0.39 0.01 0  0.4 0.01 0  0.41 0.01 0  0.42 0.01 0  0.43 0.01 0  0.44 0.01 0  0.45 0.01 0  0.46 0.01 0  0.47 0.01 0  0.48 0.01 0  0.49 0.01 0  0.5 0.01 0  0.51 0.01 0  0.52 0.01 0  0.53 0.01 0  0.54 0.01 0  0.55 0.01 0  0.5600000000000001 0.01 0  0.57 0.01 0  0.58 0.01 0  0.59 0.01 0  0.6 0.01 0  0.61 0.01 0  0.62 0.01 0  0.63 0.01 0  0.64 0.01 0  0.65 0.01 0  0.66 0.01 0  0.67 0.01 0  0.68 0.01 0  0.6899999999999999 0.01 0  0.7 0.01 0  0.71 0.01 0  0.72 0.01 0  0.73 0.01 0  0.74 0.01 0  0.75 0.01 0  0.76 0.01 0  0.77 0.01 0  0.78 0.01 0  0.79 0.01 0  0.8 0.01 0  0.8100000000000001 0.01 0  0.82 0.01 0  0.83 0.01 0  0.84 0.01 0  0.85 0.01 0  0.86 0.01 0  0.87 0.01 0  0.88 0.01 0  0.89 0.01 0  0.9 0.01 0  0.91 0.01 0  0.92 0.01 0  0.93 0.01 0  0.9399999999999999 0.01 0  0.95 0.01 0  0.96 0.01 0  0.97 0.01 0  0.98 0.01 0  0.99 0.01 0  1 0.01 0  0 0.02 0  0.01 0.02 0  0.02 0.02 0  0.03 0.02 0  0.04 0.02 0  0.05 0.02 0  0.06 0.02 0  0.07000000000000001 0.02 0  0.08 0.02 0  0.09 0.02 0  0.1 0.02 0  0.11 0.02 0  0.12 0.02 0  0.13 0.02 0  0.14 0.02 0  0.15 0.02 0  0.16 0.02 0  0.17 0.02 0  0.18 0.02 0  0.19 0.02 0  0.2 0.02 0  0.21 0.02 0  0.22 0.02 0  0.23 0.02 0  0.24 0.02 0  0.25 0.02 0  0.26 0.02 0  0.27 0.02 0  0.28 0.02 0  0.29 0.02 0  0.3 0.02 0  0.31 0.02 0  0.32 0.02 0  0.33 0.02 0  0.34 0.02 0  0.35 0.02 0  0.36 0.02 0  0.37 0.02 0  0.38 0.02 0  0.39 0.02 0  0.4 0.02 0  0.41 0.02 0  0.42 0.02 0  0.43 0.02 0  0.44 0.02 0  0.45 0.02 0  0.46 0.02 0  0.47 0.02 0  0.48 0.02 0  0.49 0.02 0  0.5 0.02 0  0.51 0.02 0  0.52 0.02 0  0.53 0.02 0  0.54 0.02 0  0.55 0.02 0  0.5600000000000001 0.02 0  0.57 0.02 0  0.58 0.02 0  0.59 0.02 0  0.6 0.02 0  0.61 0.02 0  0.62 0.02 0  0.63 0.02 0  0.64 0.02 0  0.65 0.02 0  0.66 0.02 0  0.67 0.02 0  0.68 0.02 0  0.6899999999999999 0.02 0  0.7 0.02 0  0.71 0.02 0  0.72 0.02 0  0.73 0.02 0  0.74 0.02 0  0.75 0.02 0  0.76 0.02 0  0.77 0.02 0  0.78 0.02 0  0.79 0.02 0  0.8 0.02 0  0.8100000000000001 0.02 0  0.82 0.02 0  0.83 0.02 0  0.84 0.02 0  0.85 0.02 0  0.86 0.02 0  0.87 0.02 0  0.88 0.02 0  0.89 0.02 0  0.9 0.02 0  0.91 0.02 0  0.92 0.02 0  0.93 0.02 0  0.9399999999999999 0.02 0  0.95 0.02 0  0.96 0.02 0  0.97 0.02 0  0.98 0.02 0  0.99 0.02 0  1 0.02 0  0 0.03 0  0.01 0.03 0  0.02 0.03 0  0.03 0.03 0  0.04 0.03 0  0.05 0.03 0  0.06 0.03 0  0.07000000000000001 0.03 0  0.08 0.03 0  0.09 0.03 0  0.1 0.03 0  0.11 0.03 0  0.12 0.03 0  0.13 0.03 0  0.14 0.03 0  0.15 0.03 0  0.16 0.03 0  0.17 0.03 0  0.18 0.03 0  0.19 0.03 0  0.2 0.03 0  0.21 0.03 0  0.22 0.03 0  0.23 0.03 0  0.24 0.03 0  0.25 0.03 0  0.26 0.03 0  0.27 0.03 0  0.28 0.03 0  0.29 0.03 0  0.3 0.03 0  0.31 0.03 0  0.32 0.03 0  0.33 0.03 0  0.34 0.03 0  0.35 0.03 0  0.36 0.03 0  0.37 0.03 0  0.38 0.03 0  0.39 0.03 0  0.4 0.03 0  0.41 0.03 0  0.42 0.03 0  0.43 0.03 0  0.44 0.03 0  0.45 0.03 0  0.46 0.03 0  0.47 0.03 0  0.48 0.03 0  0.49 0.03 0  0.5 0.03 0  0.51 0.03 0  0.52 0.03 0  0.53 0.03 0  0.54 0.03 0  0.55 0.03 0  0.5600000000000001 0.03 0  0.57 0.03 0  0.58 0.03 0  0.59 0.03 0  0.6 0.03 0  0.61 0.03 0  0.62 0.03 0  0.63 0.03 0  0.64 0.03 0  0.65 0.03 0  0.66 0.03 0  0.67 0.03 0  0.68 0.03 0  0.6899999999999999 0.03 0  0.7 0.03 0  0.71 0.03 0  0.72 0.03 0  0.73 0.03 0  0.74 0.03 0  0.75 0.03 0  0.76 0.03 0  0.77 0.03 0  0.78 0.03 0  0.79 0.03 0  0.8 0.03 0  0.8100000000000001 0.03 0  0.82 0.03 0  0.83 0.03 0  0.84 0.03 0  0.85 0.03 0  0.86 0.03 0  0.87 0.03 0  0.88 0.03 0  0.89 0.03 0  0.9 0.03 0  0.91 0.03 0  0.92 0.03 0  0.93 0.03 0  0.9399999999999999 0.03 0  0.95 0.03 0  0.96 0.03 0  0.97 0.03 0  0.98 0.03 0  0.99 0.03 0  1 0.03 0  0 0.04 0  0.01 0.04 0  0.02 0.04 0  0.03 0.04 0  0.04 0.04 0  0.05 0.04 0  0.06 0.04 0  0.07000000000000001 0.04 0  0.08 0.04 0  0.09 0.04 0  0.1 0.04 0  0.11 0.04 0  0.12 0.04 0  0.13 0.04 0  0.14 0.04 0  0.15 0.04 0  0.16 0.04 0  0.17 0.04 0  0.18 0.04 0  0.19 0.04 0  0.2 0.04 0  0.21 0.04 0  0.22 0.04 0  0.23 0.04 0  0.24 0.04 0  0.25 0.04 0  0.26 0.04 0  0.27 0.04 0  0.28 0.04 0  0.29 0.04 0  0.3 0.04 0  0.31 0.04 0  0.32 0.04 0  0.33 0.04 0  0.34 0.04 0  0.35 0.04 0  0.36 0.04 0  0.37 0.04 0  0.38 0.04 0  0.39 0.04 0  0.4 0.04 0  0.41 0.04 0  0.42 0.04 0  0.43 0.04 0  0.44 0.04 0  0.45 0.04 0  0.46 0.04 0  0.47 0.04 0  0.48 0.04 0  0.49 0.04 0  0.5 0.04 0  0.51 0.04 0  0.52 0.04 0  0.53 0.04 0  0.54 0.04 0  0.55 0.04 0  0.5600000000000001 0.04 0  0.57 0.04 0  0.58 0.04 0  0.59 0.04 0  0.6 0.04 0  0.61 0.04 0  0.62 0.04 0  0.63 0.04 0  0.64 0.04 0  0.65 0.04 0  0.66 0.04 0  0.67 0.04 0  0.68 0.04 0  0.6899999999999999 0.04 0  0.7 0.04 0  0.71 0.04 0  0.72 0.04 0  0.73 0.04 0  0.74 0.04 0  0.75 0.04 0  0.76 0.04 0  0.77 0.04 0  0.78 0.04 0  0.79 0.04 0  0.8 0.04 0  0.8100000000000001 0.04 0  0.82 0.04 0  0.83 0.04 0  0.84 0.04 0  0.85 0.04 0  0.86 0.04 0  0.87 0.04 0  0.88 0.04 0  0.89 0.04 0  0.9 0.04 0  0.91 0.04 0  0.92 0.04 0  0.93 0.04 0  0.9399999999999999 0.04 0  0.95 0.04 0  0.96 0.04 0  0.97 0.04 0  0.98 0.04 0  0.99 0.04 0  1 0.04 0  0 0.05 0  0.01 0.05 0  0.02 0.05 0  0.03 0.05 0  0.04 0.05 0  0.05 0.05 0  0.06 0.05 0  0.07000000000000001 0.05 0  0.08 0.05 0  0.09 0.05 0  0.1 0.05 0  0.11 0.05 0  0.12 0.05 0  0.13 0.05 0  0.14 0.05 0  0.15 0.05 0  0.16 0.05 0  0.17 0.05 0  0.18 0.05 0  0.19 0.05 0  0.2 0.05 0  0.21 0.05 0  0.22 0.05 0  0.23 0.05 0  0.24 0.05 0  0.25 0.05 0  0.26 0.05 0  0.27 0.05 0  0.28 0.05 0  0.29 0.05 0  0.3 0.05 0  0.31 0.05 0  0.32 0.05 0  0.33 0.05 0  0.34 0.05 0  0.35 0.05 0  0.36 0.05 0  0.37 0.05 0  0.38 0.05 0  0.39 0.05 0  0.4 0.05 0  0.41 0.05 0  0.42 0.05 0  0.43 0.05 0  0.44 0.05 0  0.45 0.05 0  0.46 0.05 0  0.47 0.05 0  0.48 0.05 0  0.49 0.05 0  0.5 0.05 0  0.51 0.05 0  0.52 0.05 0  0.53 0.05 0  0.54 0.05 0  0.55 0.05 0  0.5600000000000001 0.05 0  0.57 0.05 0  0.58 0.05 0  0.59 0.05 0  0.6 0.05 0  0.61 0.05 0  0.62 0.05 0  0.63 0.05 0  0.64 0.05 0  0.65 0.05 0  0.66 0.05 0  0.67 0.05 0  0.68 0.05 0  0.6899999999999999 0.05 0  0.7 0.05 0  0.71 0.05 0  0.72 0.05 0  0.73 0.05 0  0.74 0.05 0  0.75 0.05 0  0.76 0.05 0  0.77 0.05 0  0.78 0.05 0  0.79 0.05 0  0.8 0.05 0  0.8100000000000001 0.05 0  0.82 0.05 0  0.83 0.05 0  0.84 0.05 0  0.85 0.05 0  0.86 0.05 0  0.87 0.05 0  0.88 0.05 0  0.89 0.05 0  0.9 0.05 0  0.91 0.05 0  0.92 0.05 0  0.93 0.05 0  0.9399999999999999 0.05 0  0.95 0.05 0  0.96 0.05 0  0.97 0.05 0  0.98 0.05 0  0.99 0.05 0  1 0.05 0  0 0.06 0  0.01 0.06 0  0.02 0.06 0  0.03 0.06 0  0.04 0.06 0  0.05 0.06 0  0.06 0.06 0  0.07000000000000001 0.06 0  0.08 0.06 0  0.09 0.06 0  0.1 0.06 0  0.11 0.06 0  0.12 0.06 0  0.13 0.06 0  0.14 0.06 0  0.15 0.06 0  0.16 0.06 0  0.17 0.06 0  0.18 0.06 0  0.19 0.06 0  0.2 0.06 0  0.21 0.06 0  0.22 0.06 0  0.23 0.06 0  0.24 0.06 0  0.25 0.06 0  0.26 0.06 0  0.27 0.06 0  0.28 0.06 0  0.29 0.06 0  0.3 0.06 0  0.31 0.06 0  0.32 0.06 0  0.33 0.06 0  0.34 0.06 0  0.35 0.06 0  0.36 0.06 0  0.37 0.06 0  0.38 0.06 0  0.39 0.06 0  0.4 0.06 0  0.41 0.06 0  0.42 0.06 0  0.43 0.06 0  0.44 0.06 0  0.45 0.06 0  0.46 0.06 0  0.47 0.06 0  0.48 0.06 0  0.49 0.06 0  0.5 0.06 0  0.51 0.06 0  0.52 0.06 0  0.53 0.06 0  0.54 0.06 0  0.55 0.06 0  0.5600000000000001 0.06 0  0.57 0.06 0  0.58 0.06 0  0.59 0.06 0  0.6 0.06 0  0.61 0.06 0  0.62 0.06 0  0.63 0.06 0  0.64 0.06 0  0.65 0.06 0  0.66 0.06 0  0.67 0.06 0  0.68 0.06 0  0.6899999999999999 0.06 0  0.7 0.06 0  0.71 0.06 0  0.72 0.06 0  0.73 0.06 0  0.74 0.06 0  0.75 0.06 0  0.76 0.06 0  0.77 0.06 0  0.78 0.06 0  0.79 0.06 0  0.8 0.06 0  0.8100000000000001 0.06 0  0.82 0.06 0  0.83 0.06 0  0.84 0.06 0  0.85 0.06 0  0.86 0.06 0  0.87 0.06 0  0.88 0.06 0  0.89 0.06 0  0.9 0.06 0  0.91 0.06 0  0.92 0.06 0  0.93 0.06 0  0.9399999999999999 0.06 0  0.95 0.06 0  0.96 0.06 0  0.97 0.06 0  0.98 0.06 0  0.99 0.06 0  1 0.06 0  0 0.07000000000000001 0  0.01 0.07000000000000001 0  0.02 0.07000000000000001 0  0.03 0.07000000000000001 0  0.04 0.07000000000000001 0  0.05 0.07000000000000001 0  0.06 0.07000000000000001 0  0.07000000000000001 0.07000000000000001 0  0.08 0.07000000000000001 0  0.09 0.07000000000000001 0  0.1 0.07000000000000001 0  0.11 0.07000000000000001 0  0.12 0.07000000000000001 0  0.13 0.07000000000000001 0  0.14 0.07000000000000001 0  0.15 0.07000000000000001 0  0.16 0.07000000000000001 0  0.17 0.0700
[...]
<PointData  Scalars="Indicator Function"> 
<DataArray  type="Float64"  Name="Indicator Function"  format="ascii">-2.4074124304840448e-35  -6.7399608968892053e-20  1.4787341100747200e-20  3.3548753800946795e-19  3.4535609067841764e-19  -3.5995595716303466e-20  -3.1508254142587245e-20  6.5389095982150103e-19  9.4068596572351587e-19  -9.0277966143151681e-36  5.0414409574633504e-18  3.0069682179794398e-18  -4.2800306307079083e-20  -3.6626616615764307e-20  7.5937278175188897e-18  -9.0481186914389687e-21  -6.9825273751108887e-21  2.1813094013934916e-18  -3.5866568450510109e-20  -4.2129717533470784e-35  5.5117079122030542e-18  6.0185310762101120e-36  -3.8976764901212739e-20  1.3418945425470289e-17  -5.2997782927684793e-20  -2.6498891463842399e-20  -1.9930625887999110e-20  -4.6379349913257703e-20  4.1451837602346915e-17  -1.7692347536641495e-20  -8.5409811535865935e-20  -3.0526043604349016e-20  -5.0149434441589040e-20  -1.5524793839095866e-20  2.5744640498381221e-17  -9.9423573705039382e-20  -1.3185448352521365e-19  -1.4926670132877200e-19  -1.5430028848834601e-19  -1.5001156146870880e-19  8.6795727694163955e-18  -8.9615028002389082e-20  -2.5857862841246537e-20  -3.4320361238458000e-20  -1.9443159830401281e-20  -2.3024888602799359e-20  3.0737335385818039e-17  -1.4594498224292342e-20  -8.8431735916658065e-21  -1.3726517668157688e-21  -2.2514116372503979e-20  -1.1257058186251992e-20  -8.2168894468713120e-21  -8.8560144788306581e-21  -8.2939022607150796e-21  -5.0719234914516066e-21  2.3988890654113401e-19  -1.2737243146431336e-21  -5.1439957471357584e-22  -3.3179773768420970e-22  -6.2907456591105417e-22  -4.6211630973535983e-22  -6.9818769849107330e-22  -1.3325905825117966e-21  -2.0474088866632269e-21  -1.8304636144450611e-21  -7.5170854570889730e-22  -3.3921134552632412e-21  3.4163811644058493e-18  1.4105932209867450e-37  -2.5145733159256919e-23  -2.2558912759332665e-22  -4.7176086189560856e-22  -7.4822335867976057e-22  -3.9522958492328311e-22  -1.9761479246164144e-22  -7.9440773631659641e-22  -1.1513212101003654e-21  -1.0615754328914417e-21  -8.9751733688923144e-22  -5.0392569554690896e-22  3.2683466243791704e-20  -4.4240909220828569e-22  -2.2209091956062445e-22  2.3509887016445750e-38  -7.0529661049337250e-38  2.3509887016445750e-38  -1.4135066401681484e-22  -5.5720759791407989e-23  1.4105932209867450e-37  -2.7806189505587823e-22  -1.0902278598164289e-22  -1.4561745109417710e-22  8.2464933817614791e-19  -5.1086172306659873e-23  4.7019774032891500e-38  2.3509887016445750e-38  2.3509887016445750e-38  -6.4728190652711823e-23  -2.5052491932013346e-23  1.8807909613156600e-37  -3.6591803140272309e-20  5.7716588280377987e-04  2.3874780994377810e-04  1.6191099203180449e-04  3.5550755686615944e-04  2.8729475235157265e-04  5.0479162964390688e-04  3.1520643164065058e-04  7.0838839284493942e-04  5.1314636651441022e-05  3.4139120670485160e-05  4.4295184279672338e-04  7.6478540927907822e-04  3.8862906950407858e-04  4.6549193301835177e-04  2.8747469708979563e-04  1.9259067323776263e-05  7.9061184885518502e-04  1.3307483616279079e-04  6.4611465723510286e-04  2.2311898098906373e-04  3.1873731309748835e-04  2.5984858051199034e-04  5.7221868528484535e-04  2.1052296844736317e-04  9.5472318177833456e-04  7.1807647457962820e-04  9.5462670803718116e-04  3.5818273792954030e-04  6.3743399818662349e-04  8.7757950562741360e-04  1.0998166288131335e-03  6.8814450213171394e-04  5.5933964599006890e-04  3.5032648497088941e-05  8.8394004137591858e-04  1.3490858572714744e-03  1.7007362828493884e-03  1.8385817005076282e-03  1.8603360367032864e-03  1.7722000309753298e-03  1.4196938288600623e-03  9.0451391244339278e-04  4.6581384582574102e-04  3.8535374142609056e-04  8.2955903785455229e-04  6.0011903471408033e-04  5.2582221411665876e-04  2.8417947024574107e-04  1.7214718045924404e-05  1.6120136919201530e-05  4.0557826442313961e-04  1.1467693928880212e-04  9.0683851359895707e-05  1.1419384834745001e-04  9.2312736349489961e-05  6.7668651873103758e-05  4.4439402521148634e-05  2.5838895323647566e-05  1.6071788364236922e-05  1.0773206676478854e-05  7.2864690610065178e-06  9.5013376657161559e-06  9.5659923772710185e-06  1.9222821614714726e-05  2.7271428788848836e-05  1.9338986613295690e-05  4.0167920814866146e-05  4.1022923165054778e-05  1.8031510785166144e-05  9.2336902309926139e-06  4.5298525794395039e-07  3.8373598149005849e-06  1.0075436231113050e-05  8.4410756418037568e-06  7.1198232455451719e-06  3.6068160246709899e-06  1.2507369528687149e-05  1.4486674326823440e-05  1.1880305732570564e-05  1.0228082109606325e-05  1.0689970182941746e-05  7.4920366018999332e-06  7.1022390567895429e-06  2.6117159402571949e-06  2.7568777942277485e-06  2.9892774788006288e-06  5.0926943823575950e-06  2.0075519442670858e-06  2.3501481481745277e-06  6.1537322468013418e-06  1.9322516644376786e-06  1.9639799132872802e-06  2.6232107939453936e-06  1.8405733325124685e-06  7.7820143363627403e-07  5.7621386552464055e-07  2.2509169619619803e-06  2.3320788424313543e-06  9.0261114663774215e-07  -3.3007244473028052e-22  -1.2705791417697277e-20  6.5917932394937955e-04  1.7110049958447479e-04  9.5061269730849882e-05  9.0853448166129342e-06  3.3706846598322585e-04  5.4970322396877714e-04  6.6168932142989098e-04  7.8674388154012845e-04  7.8706055141446478e-05  1.7043966397582534e-04  4.9736585448190314e-04  6.8625745892197259e-04  1.0058384680195927e-03  9.7240008057740358e-04  6.4728658292313387e-04  1.2520833119538971e-03  9.4965403377649760e-05  4.8699022790878161e-04  1.0214482252781144e-03  4.8757768996922715e-04  1.6611329195334974e-03  1.0825186915551467e-03  1.7932081727311739e-03  1.0363207611260061e-03  1.3134569220973947e-03  5.0422563608289595e-05  3.2318920645035273e-04  1.7696863585624290e-03  1.2955921475489827e-03  2.8175187779883636e-05  1.7739715041590249e-03  1.0701742858332014e-04  1.1915197159344658e-03  6.8246893082422487e-04  1.2248968919495605e-03  1.6662303548735707e-03  2.2186401140220969e-03  2.5520039481267930e-03  2.6452465292786001e-03  2.5729550461349024e-03  2.3702407454448339e-03  1.7919912883988249e-03  2.2515046444389973e-04  1.1027142048215764e-03  9.6258165153788300e-04  9.2832421112108471e-04  1.3106425330080352e-03  1.1197449964703355e-03  4.0730975174127661e-04  3.6684236997109232e-04  6.7514335496050588e-04  1.9166368374296512e-04  2.8188713608311546e-04  1.1385329000310163e-04  1.2183070049791741e-04  9.7076505989771543e-05  7.5037529213257696e-05  4.9350076864015004e-05  2.7879207015099417e-05  1.8625872816543692e-05  1.5454124286214636e-05  1.0944167454797608e-05  1.3045565141372088e-05  2.3893721824672936e-05  2.5948728045145837e-05  4.6400207754357313e-05  2.8298931537216138e-05  7.2488456049471503e-05  2.8630458204438559e-05  9.8858654306449222e-06  8.8829433737376469e-06  5.0573437280147274e-06  6.5618772582694514e-06  2.0366374484270170e-05  5.1863928361548739e-06  5.5986302594617751e-06  1.8663470027556909e-05  1.7514634292178404e-05  1.8221064062920202e-05  1.7773143354425347e-05  1.1586572370720660e-05  1.4084606231302003e-05  9.3337239812759970e-06  6.3590888905220696e-06  4.8238972217605582e-06  4.2163443209400503e-06  3.6546779021570793e-06  4.6288176984294949e-06  5.6416440658605283e-06  1.0959847071766213e-06  8.0142003610284749e-06  4.5539059043475384e-06  1.6464715938155304e-05  8.1833329698567252e-06  9.8320747034653308e-06  4.8484143161496333e-07  4.8507779096353749e-07  4.4318809182590349e-06  1.0378425247217542e-05  2.5925325004826972e-21  -2.4313709821896834e-20  2.2888718997675562e-04  4.5504191677092778e-04  7.4029258063511687e-05  5.4590852140503460e-04  7.5356843151422835e-04  6.7037876864795606e-04  8.8743163137813027e-04  2.2452511971617192e-04  1.3472905945347241e-03  5.1505603677779409e-04  1.1118438179560792e-05  1.0693925432201956e-03  1.2845915464180008e-03  2.9024542826147566e-04  1.0222893148523042e-03  1.7623482366004324e-04  3.1353104249182850e-04  1.5895959311638492e-03  8.4686949522766550e-04  1.7887771897901316e-03  4.2957493193000100e-04  1.1486003900690164e-03  3.0636384579347999e-04  1.6877039723215187e-03  1.4544362178033896e-03  2.5239130705926251e-03  2.1451344784721711e-03  2.0668174188678274e-03  7.8054031671477976e-04  2.1975694970343988e-03  2.0276337677378395e-03  2.1709026962088234e-03  2.2917452139616769e-03  1.0257243321576198e-03  3.1340955635703608e-04  2.0505770513241776e-03  2.2944935017143345e-03  2.8105252412465140e-03  3.0277756010102376e-03  3.0634364495640558e-03  2.8751792729166809e-03  2.1982585401021729e-03  1.4604683493905284e-03  1.4347260092578754e-03  7.6293237685662015e-04  2.4136435339655034e-03  1.3744634856010893e-03  7.9253620244910082e-04  4.3098842493486170e-04  8.6221404550480965e-05  1.5669526983602713e-04  1.0333259335593421e-03  4.8554550887811845e-04  2.0834748162788051e-04  1.0073334704288053e-04  8.3257311458080930e-05  8.3193624429600177e-05  6.7216182606617573e-05  4.1488675345345659e-05  2.6989540187673379e-05  1.8902038629970235e-05  1.4075990615723011e-05  1.8154931811393019e-05  1.5075885026947967e-05  3.5537871776799731e-05  3.8259304567059338e-05  3.0494347356367699e-05  9.4209829211717349e-05  6.0483963281008877e-05  5.2669875132828254e-07  6.2549914727965733e-06  1.4328215501881306e-06  3.7198637804631806e-06  1.4941290500333488e-05  1.4903551334291421e-05  1.8053691627202309e-05  1.2288270470562855e-05  2.5712462521791372e-05  1.9601144477895801e-05  1.5969329126338914e-05  1.7935578037389371e-05  1.7006490858317462e-05  1.1565425144525033e-05  1.1319991398250139e-05  2.2245958347480404e-06  6.8124514048748452e-06  6.4678758019387939e-06  8.5427456127952456e-06  6.1386694720136402e-06  1.1295676776646168e-05  1.2438467263092683e-05  2.8570291270474154e-06  7.8535175774488910e-06  1.8894530759815129e-05  1.1787749200968056e-06  4.5953915529202140e-06  5.2942969331255973e-06  2.4532945511283769e-06  7.1795428531485784e-07  -9.9636172273108882e-23  -1.8732521963279170e-20  4.3799685797555666e-04  6.1970202207299748e-04  9.0597705788115574e-06  1.5409839449712583e-04  4.9512248833430709e-04  6.9957965763247493e-04  1.1795562694488608e-03  1.0675711997041269e-03  6.8472895744896571e-04  2.2038925134170527e-04  3.4378337901067602e-05  4.9344457264706074e-04  1.0385749258692339e-03  1.5137392377734574e-03  8.0069591058306157e-04  1.0077277209819926e-03  1.8224322639168134e-03  3.4718291786344727e-04  1.1857405439350821e-03  7.1579386480106859e-04  4.3801195392722419e-04  2.1927550246376095e-03  1.7276021182222000e-03  2.5785393930134958e-03  1.3696980461372832e-03  1.3995935823711283e-03  5.1043595250878945e-04  1.4986840033552001e-03  3.3698524027420441e-03  2.0583791137939373e-03  7.0501915835217760e-04  3.2913410073798174e-03  3.7736008137720568e-04  2.7042565078941785e-03  8.6915843718054857e-04  2.1037640314549469e-03  2.4738329186781171e-03  2.8708920822188896e-03  3.2613759875007244e-03  3.3584664731016920e-03  3.2719112552284219e-03  3.0096364359836194e-03  2.0992753086982530e-03  5.3522235909639598e-04  2.0538685938010070e-03  1.5512779335109794e-03  2.1218034042188774e-03  2.9061899952146091e-03  2.3023876866795959e-03  1.0554232390680856e-03  3.9201053759104317e-04  1.0029446181377515e-03  4.3943796684303514e-04  7.2389620824931961e-04  1.2640339787363264e-04  7.5673978354743376e-05  6.0645643950429065e-05  7.0091560175137102e-05  5.4735891844888823e-05  3.0721977712646317e-05  2.3273438842919525e-05  2.0207915784620908e-05  1.2412777649022272e-05  1.8411151744450305e-05  2.8259040034670171e-05  3.3166784894506073e-05  6.1075634291274961e-05  4.2020330303575324e-05  1.1676905623439495e-04  1.9613179384463782e-05  1.1351369147111369e-05  7.4303186198274484e-06  6.2971571883114487e-06  4.1105777235802098e-06  2.7022884903396906e-05  1.0532832398725169e-05  1.2140733597170314e-05  3.0982071710286061e-05  2.3370210087488643e-05  2.0061363921107137e-05  1.7542886829097566e-05  1.2112698787212848e-05  1.9526340103904775e-05  1.0512917379995274e-05  9.0326836491858282e-06  3.9551671652140826e-06  6.7855806210217778e-06  6.7921233645874303e-06  9.0728365623383931e-06  1.5174011365999308e-07  3.0591128912760814e-06  1.6767015835698110e-05  4.9473164827259542e-06  1.8718990787978871e-05  8.9382400928044056e-06  1.7543611458100415e-05  1.2660376956208985e-06  4.7573376653043837e-06  2.5952731862949401e-06  -3.7816103219263828e-22  -2.3481989518645729e-20  3.3745511573413426e-04  5.9155512095063255e-04  9.6407418251057814e-04  1.3834625515952501e-04  5.7010551942694081e-04  7.3067717759031680e-04  6.9143242579373964e-04  1.3381532102900262e-03  4.0468700821302220e-04  1.6904267464133405e-03  9.1777861320765117e-04  1.5109504629753549e-05  1.4220397022465573e-03  1.4998176608261827e-03  3.9598344383415154e-04  1.2711301449629642e-03  9.6343810679138829e-04  1.0290947663612990e-03  1.5709678552600814e-03  9.9992389323255953e-04  2.3595852395006055e-03  1.1292564767135206e-03  2.0891904258514486e-03  1.1916347886403137e-03  2.8176004766562080e-03  2.5526418299583252e-03  3.6699191560340648e-03  2.8604564749991029e-03  2.2077136876451635e-03  1.7050351476947023e-03  3.6503713087295310e-03  2.5484710364111177e-03  3.5606531295788056e-03  3.1670160793704528e-03  1.8632504288343603e-03  4.1600559392689687e-04  3.1365826263130185e-03  2.9408616994024677e-03  3.4131746292191431e-03  3.6414277937921475e-03  3.6627960020983530e-03  3.4239097711625884e-03  2.6268628886235946e-03  1.7124833538029172e-03  2.3120293727851666e-03  1.3979093947709526e-03  3.7405971069361752e-03  1.3273379279145541e-03  2.2310592675641422e-05  2.0305531357411719e-04  1.9949068565977844e-04  3.7660022308084171e-04  1.5807034518203892e-03  6.0669654169472217e-04  4.7643654735141208e-04  7.5783685628611830e-05  4.3546331919258767e-05  6.1237574304849333e-05  6.5205735846757032e-05  4.2544440438408656e-05  2.6038144294974278e-05  1.9435462965548835e-05  1.6277120727471914e-05  1.8110968059248050e-05  1.5228092623356951e-05  4.1457112938924949e-05  4.0355536062575483e-05  4.5533728215464905e-05  1.2669564286352394e-04  8.2806450700260051e-05  1.9981448040461198e-05  5.1021562483096106e-06  2.7920864014684135e-06  3.4110108630653140e-06  1.4716143105617631e-05  2.1167834461279039e-05  2.9267910596344557e-05  1.2135514670791162e-05  3.4196568478453983e-05  2.0024432462044616e-05  1.7285689305243521e-05  1.9566562337922489e-05  1.4042885382350847e-05  1.2944309778135654e-05  1.1038814780819355e-05  1.9484077848785999e-06  8.1248735581375327e-06  7.5326429199080134e-06  1.0087013682785555e-05  3.5963383796971502e-06  1.3356334282756624e-05  1.0684164895591942e-05  3.2931864862102242e-06  1.2102609309319727e-05  3.2412461064670615e-05  7.8658512696131855e-06  1.0079328400232807e-05  4.7676910128440837e-06  2.6916938598358359e-06  1.7044668086923169e-37  -1.3095050965308481e-20  4.2301391698436347e-04  6.5495823926046515e-04  5.6689832713754842e-04  6.0333750527337545e-04  2.4658967858225242e-04  6.1003054536179805e-04  1.0814211654422315e-03  1.5422408006166145e-03  1.3881136331995007e-03  6.0534741726893956e-04  5.4316558365387487e-04  4.3339767544069298e-04  4.6352657307300541e-04  1.5162294228385509e-03  1.8737183619583469e-03  5.7560080832242799e-04  9.1189449250017140e-04  1.5299190179818901e-03  1.8451494652545547e-04  1.6748596846965517e-03  2.1480540340221058e-04  9.8718834976256023e-05  1.8632446897773743e-03  1.5460647013959708e-03  2.4890635054720081e-03  9.5048961175898060e-04  8.3349025112601244e-04  1.4130551896421914e-03  2.5104979750993723e-03  4.5382953609725222e-03  2.2001302958851573e-03  1.8395088344047466e-03  4.5534014189916403e-03  9.6251269711689666e-04  4.1287498844537768e-03  1.2155864768234258e-03  2.6180855078544560e-03  3.4709242521240623e-03  3.5137222040813785e-03  3.9025030364752181e-03  3.9942169374264404e-03  3.8930007825173601e-03  3.5441118959692046e-03  2.3313509954143159e-03  6.7862852613737121e-04  3.1654426692223183e-03  1.8006237944973062e-03  3.4414073768417779e-03  3.7297769684182221e-03  2.5607684217174944e-03  1.1879932052343205e-03  4.0059448359401194e-04  1.0037861745991054e-03  8.3770808010619560e-04  1.0562551970439832e-03  2.0917408292815153e-04  2.1127967266892185e-05  2.0441380976429111e-05  6.1857414917833382e-05  6.0123099824016973e-05  3.3696510534180839e-05  2.5234198947362307e-05  2.0877096364610580e-05  1.2074370873777806e-05  1.9781722481343105e-05  2.6777405950470980e-05  4.0280957084732357e-05  6.5467092999856922e-05  4.0912563543415740e-05  1.5581959916099363e-04  2.0060988335785839e-05  3.4247120871134762e-05  4.0666518006854699e-06  4.0069428457433739e-06  8.2597239995193358e-07  2.8745209595754591e-05  1.0962611938038075e-05  2.1366606604760544e-05  3.6949998501898590e-05  2.7261344054552255e-05  1.7224408926469814e-05  1.5535690364906453e-05  1.5223910821583369e-05  1.9841549207346822e-05  9.2766617943140474e-06  8.2637597380873526e-06  4.3200856875703031e-07  8.1381515371843043e-06  7.0581455964541283e-06  9.2176566351286984e-06  4.7996640380074202e-06  1.0237989897817994e-05  2.1391388886169410e-05  6.9789966563005283e-06  9.4874629152896603e-06  6.2716629580385717e-07  1.3493257187074645e-05  1.4417793734425054e-06  4.1011718751105178e-06  -2.2766077218464143e-22  -2.1087365741928660e-20  2.3589946659104377e-04  5.3608300671088870e-04  8.7957190124379400e-04  9.1571813167054701e-04  6.8907163814383224e-05  7.1536537143009873e-04  4.8121641311074274e-04  4.0263791878511620e-04  1.7735207822456469e-03  6.4452257658435602e-04  1.6735157130161088e-03  9.1459091322036690e-04  1.8966793849530550e-04  1.5443623300288062e-03  1.8493604859030628e-03  6.8280343096120460e-04  1.1219436379019143e-03  1.2050232460840439e-03  1.3369799001327356e-03  1.3839213888902817e-03  5.6745670713280471e-04  2.1529622884182936e-03  9.5275950462688397e-04  2.3456031841075659e-03  1.4338424152238254e-03  3.2237392333692928e-03  2.7803478679461189e-03  3.8740934334669081e-03  2.7560048067724664e-03  1.8071670047695905e-03  2.7292218201509077e-03  4.4967842404050268e-03  2.5672700648940025e-03  5.0920615539853092e-03  3.5699443274444377e-03  3.1661259322129285e-03  4.9547141930222005e-04  4.0416710641368548e-03  3.8277262408216036e-03  4.1333036071879116e-03  4.3567683673474342e-03  4.3589737186115153e-03  4.0740364074827199e-03  3.1115236437331190e-03  1.8254759626433934e-03  2.8998236898132084e-03  2.2449042454573847e-03  4.6142990924569853e-03  8.8023966346292501e-04  8.4399746626210160e-04  8.7398738391217679e-04  6.4914754455864425e-04  3.4292924891385471e-04  1.8663927546364602e-03  4.6581882623210482e-04  8.5435450804666364e-04  7.0070677149795558e-05  1.4113632043131318e-05  2.1657458731121783e-05  5.9042782584475062e-05  4.7493719769477317e-05  2.8784696300688126e-05  2.3295136184447179e-05  1.9932225817339283e-05  1.7243895056318024e-05  1.7237412817819446e-05  4.2582171639783807e-05  4.6034493173078486e-05  5.4368201584637734e-05  1.4323465509438949e-04  1.1408122105126279e-04  3.2826424484584005e-05  2.2821378902716237e-05  2.4270369513793968e-06  1.6306499240093002e-06  1.2277270572543608e-05  2.3406421863271186e-05  3.7174664835530894e-05  6.7869900696868224e-06  4.1269487579825155e-05  2.1401540266656175e-05  1.5993996111570823e-05  1.4991871276426512e-05  1.2425106888766598e-05  1.5870595661721505e-05  9.9427631785653394e-06  3.3976290783409406e-06  4.5882867793266754e-06  7.9313441614223367e-06  9.4036337826247122e-06  3.0842263812200163e-06  4.1490533849601856e-06  1.1939881959520875e-05  7.6840805910197666e-06  1.0111803858226827e-05  3.2967441377636030e-05  9.5117695025728499e-06  1.1414837542060316e-05  9.6109338862669061e-07  -1.3337850110854508e-22  -1.5370935013487679e-20  3.7987620999030256e-04  6.5242122638055995e-04  7.1480382179058813e-04  7.0431235917307118e-04  9.8558086694927583e-04  1.2629523025346412e-04  5.1762630864502488e-04  1.0093826153628849e-03  1.6029321539471873e-03  1.7762724308472411e-03  7.5989454054012698e-04  5.6783205545319888e-04  6.6527108986011007e-04  4.2868129425924581e-04  1.8495945253480092e-03  2.1522269883142704e-03  6