<?xml version="1.0"?>
<VTKFile type="UnstructuredGrid"  version="0.1"  >
<UnstructuredGrid>
<Piece  NumberOfPoints="10201" NumberOfCells="20000">
<Points>
<DataArray  type="Float64"  NumberOfComponents="3"  format="ascii">0 0 0  0.01 0 0  0.02 0 0  0.03 0 0  0.04 0 0  0.05 0 0  0.06 0 0  0.07000000000000001 0 0  0.08 0 0  0.09 0 0  0.1 0 0  0.11 0 0  0.12 0 0  0.13 0 0  0.14 0 0  0.15 0 0  0.16 0 0  0.17 0 0  0.18 0 0  0.19 0 0  0.2 0 0  0.21 0 0  0.22 0 0  0.23 0 0  0.24 0 0  0.25 0 0  0.26 0 0  0.27 0 0  0.28 0 0  0.29 0 0  0.3 0 0  0.31 0 0  0.32 0 0  0.33 0 0  0.34 0 0  0.35 0 0  0.36 0 0  0.37 0 0  0.38 0 0  0.39 0 0  0.4 0 0  0.41 0 0  0.42 0 0  0.43 0 0  0.44 0 0  0.45 0 0  0.46 0 0  0.47 0 0  0.48 0 0  0.49 0 0  0.5 0 0  0.51 0 0  0.52 0 0  0.53 0 0  0.54 0 0  0.55 0 0  0.5600000000000001 0 0  0.57 0 0  0.58 0 0  0.59 0 0  0.6 0 0  0.61 0 0  0.62 0 0  0.63 0 0  0.64 0 0  0.65 0 0  0.66 0 0  0.67 0 0  0.68 0 0  0.6899999999999999 0 0  0.7 0 0  0.71 0 0  0.72 0 0  0.73 0 0  0.74 0 0  0.75 0 0  0.76 0 0  0.77 0 0  0.78 0 0  0.79 0 0  0.8 0 0  0.8100000000000001 0 0  0.82 0 0  0.83 0 0  0.84 0 0  0.85 0 0  0.86 0 0  0.87 0 0  0.88 0 0  0.89 0 0  0.9 0 0  0.91 0 0  0.92 0 0  0.93 0 0  0.9399999999999999 0 0  0.95 0 0  0.96 0 0  0.97 0 0  0.98 0 0  0.99 0 0  1 0 0  0 0.01 0  0.01 0.01 0  0.02 0.01 0  0.03 0.01 0  0.04 0.01 0  0.05 0.01 0  0.06 0.01 0  0.07000000000000001 0.01 0  0.08 0.01 0  0.09 0.01 0  0.1 0.01 0  0.11 0.01 0  0.12 0.01 0  0.13 0.01 0  0.14 0.01 0  0.15 0.01 0  0.16 0.01 0  0.17 0.01 0  0.18 0.01 0  0.19 0.01 0  0.2 0.01 0  0.21 0.01 0  0.22 0.01 0  0.23 0.01 0  0.24 0.01 0  0.25 0.01 0  0.26 0.01 0  0.27 0.01 0  0.28 0.01 0  0.29 0.01 0  0.3 0.01 0  0.31 0.01 0  0.32 0.01 0  0.33 0.01 0  0.34 0.01 0  0.35 0.01 0  0.36 0.01 0  0.37 0.01 0  0.38 0.01 0  0.39 0.01 0  0.4 0.01 0  0.41 0.01 0  0.42 0.01 0  0.43 0.01 0  0.44 0.01 0  0.45 0.01 0  0.46 0.01 0  0.47 0.01 0  0.48 0.01 0  0.49 0.01 0  0.5 0.01 0  0.51 0.01 0  0.52 0.01 0  0.53 0.01 0  0.54 0.01 0  0.55 0.01 0  0.5600000000000001 0.01 0  0.57 0.01 0  0.58 0.01 0  0.59 0.01 0  0.6 0.01 0  0.61 0.01 0  0.62 0.01 0  0.63 0.01 0  0.64 0.01 0  0.65 0.01 0  0.66 0.01 0  0.67 0.01 0  0.68 0.01 0  0.6899999999999999 0.01 0  0.7 0.01 0  0.71 0.01 0  0.72 0.01 0  0.73 0.01 0  0.74 0.01 0  0.75 0.01 0  0.76 0.01 0  0.77 0.01 0  0.78 0.01 0  0.79 0.01 0  0.8 0.01 0  0.8100000000000001 0.01 0  0.82 0.01 0  0.83 0.01 0  0.84 0.01 0  0.85 0.01 0  0.86 0.01 0  0.87 0.01 0  0.88 0.01 0  0.89 0.01 0  0.9 0.01 0  0.91 0.01 0  0.92 0.01 0  0.93 0.01 0  0.9399999999999999 0.01 0  0.95 0.01 0  0.96 0.01 0  0.97 0.01 0  0.98 0.01 0  0.99 0.01 0  1 0.01 0  0 0.02 0  0.01 0.02 0  0.02 0.02 0  0.03 0.02 0  0.04 0.02 0  0.05 0.02 0  0.06 0.02 0  0.07000000000000001 0.02 0  0.08 0.02 0  0.09 0.02 0  0.1 0.02 0  0.11 0.02 0  0.12 0.02 0  0.13 0.02 0  0.14 0.02 0  0.15 0.02 0  0.16 0.02 0  0.17 0.02 0  0.18 0.02 0  0.19 0.02 0  0.2 0.02 0  0.21 0.02 0  0.22 0.02 0  0.23 0.02 0  0.24 0.02 0  0.25 0.02 0  0.26 0.02 0  0.27 0.02 0  0.28 0.02 0  0.29 0.02 0  0.3 0.02 0  0.31 0.02 0  0.32 0.02 0  0.33 0.02 0  0.34 0.02 0  0.35 0.02 0  0.36 0.02 0  0.37 0.02 0  0.38 0.02 0  0.39 0.02 0  0.4 0.02 0  0.41 0.02 0  0.42 0.02 0  0.43 0.02 0  0.44 0.02 0  0.45 0.02 0  0.46 0.02 0  0.47 0.02 0  0.48 0.02 0  0.49 0.02 0  0.5 0.02 0  0.51 0.02 0  0.52 0.02 0  0.53 0.02 0  0.54 0.02 0  0.55 0.02 0  0.5600000000000001 0.02 0  0.57 0.02 0  0.58 0.02 0  0.59 0.02 0  0.6 0.02 0  0.61 0.02 0  0.62 0.02 0  0.63 0.02 0  0.64 0.02 0  0.65 0.02 0  0.66 0.02 0  0.67 0.02 0  0.68 0.02 0  0.6899999999999999 0.02 0  0.7 0.02 0  0.71 0.02 0  0.72 0.02 0  0.73 0.02 0  0.74 0.02 0  0.75 0.02 0  0.76 0.02 0  0.77 0.02 0  0.78 0.02 0  0.79 0.02 0  0.8 0.02 0  0.8100000000000001 0.02 0  0.82 0.02 0  0.83 0.02 0  0.84 0.02 0  0.85 0.02 0  0.86 0.02 0  0.87 0.02 0  0.88 0.02 0  0.89 0.02 0  0.9 0.02 0  0.91 0.02 0  0.92 0.02 0  0.93 0.02 0  0.9399999999999999 0.02 0  0.95 0.02 0  0.96 0.02 0  0.97 0.02 0  0.98 0.02 0  0.99 0.02 0  1 0.02 0  0 0.03 0  0.01 0.03 0  0.02 0.03 0  0.03 0.03 0  0.04 0.03 0  0.05 0.03 0  0.06 0.03 0  0.07000000000000001 0.03 0  0.08 0.03 0  0.09 0.03 0  0.1 0.03 0  0.11 0.03 0  0.12 0.03 0  0.13 0.03 0  0.14 0.03 0  0.15 0.03 0  0.16 0.03 0  0.17 0.03 0  0.18 0.03 0  0.19 0.03 0  0.2 0.03 0  0.21 0.03 0  0.22 0.03 0  0.23 0.03 0  0.24 0.03 0  0.25 0.03 0  0.26 0.03 0  0.27 0.03 0  0.28 0.03 0  0.29 0.03 0  0.3 0.03 0  0.31 0.03 0  0.32 0.03 0  0.33 0.03 0  0.34 0.03 0  0.35 0.03 0  0.36 0.03 0  0.37 0.03 0  0.38 0.03 0  0.39 0.03 0  0.4 0.03 0  0.41 0.03 0  0.42 0.03 0  0.43 0.03 0  0.44 0.03 0  0.45 0.03 0  0.46 0.03 0  0.47 0.03 0  0.48 0.03 0  0.49 0.03 0  0.5 0.03 0  0.51 0.03 0  0.52 0.03 0  0.53 0.03 0  0.54 0.03 0  0.55 0.03 0  0.5600000000000001 0.03 0  0.57 0.03 0  0.58 0.03 0  0.59 0.03 0  0.6 0.03 0  0.61 0.03 0  0.62 0.03 0  0.63 0.03 0  0.64 0.03 0  0.65 0.03 0  0.66 0.03 0  0.67 0.03 0  0.68 0.03 0  0.6899999999999999 0.03 0  0.7 0.03 0  0.71 0.03 0  0.72 0.03 0  0.73 0.03 0  0.74 0.03 0  0.75 0.03 0  0.76 0.03 0  0.77 0.03 0  0.78 0.03 0  0.79 0.03 0  0.8 0.03 0  0.8100000000000001 0.03 0  0.82 0.03 0  0.83 0.03 0  0.84 0.03 0  0.85 0.03 0  0.86 0.03 0  0.87 0.03 0  0.88 0.03 0  0.89 0.03 0  0.9 0.03 0  0.91 0.03 0  0.92 0.03 0  0.93 0.03 0  0.9399999999999999 0.03 0  0.95 0.03 0  0.96 0.03 0  0.97 0.03 0  0.98 0.03 0  0.99 0.03 0  1 0.03 0  0 0.04 0  0.01 0.04 0  0.02 0.04 0  0.03 0.04 0  0.04 0.04 0  0.05 0.04 0  0.06 0.04 0  0.07000000000000001 0.04 0  0.08 0.04 0  0.09 0.04 0  0.1 0.04 0  0.11 0.04 0  0.12 0.04 0  0.13 0.04 0  0.14 0.04 0  0.15 0.04 0  0.16 0.04 0  0.17 0.04 0  0.18 0.04 0  0.19 0.04 0  0.2 0.04 0  0.21 0.04 0  0.22 0.04 0  0.23 0.04 0  0.24 0.04 0  0.25 0.04 0  0.26 0.04 0  0.27 0.04 0  0.28 0.04 0  0.29 0.04 0  0.3 0.04 0  0.31 0.04 0  0.32 0.04 0  0.33 0.04 0  0.34 0.04 0  0.35 0.04 0  0.36 0.04 0  0.37 0.04 0  0.38 0.04 0  0.39 0.04 0  0.4 0.04 0  0.41 0.04 0  0.42 0.04 0  0.43 0.04 0  0.44 0.04 0  0.45 0.04 0  0.46 0.04 0  0.47 0.04 0  0.48 0.04 0  0.49 0.04 0  0.5 0.04 0  0.51 0.04 0  0.52 0.04 0  0.53 0.04 0  0.54 0.04 0  0.55 0.04 0  0.5600000000000001 0.04 0  0.57 0.04 0  0.58 0.04 0  0.59 0.04 0  0.6 0.04 0  0.61 0.04 0  0.62 0.04 0  0.63 0.04 0  0.64 0.04 0  0.65 0.04 0  0.66 0.04 0  0.67 0.04 0  0.68 0.04 0  0.6899999999999999 0.04 0  0.7 0.04 0  0.71 0.04 0  0.72 0.04 0  0.73 0.04 0  0.74 0.04 0  0.75 0.04 0  0.76 0.04 0  0.77 0.04 0  0.78 0.04 0  0.79 0.04 0  0.8 0.04 0  0.8100000000000001 0.04 0  0.82 0.04 0  0.83 0.04 0  0.84 0.04 0  0.85 0.04 0  0.86 0.04 0  0.87 0.04 0  0.88 0.04 0  0.89 0.04 0  0.9 0.04 0  0.91 0.04 0  0.92 0.04 0  0.93 0.04 0  0.9399999999999999 0.04 0  0.95 0.04 0  0.96 0.04 0  0.97 0.04 0  0.98 0.04 0  0.99 0.04 0  1 0.04 0  0 0.05 0  0.01 0.05 0  0.02 0.05 0  0.03 0.05 0  0.04 0.05 0  0.05 0.05 0  0.06 0.05 0  0.07000000000000001 0.05 0  0.08 0.05 0  0.09 0.05 0  0.1 0.05 0  0.11 0.05 0  0.12 0.05 0  0.13 0.05 0  0.14 0.05 0  0.15 0.05 0  0.16 0.05 0  0.17 0.05 0  0.18 0.05 0  0.19 0.05 0  0.2 0.05 0  0.21 0.05 0  0.22 0.05 0  0.23 0.05 0  0.24 0.05 0  0.25 0.05 0  0.26 0.05 0  0.27 0.05 0  0.28 0.05 0  0.29 0.05 0  0.3 0.05 0  0.31 0.05 0  0.32 0.05 0  0.33 0.05 0  0.34 0.05 0  0.35 0.05 0  0.36 0.05 0  0.37 0.05 0  0.38 0.05 0  0.39 0.05 0  0.4 0.05 0  0.41 0.05 0  0.42 0.05 0  0.43 0.05 0  0.44 0.05 0  0.45 0.05 0  0.46 0.05 0  0.47 0.05 0  0.48 0.05 0  0.49 0.05 0  0.5 0.05 0  0.51 0.05 0  0.52 0.05 0  0.53 0.05 0  0.54 0.05 0  0.55 0.05 0  0.5600000000000001 0.05 0  0.57 0.05 0  0.58 0.05 0  0.59 0.05 0  0.6 0.05 0  0.61 0.05 0  0.62 0.05 0  0.63 0.05 0  0.64 0.05 0  0.65 0.05 0  0.66 0.05 0  0.67 0.05 0  0.68 0.05 0  0.6899999999999999 0.05 0  0.7 0.05 0  0.71 0.05 0  0.72 0.05 0  0.73 0.05 0  0.74 0.05 0  0.75 0.05 0  0.76 0.05 0  0.77 0.05 0  0.78 0.05 0  0.79 0.05 0  0.8 0.05 0  0.8100000000000001 0.05 0  0.82 0.05 0  0.83 0.05 0  0.84 0.05 0  0.85 0.05 0  0.86 0.05 0  0.87 0.05 0  0.88 0.05 0  0.89 0.05 0  0.9 0.05 0  0.91 0.05 0  0.92 0.05 0  0.93 0.05 0  0.9399999999999999 0.05 0  0.95 0.05 0  0.96 0.05 0  0.97 0.05 0  0.98 0.05 0  0.99 0.05 0  1 0.05 0  0 0.06 0  0.01 0.06 0  0.02 0.06 0  0.03 0.06 0  0.04 0.06 0  0.05 0.06 0  0.06 0.06 0  0.07000000000000001 0.06 0  0.08 0.06 0  0.09 0.06 0  0.1 0.06 0  0.11 0.06 0  0.12 0.06 0  0.13 0.06 0  0.14 0.06 0  0.15 0.06 0  0.16 0.06 0  0.17 0.06 0  0.18 0.06 0  0.19 0.06 0  0.2 0.06 0  0.21 0.06 0  0.22 0.06 0  0.23 0.06 0  0.24 0.06 0  0.25 0.06 0  0.26 0.06 0  0.27 0.06 0  0.28 0.06 0  0.29 0.06 0  0.3 0.06 0  0.31 0.06 0  0.32 0.06 0  0.33 0.06 0  0.34 0.06 0  0.35 0.06 0  0.36 0.06 0  0.37 0.06 0  0.38 0.06 0  0.39 0.06 0  0.4 0.06 0  0.41 0.06 0  0.42 0.06 0  0.43 0.06 0  0.44 0.06 0  0.45 0.06 0  0.46 0.06 0  0.47 0.06 0  0.48 0.06 0  0.49 0.06 0  0.5 0.06 0  0.51 0.06 0  0.52 0.06 0  0.53 0.06 0  0.54 0.06 0  0.55 0.06 0  0.5600000000000001 0.06 0  0.57 0.06 0  0.58 0.06 0  0.59 0.06 0  0.6 0.06 0  0.61 0.06 0  0.62 0.06 0  0.63 0.06 0  0.64 0.06 0  0.65 0.06 0  0.66 0.06 0  0.67 0.06 0  0.68 0.06 0  0.6899999999999999 0.06 0  0.7 0.06 0  0.71 0.06 0  0.72 0.06 0  0.73 0.06 0  0.74 0.06 0  0.75 0.06 0  0.76 0.06 0  0.77 0.06 0  0.78 0.06 0  0.79 0.06 0  0.8 0.06 0  0.8100000000000001 0.06 0  0.82 0.06 0  0.83 0.06 0  0.84 0.06 0  0.85 0.06 0  0.86 0.06 0  0.87 0.06 0  0.88 0.06 0  0.89 0.06 0  0.9 0.06 0  0.91 0.06 0  0.92 0.06 0  0.93 0.06 0  0.9399999999999999 0.06 0  0.95 0.06 0  0.96 0.06 0  0.97 0.06 0  0.98 0.06 0  0.99 0.06 0  1 0.06 0  0 0.07000000000000001 0  0.01 0.07000000000000001 0  0.02 0.07000000000000001 0  0.03 0.07000000000000001 0  0.04 0.07000000000000001 0  0.05 0.07000000000000001 0  0.06 0.07000000000000001 0  0.07000000000000001 0.07000000000000001 0  0.08 0.07000000000000001 0  0.09 0.07000000000000001 0  0.1 0.07000000000000001 0  0.11 0.07000000000000001 0  0.12 0.07000000000000001 0  0.13 0.07000000000000001 0  0.14 0.07000000000000001 0  0.15 0.07000000000000001 0  0.16 0.07000000000000001 0  0.17 0.0700
[...]
<PointData  Scalars="Indicator Function"> 
<DataArray  type="Float64"  Name="Indicator Function"  format="ascii">-1.8055593228630336e-35  -6.2728186820274295e-20  2.8714791190017638e-20  2.4488970439171974e-19  3.3986923776351474e-19  -3.3612396557553635e-20  -2.9128238105187106e-20  6.5368388216136829e-19  8.8422344331244877e-19  -2.2569491535787920e-36  4.6761084755885674e-18  2.3069876195994365e-18  -3.7719770806234602e-20  -3.5088125294309100e-20  8.0621280974323782e-18  -9.0133031257900157e-21  -2.6647049069440701e-21  2.0826186649370143e-18  -3.5323828784604861e-20  -3.0092655381050560e-35  6.0252909405339050e-18  6.0185310762101120e-36  -3.7816880035685161e-20  1.1859900957240123e-17  -5.0757537778308146e-20  -2.5378768889154079e-20  -1.9039054270462018e-20  -4.4561530281146752e-20  4.1292845192270086e-17  -1.7135252447613022e-20  -7.9619601396677414e-20  -2.8709429539221121e-20  -4.7159451977528178e-20  -1.9585572178394571e-20  1.6076731220584595e-17  -8.8892514045973236e-20  -1.2067953488158015e-19  -1.3816990188622624e-19  -1.4372467275675587e-19  -1.4038267537951298e-19  9.0518059541922801e-18  -7.7488889276671400e-20  -2.4698324772019209e-20  -3.2074616649570722e-20  -2.2859420178872608e-20  -2.1837089461593076e-20  2.5802142320899477e-17  -1.4853135429734420e-20  -9.0197355163352277e-21  -3.6404511213256053e-21  -2.3176141590368845e-20  -1.1588070795184427e-20  -8.5137677860324500e-21  -1.0621303126812807e-20  -9.2828807568761923e-21  -4.5666105606320253e-21  2.9097225609256122e-19  -2.8606660103213240e-22  2.3509887016445750e-37  -7.5688744587306166e-23  -4.8595207629335036e-22  -4.0078744754368132e-22  -1.3526738997491268e-21  -5.0687156050266453e-22  -2.4743978884799901e-21  -2.4473443394154316e-21  -9.7419933902281074e-22  3.4794632784339710e-36  -2.8287096058187527e-34  7.0529661049337250e-38  -7.1324108122633582e-23  -4.4423146703271951e-23  -1.2533163793959804e-22  -1.4990057816408790e-22  -1.8673737767394914e-22  -1.7132091861238148e-22  -1.8587948158034160e-22  -3.8936642008258616e-22  -4.6929165408518934e-22  -5.7625962630478062e-22  -7.5825115892405492e-22  2.9250310516653654e-20  -5.6790699936612147e-22  -3.1504675406981520e-22  -4.5310787705258170e-22  -7.1588313222704420e-23  -1.3526916838804859e-23  -2.7458070601862356e-24  -1.8856121343136655e-22  -5.0358079868949563e-23  -2.8908350794392953e-22  -3.3795604472997139e-22  -3.0435122833117684e-22  1.1208913735993032e-19  -3.2890832700463953e-23  -1.0201522104606292e-23  -2.7930621404980088e-23  -3.0397032222293346e-23  -1.8930591304688414e-23  -1.4693679385278594e-39  1.7632415262334313e-38  -3.3179097207570811e-20  5.2698651248041077e-04  2.2710216329823945e-04  1.4193688400285362e-04  3.4985942229633288e-04  2.6610211298166086e-04  4.7245604995568109e-04  2.8849966412807909e-04  6.8603360032530407e-04  7.3233266202193557e-05  1.5014820835624993e-05  4.2687771166076638e-04  7.2685617351919620e-04  3.1607089623023656e-04  4.7405602388719869e-04  2.3519640465544651e-04  4.4771032067017704e-05  7.5258377289609980e-04  1.3084437464789978e-04  6.3633752860658250e-04  1.7920877817418008e-04  3.1855079871643968e-04  2.1163944677692458e-04  5.7542862395964795e-04  2.2629632602524057e-04  9.1436651289852975e-04  6.8595422174351506e-04  8.8517716013386094e-04  3.6016058460999344e-04  6.1736253230375499e-04  7.9986603865401910e-04  1.0343662093988458e-03  6.4875009690100753e-04  5.2517411296146689e-04  9.0235245777083993e-05  7.6141364895744937e-04  1.2206383480551617e-03  1.5636500592681355e-03  1.7072226449604379e-03  1.7355022082048695e-03  1.6611583540113569e-03  1.3208308477285450e-03  7.3550030762281084e-04  4.4492546495976469e-04  3.5534219388435050e-04  7.8676406369672987e-04  6.0810859640307547e-04  5.3514060149308367e-04  3.2497022008278202e-04  6.4725156904359840e-05  6.5580537253850043e-05  4.1750425052108388e-04  8.2730083944799221e-05  1.1200536374237905e-04  1.3533370534522338e-04  9.9558660597757741e-05  6.8509529999069457e-05  4.0576066707317708e-05  2.1165317834976963e-05  1.2547438488273159e-05  6.6042009393477574e-06  6.0007525263374742e-06  1.2211268230839657e-05  1.8261972568036018e-05  1.5910239732201503e-05  3.6619669767998559e-05  2.5777601336155238e-05  1.3553096551050836e-05  5.7566239160397657e-06  2.8576841876085454e-06  5.2054387623002753e-07  1.6005125355158407e-06  3.7414456963391147e-08  2.2577740716900285e-06  1.5714817160046189e-06  3.6557848628565008e-06  1.2583508694657178e-06  3.2809143958678890e-06  5.3737446596441315e-06  5.7671345440425043e-06  7.4974032811582359e-06  9.9107369065553975e-06  8.1719764583490265e-06  6.1445147737309279e-06  1.1166450117959488e-05  2.5792408060308288e-06  4.8735854107770865e-07  1.9440053440422688e-07  5.7718596150878241e-06  5.1088703464021220e-07  3.0771489426889436e-06  3.6690910432764757e-06  4.2535293468157854e-06  3.3559396406003072e-06  2.2622377981503714e-06  5.6994351734955814e-07  1.8377428459566667e-07  4.1126620230894562e-07  3.4195115080348413e-07  2.1274903600985194e-07  5.9049719561235777e-24  -1.3393756301049272e-20  5.9770147928202126e-04  1.5435476685559624e-04  9.8806403685161446e-05  6.8892963194415915e-06  3.5943096388124489e-04  5.2033835217882285e-04  6.3639247490065228e-04  7.5760296793244189e-04  2.8153067262245364e-05  2.6130056230471831e-04  4.4934818655864854e-04  6.0003481905778128e-04  9.8832158361551888e-04  8.5810088727671292e-04  5.8164541635491820e-04  1.2123167555681690e-03  1.4696244920135547e-05  5.1636573177872883e-04  9.2745975350317473e-04  4.3944414864293909e-04  1.5633111431336184e-03  1.0172258365058712e-03  1.6905806455190019e-03  9.5557754628535982e-04  1.2036806867697519e-03  7.0850929087809316e-06  3.4493924908440777e-04  1.6958849356840532e-03  1.1921462266671081e-03  9.5719126777298047e-05  1.6812267970617359e-03  1.5536844516514874e-04  1.1674435382849847e-03  6.2937426202701178e-04  9.2281185972956168e-04  1.5210422442005986e-03  2.0260438415119000e-03  2.3580038901193329e-03  2.4641441726715335e-03  2.3988336356333293e-03  2.1903028206126753e-03  1.6226328449200757e-03  2.8967378016197360e-04  1.0551655518154504e-03  9.1949364194382401e-04  8.2946451308161531e-04  1.1981073689454557e-03  9.9558600834947749e-04  2.8457667497144607e-04  3.8993464916918947e-04  6.0159906103461082e-04  2.8731285586958491e-04  3.2953152380427636e-04  1.4616316028885081e-04  1.4532508650179034e-04  9.1727227386722825e-05  7.8502983087643831e-05  4.2892007343886447e-05  2.0484229801802694e-05  1.4524392509051124e-05  1.3432113117866014e-05  9.7196552904994662e-06  2.1564010306331257e-05  5.5590682815229152e-06  4.6098897651299983e-05  4.6016510861815559e-05  2.1774870598406146e-05  1.0369805173290385e-05  5.8884805933700736e-06  4.4129695598281167e-07  4.4448015083719194e-07  3.1773176035094269e-06  1.9841496890514368e-06  2.7644941246369207e-06  2.9356397067566297e-06  4.6532960034429584e-06  2.5968375778767419e-06  6.5736749287021725e-06  7.8467857180520299e-06  1.0223877676187192e-05  1.3011272086997989e-05  1.2479094254525804e-05  6.6925420081567424e-06  1.8500571333922050e-06  1.5102883832419455e-05  2.2826193665692054e-06  7.6971998850610136e-06  7.7365282453783140e-06  6.0304463198674429e-06  3.7149974939908974e-06  5.3338101988743527e-06  5.2788740068927443e-06  4.2668414708438882e-06  3.6909145181728443e-06  1.8857287175699474e-06  7.1953924587707245e-07  5.3758445056762110e-07  1.0313267520881984e-06  6.1116878105538718e-07  1.5267007184845170e-22  -2.3282903144577643e-20  2.4128046354598769e-04  4.5252038951416700e-04  6.6842691217913739e-05  4.9420029349120549e-04  7.1442272843225531e-04  6.2202559434084922e-04  8.3428052329295255e-04  2.0712760244042368e-04  1.3306868300347484e-03  4.8988354381636833e-04  4.1620279100546852e-06  1.0416801322454458e-03  1.1913545819687112e-03  1.9192602249211291e-04  1.0608703271277737e-03  2.5565687213667749e-04  3.9650239179826676e-04  1.4544419364760793e-03  7.8839230177655758e-04  1.7303799650227735e-03  4.8520776065727375e-04  1.1412588079797641e-03  3.6343841481080127e-04  1.6886324761117434e-03  1.4425730542012229e-03  2.4059838480551131e-03  2.0142208637436163e-03  1.9043657870334424e-03  8.0924948393763471e-04  2.0921933482338419e-03  1.8368028369461890e-03  2.0618912123489762e-03  2.1295950630825220e-03  9.7993374383715083e-04  8.4551282644195250e-05  1.8297307942782717e-03  2.1214685160317174e-03  2.5774655394059003e-03  2.7970449621870313e-03  2.8455430269448854e-03  2.6848514137027238e-03  2.0197354300167760e-03  1.1269855048409569e-03  1.2823209978454039e-03  6.8401084484518565e-04  2.2655284692783455e-03  1.4101637341907025e-03  8.8338948705448371e-04  5.8196722468890883e-04  3.3148861762132665e-04  3.2992923921012330e-04  1.0502285866778045e-03  3.7958662022570256e-04  2.9922634977565569e-04  1.3745239459410035e-04  8.1132974164169222e-05  7.5863030990590630e-05  6.6961579996016639e-05  3.7788725647669331e-05  2.1248171795727364e-05  1.2353179901919174e-05  1.3758232455995843e-05  1.8353451925002881e-05  2.7049946375730882e-05  3.5428485853931197e-05  5.9747914390346463e-05  3.2106206412909213e-05  1.5168604943007183e-05  5.4676656280986933e-06  4.3209502433263659e-06  1.1002860582983987e-07  2.4771547605186937e-06  1.7694063994802467e-06  5.1886438409411031e-06  1.6380060081362019e-06  6.7536528318056977e-06  2.7525555438935176e-06  5.6420629048266083e-06  1.0120025010895064e-05  1.0017597360001607e-05  1.2701819042620341e-05  1.5336053511011587e-05  1.1031184462902877e-05  6.5552755065531079e-06  1.6623339546338830e-05  3.1612599372556980e-06  2.6230983048548224e-06  4.5791947546975718e-06  1.3899137693032347e-05  2.5101755595803932e-07  8.7772272151939533e-06  7.1547894574851363e-06  4.8652626083992588e-06  3.6710871752789979e-06  3.3768551899264713e-06  8.0964482651284491e-07  7.0378117496263456e-07  1.3448923462422663e-07  2.0733373799531276e-07  -2.8773336212999271e-23  -1.8869221007815639e-20  4.1942749570409354e-04  5.7543111784995251e-04  2.9481449802441510e-05  1.4977262728209050e-04  4.7868826678627922e-04  7.0759596593234755e-04  1.1385574111518974e-03  1.0296572882556531e-03  6.4955105076795858e-04  1.7284870577542283e-04  1.3187690176488627e-04  3.8273973799563975e-04  9.3228076103233314e-04  1.5125212475761486e-03  6.1384995194302644e-04  8.4081296142014914e-04  1.7076429048886756e-03  3.9852037681426000e-04  1.2111589388586164e-03  6.0105502590646401e-04  3.4825212051140279e-04  2.0173914586439990e-03  1.5927918927446452e-03  2.3861241490462049e-03  1.2118501029240180e-03  1.2282660050305060e-03  5.8526007780141547e-04  1.4802089728715589e-03  3.1995066670102920e-03  1.8721146081107885e-03  7.8000400785498266e-04  3.1082877654918374e-03  4.4165221656686129e-04  2.6172997672208351e-03  7.6958028015533682e-04  1.5676695578789781e-03  2.3283839777606761e-03  2.6406718509102635e-03  2.9956151960315518e-03  3.1046519411839575e-03  3.0257434598200813e-03  2.7690781268799444e-03  1.8912515552919136e-03  6.6905737182703469e-04  1.8782126045647045e-03  1.5033831995271564e-03  1.9222306635345271e-03  2.7122307317689917e-03  2.1410079486128249e-03  9.3377669412745721e-04  3.4728890102546096e-04  8.2391437610004046e-04  6.0825258857600737e-04  7.6426059685978512e-04  1.9470923617863364e-04  1.0154278144085503e-04  3.2963029997393183e-05  7.0733148128465604e-05  4.9092333556308635e-05  2.6914930716912601e-05  1.9359174941115832e-05  1.3938711256134148e-05  1.1081213599840204e-05  2.9948256449871594e-05  7.4939199131879025e-06  7.1005073567037189e-05  5.4572741528126024e-05  1.7036988250276874e-05  1.1102856281237913e-05  4.0294158325522542e-06  7.1627384138561366e-07  1.2198181543722159e-06  4.0219009292081082e-06  2.3607055730242864e-06  6.2677857026401142e-06  2.3792933581390621e-06  7.4076813168850620e-06  2.7046617184155759e-06  1.0075537212137336e-05  1.1217342392085885e-05  1.2179805369611331e-05  1.6075249300066574e-05  1.5337435825651598e-05  7.3421850967383967e-06  4.0873853604647927e-07  2.0032748568271779e-05  2.0743882534843513e-06  1.2820153149212229e-05  8.5730063913422817e-06  1.0149722096568221e-05  8.3271231186181550e-06  8.9740837919064281e-06  6.8578100074329899e-06  4.9693314690394062e-06  3.7203883222404280e-06  2.4936679525907612e-06  6.3636008242838701e-07  1.8264573358382703e-07  2.0070936610495125e-07  5.0137235889217824e-23  -2.1230544368462616e-20  3.3991766679827970e-04  5.7625313861418988e-04  9.2501329383117242e-04  1.2508023847131403e-04  5.1950002448007454e-04  6.6395942376003389e-04  6.2866312621562260e-04  1.2761240601910520e-03  4.0271659176856607e-04  1.6639600334273539e-03  9.1405879944115665e-04  8.0143388381267015e-05  1.3551561323161213e-03  1.3491517182715670e-03  3.3128641414911114e-04  1.2866334782765754e-03  9.8486302423433816e-04  1.0974639283068779e-03  1.3653544960557139e-03  8.7942161521199237e-04  2.2438363094815393e-03  1.1443330318954808e-03  2.0371075258953189e-03  1.2056752127589795e-03  2.7657918668841262e-03  2.4871829342294422e-03  3.4523764842243408e-03  2.6420016898347147e-03  1.9861169289997040e-03  1.7173095066940517e-03  3.4424216340326378e-03  2.2564821171691543e-03  3.3800615575747522e-03  2.8932626741848527e-03  1.7918032845316812e-03  1.7373906901189774e-04  2.7129938977944875e-03  2.7552668992964105e-03  3.1187986039272601e-03  3.3375264507894977e-03  3.3784844467489440e-03  3.1741234860274974e-03  2.3853655193999982e-03  1.2917396622101056e-03  2.0951937488114156e-03  1.2360745606824115e-03  3.5084766053601912e-03  1.4135389790943967e-03  2.0450214489302419e-04  3.4549365169577130e-05  1.5137148550257941e-04  6.1371350625715403e-04  1.5544486401737067e-03  4.1549419224716912e-04  6.1672989881163623e-04  1.2609025401457558e-04  3.2856774395556888e-05  3.5442906560239527e-05  6.5526659377423114e-05  3.6323787243381667e-05  2.1077738651922246e-05  1.5258230874646339e-05  1.3464555372920101e-05  1.5800314006842678e-05  3.6621401378012458e-05  3.9740730401213879e-05  8.1090720798955392e-05  3.4880108797261746e-05  9.2973367885697440e-06  8.3263785673093494e-06  4.6522471444420725e-06  2.8731399419313178e-06  1.2397778434215289e-06  2.1349831517610962e-06  4.0839937198181093e-06  4.0495928618335198e-06  6.3224726822860369e-06  4.2725063820612979e-06  4.7899000157641697e-06  1.3447889507275122e-05  1.2442773855619815e-05  1.3750163406536017e-05  1.7288374732684069e-05  1.2943302443811958e-05  6.4489531829230696e-06  1.8832154289734264e-05  6.1872972551068201e-06  8.0518432999591498e-06  1.1766447607832378e-05  1.9930309869856503e-05  1.2152341940202204e-07  1.3907714755373922e-05  9.5528468754222359e-06  5.2969703851911066e-06  4.2208618931230199e-06  3.9460257312325252e-06  1.4045748689374450e-06  1.0705318747758298e-06  1.9154936257571372e-07  4.7019774032891500e-38  -1.0621378395471500e-20  3.8245548682672430e-04  6.2974797729143934e-04  5.2426491999063931e-04  6.0928352676677176e-04  2.3680037504303689e-04  5.7347818584313763e-04  1.0590685370043241e-03  1.4807315277176785e-03  1.3339842728455782e-03  5.7965664042745749e-04  5.1913483471316760e-04  2.6629494767667182e-04  3.4560803467536063e-04  1.4036036733670522e-03  1.8421136126526782e-03  3.6845634953461720e-04  6.8294797684414913e-04  1.3965869618746479e-03  1.9303974191124559e-04  1.6380295498651838e-03  1.3467686806412462e-04  1.8702883273565363e-04  1.6637672657874255e-03  1.3813642131830400e-03  2.2603101891635353e-03  7.5594268665521436e-04  6.4681686598048224e-04  1.4520866275996845e-03  2.4356385020805242e-03  4.2589386515430056e-03  1.9552843674618061e-03  1.8759308114033530e-03  4.2466303805207611e-03  1.0257575998483684e-03  3.9270926977689035e-03  1.0826938833396929e-03  1.9504242033761561e-03  3.2390209539139895e-03  3.2456850494698439e-03  3.5541695065201477e-03  3.6560612583166831e-03  3.5705953011782414e-03  3.2466562714970055e-03  2.0714929183187009e-03  8.5594854541911508e-04  2.8429383149898065e-03  1.7527155519816862e-03  3.1311518582646633e-03  3.5258750747456740e-03  2.4331054230545719e-03  1.1452765217902143e-03  2.1312248488768905e-04  7.1093406551572032e-04  1.0361866926960166e-03  1.0346115345401575e-03  3.3614579080337232e-04  5.1594835171971194e-05  2.3884326780269020e-05  5.4742595642696115e-05  5.8082962287581904e-05  2.8671845386114730e-05  1.7318921800888410e-05  1.4174045651406390e-05  1.2867907178715485e-05  3.0566330630290085e-05  1.2553952342722608e-05  8.1064470499689646e-05  6.7355332889278732e-05  1.7808182502299134e-05  6.0961025238355750e-06  5.5777410914020214e-06  3.5933957922615720e-06  1.8868169810449374e-06  3.7982663543627663e-06  1.7053011303282309e-06  4.6900747417405846e-06  3.4264373992793025e-06  7.9234016042055221e-06  1.7231088075881936e-06  8.7335814313248640e-06  1.4193536849053836e-05  1.3714655566709475e-05  1.5745780468656401e-05  1.6335296397027109e-05  8.8900397716675703e-06  6.0548697982502417e-06  1.9302437400383866e-05  1.4856736487252418e-06  1.5711176747607133e-05  1.3811040173597534e-06  1.9360461973319517e-05  1.1026331230655048e-05  1.3953463906344735e-05  7.0984137411500268e-06  4.0557972409625711e-06  4.6861090778082038e-06  2.8583339966647725e-06  1.3549628091920635e-06  7.1182956449884576e-07  4.7019774032891500e-38  -2.0085814896344726e-20  1.9133774313602602e-04  4.9711675856226078e-04  8.2590234659059368e-04  8.6617989022337312e-04  5.9810528414033231e-05  6.5592103909095721e-04  4.2031179144778663e-04  3.4089813977156852e-04  1.6900367602552880e-03  6.3762095110706820e-04  1.6248742426152817e-03  8.9842163127238229e-04  5.2597282912244953e-05  1.4162517131034620e-03  1.6667074419706156e-03  6.3969998975824886e-04  1.0979586450423618e-03  1.1454884198698720e-03  1.3608470031493930e-03  1.1924289199315369e-03  4.4415082794724303e-04  2.0159503432949891e-03  9.4921454857701171e-04  2.2525600596852656e-03  1.4083910400944483e-03  3.1260563720623066e-03  2.6569945662806684e-03  3.5934181623140890e-03  2.4859015718794123e-03  1.5682593967068048e-03  2.6939906908006960e-03  4.1946505582278392e-03  2.2001202686256389e-03  4.7951026874275349e-03  3.2112243372164543e-03  3.0198936899673273e-03  2.2958608765865629e-04  3.3999730245317483e-03  3.6079475516440375e-03  3.7707129279515939e-03  3.9542317267041186e-03  3.9808669355110111e-03  3.7396132464427886e-03  2.7969777400394958e-03  1.3369888695659523e-03  2.6854655044013663e-03  1.9311613642737345e-03  4.3234672814781664e-03  1.0042439208988098e-03  6.1987763468209411e-04  6.4315261093839094e-04  3.2616822320326782e-04  5.3072364886716180e-04  1.7411615966405481e-03  2.2049061994194554e-04  9.7892719565829196e-04  1.5268693914543825e-04  3.0421417816292007e-05  2.6150871780979930e-05  5.9306661643535544e-05  4.5791590703841190e-05  2.7364553936598510e-05  1.5816145878386989e-05  1.2160962641112701e-05  1.7816249458841472e-05  4.2132514630081472e-05  4.0649809685012386e-05  9.3525752312455398e-05  4.0431018464991065e-05  1.1102273108189358e-05  6.1546205121888809e-06  1.6242968781399198e-06  2.8321649932308856e-06  1.0120143630636451e-06  4.0655528961163907e-06  3.0027426940120259e-06  3.3187162984131320e-06  5.0212371980019261e-06  6.6645891596052184e-06  2.5434355854621550e-06  1.1908139814731550e-05  1.5262169879443019e-05  1.5992156389971789e-05  1.6322767413242444e-05  1.3248897961845225e-05  6.6412661294881490e-06  2.5261827138480556e-05  7.0713496007779056e-06  1.0577962726724013e-05  1.2762980117070809e-05  1.4993018703991638e-05  8.6520281250204260e-06  1.7153219575251448e-05  1.2685451053248377e-05  5.4925659103857421e-06  2.6912381452375605e-06  3.5372793254980510e-06  1.6912477546813677e-06  4.2738393723224621e-07  1.1441780797660006e-23  -1.1917376543065457e-20  3.6183387393044455e-04  6.0451002031897268e-04  6.7609906932524248e-04  6.3278653099821456e-04  9.5617379536406134e-04  1.1787636869540225e-04  4.6785891311979351e-04  9.7602770776953176e-04  1.5216282424444052e-03  1.7050950296584263e-03  7.3803830926107172e-04  5.4714854595143685e-04  5.3210359482398165e-04  3.7726964538569433e-04  1.6955376619301311e-03  2.0682528237456837e-03  