<?xml version="1.0"?>
<VTKFile type="UnstructuredGrid"  version="0.1"  >
<UnstructuredGrid>
<Piece  NumberOfPoints="10201" NumberOfCells="20000">
<Points>
<DataArray  type="Float64"  NumberOfComponents="3"  format="ascii">0 0 0  0.01 0 0  0.02 0 0  0.03 0 0  0.04 0 0  0.05 0 0  0.06 0 0  0.07000000000000001 0 0  0.08 0 0  0.09 0 0  0.1 0 0  0.11 0 0  0.12 0 0  0.13 0 0  0.14 0 0  0.15 0 0  0.16 0 0  0.17 0 0  0.18 0 0  0.19 0 0  0.2 0 0  0.21 0 0  0.22 0 0  0.23 0 0  0.24 0 0  0.25 0 0  0.26 0 0  0.27 0 0  0.28 0 0  0.29 0 0  0.3 0 0  0.31 0 0  0.32 0 0  0.33 0 0  0.34 0 0  0.35 0 0  0.36 0 0  0.37 0 0  0.38 0 0  0.39 0 0  0.4 0 0  0.41 0 0  0.42 0 0  0.43 0 0  0.44 0 0  0.45 0 0  0.46 0 0  0.47 0 0  0.48 0 0  0.49 0 0  0.5 0 0  0.51 0 0  0.52 0 0  0.53 0 0  0.54 0 0  0.55 0 0  0.5600000000000001 0 0  0.57 0 0  0.58 0 0  0.59 0 0  0.6 0 0  0.61 0 0  0.62 0 0  0.63 0 0  0.64 0 0  0.65 0 0  0.66 0 0  0.67 0 0  0.68 0 0  0.6899999999999999 0 0  0.7 0 0  0.71 0 0  0.72 0 0  0.73 0 0  0.74 0 0  0.75 0 0  0.76 0 0  0.77 0 0  0.78 0 0  0.79 0 0  0.8 0 0  0.8100000000000001 0 0  0.82 0 0  0.83 0 0  0.84 0 0  0.85 0 0  0.86 0 0  0.87 0 0  0.88 0 0  0.89 0 0  0.9 0 0  0.91 0 0  0.92 0 0  0.93 0 0  0.9399999999999999 0 0  0.95 0 0  0.96 0 0  0.97 0 0  0.98 0 0  0.99 0 0  1 0 0  0 0.01 0  0.01 0.01 0  0.02 0.01 0  0.03 0.01 0  0.04 0.01 0  0.05 0.01 0  0.06 0.01 0  0.07000000000000001 0.01 0  0.08 0.01 0  0.09 0.01 0  0.1 0.01 0  0.11 0.01 0  0.12 0.01 0  0.13 0.01 0  0.14 0.01 0  0.15 0.01 0  0.16 0.01 0  0.17 0.01 0  0.18 0.01 0  0.19 0.01 0  0.2 0.01 0  0.21 0.01 0  0.22 0.01 0  0.23 0.01 0  0.24 0.01 0  0.25 0.01 0  0.26 0.01 0  0.27 0.01 0  0.28 0.01 0  0.29 0.01 0  0.3 0.01 0  0.31 0.01 0  0.32 0.01 0  0.33 0.01 0  0.34 0.01 0  0.35 0.01 0  0.36 0.01 0  0.37 0.01 0  0.38 0.01 0  0.39 0.01 0  0.4 0.01 0  0.41 0.01 0  0.42 0.01 0  0.43 0.01 0  0.44 0.01 0  0.45 0.01 0  0.46 0.01 0  0.47 0.01 0  0.48 0.01 0  0.49 0.01 0  0.5 0.01 0  0.51 0.01 0  0.52 0.01 0  0.53 0.01 0  0.54 0.01 0  0.55 0.01 0  0.5600000000000001 0.01 0  0.57 0.01 0  0.58 0.01 0  0.59 0.01 0  0.6 0.01 0  0.61 0.01 0  0.62 0.01 0  0.63 0.01 0  0.64 0.01 0  0.65 0.01 0  0.66 0.01 0  0.67 0.01 0  0.68 0.01 0  0.6899999999999999 0.01 0  0.7 0.01 0  0.71 0.01 0  0.72 0.01 0  0.73 0.01 0  0.74 0.01 0  0.75 0.01 0  0.76 0.01 0  0.77 0.01 0  0.78 0.01 0  0.79 0.01 0  0.8 0.01 0  0.8100000000000001 0.01 0  0.82 0.01 0  0.83 0.01 0  0.84 0.01 0  0.85 0.01 0  0.86 0.01 0  0.87 0.01 0  0.88 0.01 0  0.89 0.01 0  0.9 0.01 0  0.91 0.01 0  0.92 0.01 0  0.93 0.01 0  0.9399999999999999 0.01 0  0.95 0.01 0  0.96 0.01 0  0.97 0.01 0  0.98 0.01 0  0.99 0.01 0  1 0.01 0  0 0.02 0  0.01 0.02 0  0.02 0.02 0  0.03 0.02 0  0.04 0.02 0  0.05 0.02 0  0.06 0.02 0  0.07000000000000001 0.02 0  0.08 0.02 0  0.09 0.02 0  0.1 0.02 0  0.11 0.02 0  0.12 0.02 0  0.13 0.02 0  0.14 0.02 0  0.15 0.02 0  0.16 0.02 0  0.17 0.02 0  0.18 0.02 0  0.19 0.02 0  0.2 0.02 0  0.21 0.02 0  0.22 0.02 0  0.23 0.02 0  0.24 0.02 0  0.25 0.02 0  0.26 0.02 0  0.27 0.02 0  0.28 0.02 0  0.29 0.02 0  0.3 0.02 0  0.31 0.02 0  0.32 0.02 0  0.33 0.02 0  0.34 0.02 0  0.35 0.02 0  0.36 0.02 0  0.37 0.02 0  0.38 0.02 0  0.39 0.02 0  0.4 0.02 0  0.41 0.02 0  0.42 0.02 0  0.43 0.02 0  0.44 0.02 0  0.45 0.02 0  0.46 0.02 0  0.47 0.02 0  0.48 0.02 0  0.49 0.02 0  0.5 0.02 0  0.51 0.02 0  0.52 0.02 0  0.53 0.02 0  0.54 0.02 0  0.55 0.02 0  0.5600000000000001 0.02 0  0.57 0.02 0  0.58 0.02 0  0.59 0.02 0  0.6 0.02 0  0.61 0.02 0  0.62 0.02 0  0.63 0.02 0  0.64 0.02 0  0.65 0.02 0  0.66 0.02 0  0.67 0.02 0  0.68 0.02 0  0.6899999999999999 0.02 0  0.7 0.02 0  0.71 0.02 0  0.72 0.02 0  0.73 0.02 0  0.74 0.02 0  0.75 0.02 0  0.76 0.02 0  0.77 0.02 0  0.78 0.02 0  0.79 0.02 0  0.8 0.02 0  0.8100000000000001 0.02 0  0.82 0.02 0  0.83 0.02 0  0.84 0.02 0  0.85 0.02 0  0.86 0.02 0  0.87 0.02 0  0.88 0.02 0  0.89 0.02 0  0.9 0.02 0  0.91 0.02 0  0.92 0.02 0  0.93 0.02 0  0.9399999999999999 0.02 0  0.95 0.02 0  0.96 0.02 0  0.97 0.02 0  0.98 0.02 0  0.99 0.02 0  1 0.02 0  0 0.03 0  0.01 0.03 0  0.02 0.03 0  0.03 0.03 0  0.04 0.03 0  0.05 0.03 0  0.06 0.03 0  0.07000000000000001 0.03 0  0.08 0.03 0  0.09 0.03 0  0.1 0.03 0  0.11 0.03 0  0.12 0.03 0  0.13 0.03 0  0.14 0.03 0  0.15 0.03 0  0.16 0.03 0  0.17 0.03 0  0.18 0.03 0  0.19 0.03 0  0.2 0.03 0  0.21 0.03 0  0.22 0.03 0  0.23 0.03 0  0.24 0.03 0  0.25 0.03 0  0.26 0.03 0  0.27 0.03 0  0.28 0.03 0  0.29 0.03 0  0.3 0.03 0  0.31 0.03 0  0.32 0.03 0  0.33 0.03 0  0.34 0.03 0  0.35 0.03 0  0.36 0.03 0  0.37 0.03 0  0.38 0.03 0  0.39 0.03 0  0.4 0.03 0  0.41 0.03 0  0.42 0.03 0  0.43 0.03 0  0.44 0.03 0  0.45 0.03 0  0.46 0.03 0  0.47 0.03 0  0.48 0.03 0  0.49 0.03 0  0.5 0.03 0  0.51 0.03 0  0.52 0.03 0  0.53 0.03 0  0.54 0.03 0  0.55 0.03 0  0.5600000000000001 0.03 0  0.57 0.03 0  0.58 0.03 0  0.59 0.03 0  0.6 0.03 0  0.61 0.03 0  0.62 0.03 0  0.63 0.03 0  0.64 0.03 0  0.65 0.03 0  0.66 0.03 0  0.67 0.03 0  0.68 0.03 0  0.6899999999999999 0.03 0  0.7 0.03 0  0.71 0.03 0  0.72 0.03 0  0.73 0.03 0  0.74 0.03 0  0.75 0.03 0  0.76 0.03 0  0.77 0.03 0  0.78 0.03 0  0.79 0.03 0  0.8 0.03 0  0.8100000000000001 0.03 0  0.82 0.03 0  0.83 0.03 0  0.84 0.03 0  0.85 0.03 0  0.86 0.03 0  0.87 0.03 0  0.88 0.03 0  0.89 0.03 0  0.9 0.03 0  0.91 0.03 0  0.92 0.03 0  0.93 0.03 0  0.9399999999999999 0.03 0  0.95 0.03 0  0.96 0.03 0  0.97 0.03 0  0.98 0.03 0  0.99 0.03 0  1 0.03 0  0 0.04 0  0.01 0.04 0  0.02 0.04 0  0.03 0.04 0  0.04 0.04 0  0.05 0.04 0  0.06 0.04 0  0.07000000000000001 0.04 0  0.08 0.04 0  0.09 0.04 0  0.1 0.04 0  0.11 0.04 0  0.12 0.04 0  0.13 0.04 0  0.14 0.04 0  0.15 0.04 0  0.16 0.04 0  0.17 0.04 0  0.18 0.04 0  0.19 0.04 0  0.2 0.04 0  0.21 0.04 0  0.22 0.04 0  0.23 0.04 0  0.24 0.04 0  0.25 0.04 0  0.26 0.04 0  0.27 0.04 0  0.28 0.04 0  0.29 0.04 0  0.3 0.04 0  0.31 0.04 0  0.32 0.04 0  0.33 0.04 0  0.34 0.04 0  0.35 0.04 0  0.36 0.04 0  0.37 0.04 0  0.38 0.04 0  0.39 0.04 0  0.4 0.04 0  0.41 0.04 0  0.42 0.04 0  0.43 0.04 0  0.44 0.04 0  0.45 0.04 0  0.46 0.04 0  0.47 0.04 0  0.48 0.04 0  0.49 0.04 0  0.5 0.04 0  0.51 0.04 0  0.52 0.04 0  0.53 0.04 0  0.54 0.04 0  0.55 0.04 0  0.5600000000000001 0.04 0  0.57 0.04 0  0.58 0.04 0  0.59 0.04 0  0.6 0.04 0  0.61 0.04 0  0.62 0.04 0  0.63 0.04 0  0.64 0.04 0  0.65 0.04 0  0.66 0.04 0  0.67 0.04 0  0.68 0.04 0  0.6899999999999999 0.04 0  0.7 0.04 0  0.71 0.04 0  0.72 0.04 0  0.73 0.04 0  0.74 0.04 0  0.75 0.04 0  0.76 0.04 0  0.77 0.04 0  0.78 0.04 0  0.79 0.04 0  0.8 0.04 0  0.8100000000000001 0.04 0  0.82 0.04 0  0.83 0.04 0  0.84 0.04 0  0.85 0.04 0  0.86 0.04 0  0.87 0.04 0  0.88 0.04 0  0.89 0.04 0  0.9 0.04 0  0.91 0.04 0  0.92 0.04 0  0.93 0.04 0  0.9399999999999999 0.04 0  0.95 0.04 0  0.96 0.04 0  0.97 0.04 0  0.98 0.04 0  0.99 0.04 0  1 0.04 0  0 0.05 0  0.01 0.05 0  0.02 0.05 0  0.03 0.05 0  0.04 0.05 0  0.05 0.05 0  0.06 0.05 0  0.07000000000000001 0.05 0  0.08 0.05 0  0.09 0.05 0  0.1 0.05 0  0.11 0.05 0  0.12 0.05 0  0.13 0.05 0  0.14 0.05 0  0.15 0.05 0  0.16 0.05 0  0.17 0.05 0  0.18 0.05 0  0.19 0.05 0  0.2 0.05 0  0.21 0.05 0  0.22 0.05 0  0.23 0.05 0  0.24 0.05 0  0.25 0.05 0  0.26 0.05 0  0.27 0.05 0  0.28 0.05 0  0.29 0.05 0  0.3 0.05 0  0.31 0.05 0  0.32 0.05 0  0.33 0.05 0  0.34 0.05 0  0.35 0.05 0  0.36 0.05 0  0.37 0.05 0  0.38 0.05 0  0.39 0.05 0  0.4 0.05 0  0.41 0.05 0  0.42 0.05 0  0.43 0.05 0  0.44 0.05 0  0.45 0.05 0  0.46 0.05 0  0.47 0.05 0  0.48 0.05 0  0.49 0.05 0  0.5 0.05 0  0.51 0.05 0  0.52 0.05 0  0.53 0.05 0  0.54 0.05 0  0.55 0.05 0  0.5600000000000001 0.05 0  0.57 0.05 0  0.58 0.05 0  0.59 0.05 0  0.6 0.05 0  0.61 0.05 0  0.62 0.05 0  0.63 0.05 0  0.64 0.05 0  0.65 0.05 0  0.66 0.05 0  0.67 0.05 0  0.68 0.05 0  0.6899999999999999 0.05 0  0.7 0.05 0  0.71 0.05 0  0.72 0.05 0  0.73 0.05 0  0.74 0.05 0  0.75 0.05 0  0.76 0.05 0  0.77 0.05 0  0.78 0.05 0  0.79 0.05 0  0.8 0.05 0  0.8100000000000001 0.05 0  0.82 0.05 0  0.83 0.05 0  0.84 0.05 0  0.85 0.05 0  0.86 0.05 0  0.87 0.05 0  0.88 0.05 0  0.89 0.05 0  0.9 0.05 0  0.91 0.05 0  0.92 0.05 0  0.93 0.05 0  0.9399999999999999 0.05 0  0.95 0.05 0  0.96 0.05 0  0.97 0.05 0  0.98 0.05 0  0.99 0.05 0  1 0.05 0  0 0.06 0  0.01 0.06 0  0.02 0.06 0  0.03 0.06 0  0.04 0.06 0  0.05 0.06 0  0.06 0.06 0  0.07000000000000001 0.06 0  0.08 0.06 0  0.09 0.06 0  0.1 0.06 0  0.11 0.06 0  0.12 0.06 0  0.13 0.06 0  0.14 0.06 0  0.15 0.06 0  0.16 0.06 0  0.17 0.06 0  0.18 0.06 0  0.19 0.06 0  0.2 0.06 0  0.21 0.06 0  0.22 0.06 0  0.23 0.06 0  0.24 0.06 0  0.25 0.06 0  0.26 0.06 0  0.27 0.06 0  0.28 0.06 0  0.29 0.06 0  0.3 0.06 0  0.31 0.06 0  0.32 0.06 0  0.33 0.06 0  0.34 0.06 0  0.35 0.06 0  0.36 0.06 0  0.37 0.06 0  0.38 0.06 0  0.39 0.06 0  0.4 0.06 0  0.41 0.06 0  0.42 0.06 0  0.43 0.06 0  0.44 0.06 0  0.45 0.06 0  0.46 0.06 0  0.47 0.06 0  0.48 0.06 0  0.49 0.06 0  0.5 0.06 0  0.51 0.06 0  0.52 0.06 0  0.53 0.06 0  0.54 0.06 0  0.55 0.06 0  0.5600000000000001 0.06 0  0.57 0.06 0  0.58 0.06 0  0.59 0.06 0  0.6 0.06 0  0.61 0.06 0  0.62 0.06 0  0.63 0.06 0  0.64 0.06 0  0.65 0.06 0  0.66 0.06 0  0.67 0.06 0  0.68 0.06 0  0.6899999999999999 0.06 0  0.7 0.06 0  0.71 0.06 0  0.72 0.06 0  0.73 0.06 0  0.74 0.06 0  0.75 0.06 0  0.76 0.06 0  0.77 0.06 0  0.78 0.06 0  0.79 0.06 0  0.8 0.06 0  0.8100000000000001 0.06 0  0.82 0.06 0  0.83 0.06 0  0.84 0.06 0  0.85 0.06 0  0.86 0.06 0  0.87 0.06 0  0.88 0.06 0  0.89 0.06 0  0.9 0.06 0  0.91 0.06 0  0.92 0.06 0  0.93 0.06 0  0.9399999999999999 0.06 0  0.95 0.06 0  0.96 0.06 0  0.97 0.06 0  0.98 0.06 0  0.99 0.06 0  1 0.06 0  0 0.07000000000000001 0  0.01 0.07000000000000001 0  0.02 0.07000000000000001 0  0.03 0.07000000000000001 0  0.04 0.07000000000000001 0  0.05 0.07000000000000001 0  0.06 0.07000000000000001 0  0.07000000000000001 0.07000000000000001 0  0.08 0.07000000000000001 0  0.09 0.07000000000000001 0  0.1 0.07000000000000001 0  0.11 0.07000000000000001 0  0.12 0.07000000000000001 0  0.13 0.07000000000000001 0  0.14 0.07000000000000001 0  0.15 0.07000000000000001 0  0.16 0.07000000000000001 0  0.17 0.0700
[...]
<PointData  Scalars="Indicator Function"> 
<DataArray  type="Float64"  Name="Indicator Function"  format="ascii">-1.2037062152420224e-35  -5.4506288393499733e-20  8.7911629487811718e-21  -2.9103634163573198e-20  3.2434547730840683e-19  -3.0624048974059625e-20  -2.5599640080474056e-20  6.6194090240856886e-19  8.3158889923651420e-19  5.8304519800785460e-36  4.1192701555512943e-18  1.2592370280867081e-18  -3.1204791116365490e-20  -3.2679837898924418e-20  8.1977583224630914e-18  -8.4529077367188392e-21  2.5428293796987723e-34  1.9615195095551444e-18  -3.4429108802115952e-20  -7.5231638452626401e-36  6.7520580056481595e-18  0.0000000000000000e+00  -3.5997071833766498e-20  1.0024702122869973e-17  -4.3988061223069645e-20  -2.3757037776148634e-20  -1.7927397188376188e-20  -4.2152615070328505e-20  4.0952987532604438e-17  -1.6519952903121541e-20  -7.2092861752916012e-20  -2.6392663154556259e-20  -4.4036857470250590e-20  -2.6583729556603605e-20  3.2283835935173665e-18  -7.6388964262147044e-20  -1.0755950278059033e-19  -1.2510070361351481e-19  -1.3131429727845199e-19  -1.2890299579408750e-19  8.9228138641030822e-18  -6.4280402774788934e-20  -2.3091598545986192e-20  -2.9359819624148162e-20  -2.5938316682195439e-20  -2.0440986082985381e-20  1.9147896952416021e-17  -1.5052203589295321e-20  -1.0049958553307036e-20  -7.9016475652282131e-21  -1.7589267763278730e-20  -1.1450227746371754e-20  -8.1945662853150899e-21  -1.1485959912029623e-20  -8.0913863456230129e-21  -7.3502104482211350e-22  6.6984051999586226e-19  0.0000000000000000e+00  -7.0529661049337250e-38  0.0000000000000000e+00  -9.4039548065783001e-38  -7.0529661049337250e-38  -5.7832728223673019e-23  -3.3520540847476806e-23  -3.4227233265275205e-23  -7.6135672606814409e-23  -6.9072321845978472e-23  -6.8996834167753151e-22  1.3065033496832091e-18  0.0000000000000000e+00  -9.9909295638992703e-23  -5.8273420949801217e-24  -9.4309696035506693e-23  4.7019774032891500e-38  -7.7419492242971633e-22  -8.2796339400369048e-22  -4.1543467588091404e-22  9.4039548065783001e-38  -1.1754943508222875e-37  3.5264830524668625e-38  -5.8314630934274350e-22  7.1408326436824917e-20  -3.8618790480433831e-22  -7.5101372745404742e-22  -7.3298596574438039e-22  -5.5624011270128854e-22  -1.7577632004983231e-22  3.5264830524668625e-38  -8.5561667946956631e-23  -9.9286789978635920e-23  -1.7268546633836686e-22  -1.7752253484399087e-22  -1.4653911091656472e-22  1.2068399097612549e-20  -9.6699785361394097e-23  -6.5155185117691076e-23  -4.7711558496909230e-23  -3.9034253054105534e-23  -1.3706061565230984e-23  2.2040519077917891e-39  1.1754943508222875e-38  -2.7739871745239171e-20  4.4891727165037641e-04  2.1627095347574894e-04  1.2595987017398325e-04  3.3387935331324388e-04  2.4048683147883027e-04  4.3143040645318763e-04  2.4544691488237398e-04  6.5662429943258460e-04  8.6531173497723514e-05  8.1777187354664580e-07  4.1043262460510718e-04  6.7749986247615443e-04  2.2338561133727390e-04  4.7701481746785773e-04  1.7544923811644274e-04  6.4549429474915180e-05  7.0653670512122390e-04  1.3746029323994201e-04  6.2021968628763065e-04  1.2169699858029232e-04  3.1900069266351276e-04  1.4955454681028470e-04  5.7368832378278123e-04  2.4664513436304845e-04  8.5593749180871786e-04  6.4590255437835069e-04  7.9952667099046973e-04  3.5959067059845580e-04  5.9519402990940965e-04  6.9562727544124857e-04  9.5089590358539650e-04  5.9559314117840767e-04  4.9550092898514864e-04  2.3113943360837452e-04  6.0538444837632732e-04  1.0734090197567303e-03  1.4009152366929241e-03  1.5531563103639860e-03  1.5889699259846266e-03  1.5276249723084588e-03  1.2165443392783406e-03  5.4970062229588862e-04  4.1598125842836990e-04  3.2090886166172961e-04  7.3646413845138213e-04  6.0936933628970606e-04  5.4231278780684210e-04  3.6208791676609986e-04  1.5867865992174324e-04  1.4234342812149904e-04  4.1253793129493715e-04  2.4344004243857791e-05  1.3544818055410252e-04  1.3918856884218494e-04  7.6167173703141597e-05  5.9546298604745187e-05  3.0401704492716268e-05  1.3316054789837317e-05  7.0945004975601200e-06  3.6149397142049483e-06  5.4305837875444466e-07  2.0571288939308480e-06  1.2077047621596316e-06  5.8072665814251492e-07  3.2621969084640985e-07  2.4885926634173034e-06  1.2082162161519971e-05  6.3882835851452928e-06  1.7654605720277126e-06  2.6732939500146416e-06  4.1151600985449656e-06  3.3978648953834585e-06  3.9199980578253013e-06  1.5085780280655047e-07  1.3871226955263127e-05  7.9796490532141585e-06  3.4939812793691877e-06  6.7374258693034870e-07  1.9136714036720191e-06  5.6424206894420592e-06  7.6838196611129926e-06  1.1071212758583903e-06  6.9569428166872407e-06  1.0050589164105080e-05  8.1790067067242355e-06  5.9308277037980637e-06  1.3397487343858394e-06  1.2495772764066669e-06  1.5413419835324469e-06  1.0179208096361667e-06  2.6018644025969933e-06  1.8970294857945556e-06  1.6912991983788946e-06  1.5527027221340702e-06  9.9378565204283378e-07  9.5024771107010572e-07  6.4004218536946470e-07  4.9003361236480251e-07  1.8604198030141872e-08  -1.3203042700612603e-23  -1.4783850967344118e-20  4.9971710422065771e-04  1.3945315083415891e-04  9.5549398916850280e-05  3.5357265370593427e-05  4.0679247996547085e-04  4.9573557344422773e-04  5.9687071053061904e-04  7.1781907925051811e-04  3.4933755489694525e-05  3.7205077112119404e-04  4.0120223868929524e-04  4.8452551052193503e-04  9.7181146069537838e-04  6.9931764995336031e-04  4.9080847097784550e-04  1.1373662617450693e-03  6.1739497247671396e-05  5.4066835461418568e-04  8.0750546866753255e-04  3.8557289395478958e-04  1.4377480033256282e-03  9.4076305393224382e-04  1.5618048008470074e-03  8.5843360891956183e-04  1.0670867278103216e-03  6.8293420061884465e-05  3.7980643645505900e-04  1.6051380148765103e-03  1.0596986773512666e-03  1.9996439044171369e-04  1.5845110070083148e-03  1.9379167302091511e-04  1.1389947086666529e-03  5.2486716926018046e-04  4.8198802255624559e-04  1.3656028915306057e-03  1.7976954567872699e-03  2.1259059619735542e-03  2.2525151124671971e-03  2.1997891064371032e-03  1.9776981896684784e-03  1.4121106162286255e-03  3.1184977804737512e-04  9.9184155420483006e-04  8.6182239294610300e-04  7.1457403956402192e-04  1.0426584881422151e-03  8.3097150768198099e-04  1.6746697890179677e-04  3.7933072395352494e-04  4.6990297991959123e-04  3.9999397301486504e-04  3.6664348365682921e-04  1.8325754541469966e-04  1.1789373984444725e-04  6.2694014938251855e-05  6.7039338197289990e-05  2.6743148724820851e-05  1.2265291436128069e-05  3.8618519194890497e-06  6.8118600263427688e-07  3.5496536482112806e-06  8.5914551713685628e-07  6.4025667374296433e-06  2.3959853850436513e-07  1.7823604741688832e-06  7.5634401253660309e-06  3.9243192644297429e-05  1.0829899933388846e-05  1.3128719740607183e-05  1.0920089446899173e-05  9.6423264209648549e-06  9.1144296145310393e-06  3.1494956703141555e-06  1.7685427579384253e-05  1.1094440955128533e-05  1.1023821262003771e-05  4.8340760016715570e-06  7.0136580077909934e-06  1.2965067217623556e-06  1.5544463851248748e-05  1.9164671683052937e-06  4.5701299644271404e-06  1.4204000735583408e-05  1.4810212774909956e-05  7.6596373513771202e-06  5.0383828889823207e-06  8.6906244901364709e-07  1.4936337946162516e-07  6.4082330168395041e-07  2.8648077732447915e-06  2.4251560625550596e-06  3.0730290193585050e-06  2.0312536297781062e-06  1.9150689356779192e-06  1.4256134275808830e-06  1.2047056567688345e-06  1.0716179830324739e-06  5.2803719601815636e-07  1.3190378689751946e-22  -2.0470242848593478e-20  2.6632218283052837e-04  4.4263691222314223e-04  2.9937243513536228e-05  4.4965690939331623e-04  6.3722237886944212e-04  5.4460224680800051e-04  7.7203335149345889e-04  1.6616417542018706e-04  1.3170316029257696e-03  4.8262330244701486e-04  9.0218507576110207e-06  1.0124863915307164e-03  1.0573210634669556e-03  7.4105569287663908e-05  1.0938095869822114e-03  3.2745566970744427e-04  4.5836422686598293e-04  1.3056720709935697e-03  7.3847418935429389e-04  1.6588135369946715e-03  5.5400140063749913e-04  1.1372427782330246e-03  4.4288377876985631e-04  1.6792093294957081e-03  1.4235962389747986e-03  2.2477484651721555e-03  1.8474088131393788e-03  1.6981344228564578e-03  8.3522903550501087e-04  1.9681459491768514e-03  1.5709307975097129e-03  1.9462787171753669e-03  1.9267889273847274e-03  9.6096429101063369e-04  1.3423207373496442e-04  1.5013733932688433e-03  1.9358835518114817e-03  2.2955102532446103e-03  2.5223607144942537e-03  2.5884704889770618e-03  2.4582910978187939e-03  1.8408026605663452e-03  7.4091647054613503e-04  1.0943792036159031e-03  5.9841152810893557e-04  2.0886155708093922e-03  1.4388520049199351e-03  9.8217048157098240e-04  7.3478476801978117e-04  5.7991063419124043e-04  5.4846130451349036e-04  1.0318626144458923e-03  2.0189627693241897e-04  4.1617777038639568e-04  1.5594297178574913e-04  2.3573873192903786e-05  7.0947607360648656e-05  5.7589208228103089e-05  2.5118023595975064e-05  1.3014755206229549e-05  4.8741808359569066e-06  6.8204953091291081e-07  1.1651213512235707e-06  4.8923161248262732e-06  2.9977878032281956e-06  3.1667626651867715e-06  8.8427769320976629e-06  1.1887911628139796e-05  3.4040441802873954e-05  1.5860412885473035e-05  1.0749201592575620e-06  1.4770949045112606e-05  1.6820060464593220e-05  2.1706797729950048e-05  5.1118696404563586e-06  2.5388453459714390e-05  3.8928181918299422e-06  2.2924481671699849e-06  5.7375864855613574e-06  1.0314417654927830e-05  4.3351739165522852e-06  1.7145490443658670e-05  7.3752987940651877e-06  1.3182569031899203e-05  1.6506309024864936e-05  1.1562752631536729e-05  5.6018763442842730e-06  1.3308448390451489e-06  7.4274469905885518e-07  6.1780015654498287e-07  2.0172546247428863e-06  2.9325432353492869e-06  3.7514110474185915e-06  2.6481062540075502e-06  2.5930524916714722e-06  1.7745467911159875e-06  1.4832088382406816e-06  1.0969473803980675e-06  8.1423634375764057e-07  -6.7590925172281532e-38  -1.9000833046006327e-20  3.6875911226043735e-04  4.9697592666763974e-04  7.3934507193098840e-05  1.4477199704090483e-04  5.0645310665927074e-04  7.5459619595114199e-04  1.1004916877509188e-03  9.7217342130385671e-04  5.9516860825737836e-04  1.2026390322201870e-04  3.2036102840767087e-04  2.7093506457129610e-04  7.8965987438139494e-04  1.5115842982879307e-03  3.5550750907391586e-04  6.1662266515873163e-04  1.5447278527724120e-03  4.3809349436148092e-04  1.2268848530451568e-03  4.4896933733515527e-04  2.4207510161121314e-04  1.7969614174074518e-03  1.4241690455560161e-03  2.1452196783754720e-03  1.0240753365011797e-03  1.0189585611126478e-03  6.5984441727419364e-04  1.4606921617819763e-03  2.9987283273505299e-03  1.6347542374353502e-03  9.0658907368382842e-04  2.8917679478746333e-03  4.9828765499329358e-04  2.5013134347086612e-03  6.1622423959011984e-04  8.4711337073861725e-04  2.1954603107288417e-03  2.3857090990728864e-03  2.6787711804499071e-03  2.8092918244689686e-03  2.7430070410081782e-03  2.4778596778946139e-03  1.6456404208423784e-03  7.3896163512814160e-04  1.6831765591081415e-03  1.4225684454172566e-03  1.6923540750051432e-03  2.4518500585809459e-03  1.8933376947164065e-03  7.8954245852816852e-04  2.6275112355050590e-04  5.3165053810638892e-04  8.0258304777931495e-04  7.5727700055427786e-04  2.9203402962304305e-04  6.2469725000886556e-05  1.4798252999665759e-05  7.5316802696586847e-05  3.8561160269031532e-05  2.0865994410830448e-05  9.3381988423161504e-06  5.1805264977377687e-06  1.2739215797107231e-06  4.4338118313906211e-06  7.5250011216385342e-06  1.5997657493188353e-06  2.4202377726432490e-06  1.1507832498713444e-05  4.0499914929058154e-05  5.2808305142849917e-06  9.9517547487657423e-06  6.6548886400926094e-06  1.4887418658120012e-05  3.7653051562145889e-06  1.8035193087857805e-05  1.2418998192152748e-05  1.6251607927297777e-05  2.6694601452124979e-06  6.3057742095880482e-06  4.2290556710752984e-06  5.7518241168337798e-06  1.3031424185024428e-05  9.2846319953373395e-06  1.6786989832558967e-05  1.7075910703245050e-05  1.5191221965870191e-05  5.6725583751479572e-06  3.3917818937787330e-06  1.4809623665321827e-06  8.0511119098785044e-07  1.0450485440751206e-07  3.4284645668928569e-06  2.4843147974231390e-06  3.2546763282652243e-06  2.3813169541049460e-06  1.7756892513425927e-06  1.3514146828584952e-06  8.2302367000384108e-07  6.4159743812764283e-07  1.0252310535624098e-22  -1.6821200787592636e-20  3.4228857850289213e-04  5.4960605835334539e-04  8.3733229468882368e-04  1.4476747132750401e-04  4.9434352372244113e-04  5.3296931100564333e-04  4.9688651382159821e-04  1.2010563295090807e-03  3.7364777955256498e-04  1.6423970640697370e-03  9.3164677134276164e-04  1.9361986777542421e-04  1.2758659749702050e-03  1.1280658873125805e-03  2.6816895294439722e-04  1.2713077764006828e-03  9.6962101378701682e-04  1.1237980589858482e-03  1.1503937665486787e-03  7.6388198536845350e-04  2.0987708447407229e-03  1.1616194707367293e-03  1.9763730133746139e-03  1.2326388631279813e-03  2.6898690626440220e-03  2.3939102336496734e-03  3.1719200101887951e-03  2.3665901308433488e-03  1.7080358204889176e-03  1.7266546313186449e-03  3.1804179915957283e-03  1.8612813933070774e-03  3.1977234545720432e-03  2.5668029357765539e-03  1.7454271392808183e-03  1.9973309191793127e-05  2.0756580146599948e-03  2.6060658528062825e-03  2.7800974349196906e-03  2.9815642243235050e-03  3.0498566527902295e-03  2.8836330059876006e-03  2.1374228773038571e-03  7.9619717956199473e-04  1.7975085497494050e-03  1.0671350959835151e-03  3.2204885988725831e-03  1.4894791512666231e-03  4.2832943987871621e-04  3.1215933119491048e-04  5.1723868167100073e-04  8.7974624081116901e-04  1.4467468369312733e-03  1.3108030666716857e-04  7.7887743090959368e-04  1.6712115594881799e-04  5.5531960690300349e-05  2.4868160050612832e-05  6.6525194362445603e-05  2.7767246554527124e-05  1.5317693680992191e-05  6.4096495871928990e-06  3.2366105447242245e-07  2.6882163873777951e-06  3.7861446564474310e-06  3.5485653307244266e-06  1.7498974895478078e-06  1.0537925094196291e-05  5.9679591457068928e-06  2.6739366713914659e-05  6.5937065023097279e-06  2.0873236933993514e-05  5.8249728607376915e-06  2.5924655647684746e-05  3.7850661066911363e-07  2.2049645053973230e-05  2.3529897054900747e-05  8.1141489818115970e-06  4.8199012146870256e-06  5.9952455712672923e-06  1.5612065459114826e-05  7.9025632793292653e-06  2.0076207825038231e-05  7.7825878101226811e-07  2.5531856462972723e-05  1.7334113007434550e-05  9.9347957423256191e-06  9.1796358432033036e-07  4.0889086366726949e-07  1.8388839100580516e-06  2.3216080881387333e-07  1.8415842675115821e-06  2.0022613110861134e-06  3.2703892833141745e-06  1.9124212440832190e-06  1.6995217173191062e-06  8.9600693018648131e-07  5.0502456965139566e-07  2.9851658368342556e-07  -1.6570999221889016e-23  -7.7123175644640854e-21  3.0302381439570601e-04  5.6989413294117970e-04  4.5863327898810151e-04  5.9403880640308371e-04  2.0014776146231529e-04  5.8428549375925465e-04  1.0543717040715711e-03  1.3997276542238926e-03  1.2501437398026610e-03  5.2040934006553085e-04  5.0091794262983891e-04  8.5588718666746144e-05  2.4144552299908180e-04  1.2544001847840281e-03  1.7802290267158870e-03  9.2205644747000976e-05  3.8159557950226327e-04  1.2228760716359265e-03  1.9795793690407468e-04  1.5850819947731392e-03  1.8264413793198769e-05  2.9102692904738790e-04  1.4146557189154477e-03  1.1723095076737126e-03  1.9694913312100679e-03  5.2919931115822305e-04  4.2415088591328049e-04  1.4768603589216302e-03  2.3362521426300263e-03  3.9260969223863500e-03  1.6531231140362592e-03  1.9541503677286535e-03  3.8721624890770893e-03  1.0998583215860659e-03  3.6703958986351272e-03  9.0675063721642319e-04  1.1160989088113227e-03  2.9525876665397036e-03  2.9775963266426590e-03  3.1477816983790929e-03  3.2669474912557762e-03  3.2030052361428406e-03  2.8922435259006950e-03  1.7865757555889910e-03  9.9147199102523243e-04  2.4619571946415423e-03  1.6530855727842674e-03  2.7626749447760318e-03  3.2495071281630331e-03  2.2255135458613680e-03  1.0722241837131683e-03  5.2506474343693208e-06  2.9651620406275593e-04  1.2442269106305757e-03  9.4079698866315908e-04  5.1613611433563335e-04  1.8180419205032502e-05  9.9023550260730200e-05  6.5504103422091273e-05  5.1392829481471538e-05  2.5106831248019456e-05  1.0800459731883181e-05  5.5614522979143273e-06  1.7897482176549397e-06  4.8823352567062101e-06  8.1527938576353062e-06  3.5694208150541024e-08  2.0720063056432336e-06  1.1325016867041471e-05  2.3685020510080367e-05  4.2649098151795457e-06  9.3261833429114876e-06  9.3845926077634544e-06  7.3900516893320278e-06  2.4865836567840063e-05  8.1404058648209843e-06  3.9143137301213104e-05  1.8711966345894967e-05  3.6630998070931799e-06  1.4070433610557803e-05  2.5602626663946186e-07  1.7482082288127019e-05  1.2755842012775738e-05  1.7942836895353072e-05  1.9461191949684153e-05  2.8711764347810014e-05  1.3956240430360976e-05  5.2507499449658864e-06  6.5304373012454937e-06  2.5928115423534390e-07  1.5102359811374242e-06  4.1522312545229303e-07  2.0758457088721533e-06  2.8248475297309801e-06  1.9514503299862157e-06  1.8753502539457677e-06  7.6108013497765416e-07  6.2461380581227306e-07  2.0872914495689670e-07  -1.1586795132073375e-23  -1.9221583902054351e-20  1.3893276203793355e-04  4.3026986614629737e-04  7.3207340069470200e-04  7.6106286146752748e-04  8.1483583087577725e-05  6.2068342073276245e-04  2.9643475827618261e-04  1.9384721247837965e-04  1.5858612960433479e-03  6.0492054169452897e-04  1.5687542684149260e-03  8.9873057485528299e-04  1.3450531841203197e-04  1.2684982117377142e-03  1.4094181210276520e-03  6.0311581834351599e-04  1.0106428361450961e-03  1.0189349020786451e-03  1.3361242279336294e-03  9.9529311441013562e-04  3.2684442355142583e-04  1.8366856353979331e-03  9.3929354300231044e-04  2.1340856194519806e-03  1.3805980041947292e-03  2.9849839890319350e-03  2.4901917661570880e-03  3.2324732782229499e-03  2.1569998670559107e-03  1.2780508911012045e-03  2.6485263969366806e-03  3.8151437545772631e-03  1.7126187644868163e-03  4.4729101977806626e-03  2.7848212583142305e-03  2.8743701641940813e-03  2.3662222274794207e-05  2.4999081635002050e-03  3.4405557569805248e-03  3.3758444650320114e-03  3.4897586964678846e-03  3.5508680798021892e-03  3.3543912343644644e-03  2.4668771093094869e-03  7.8507784375271550e-04  2.3795858075536260e-03  1.5915364361336175e-03  3.9543195652191202e-03  1.1208781808084336e-03  3.5722647337896546e-04  3.2455756796674775e-04  4.3057239348757995e-05  7.5925124274617880e-04  1.5025011236891573e-03  1.3283172386603249e-04  1.0930420306163237e-03  2.5048496138712045e-04  1.2721470953853646e-04  5.0986630719567756e-05  7.1617159368883720e-05  3.7570886063302484e-05  2.0828802275645082e-05  9.1652203317332282e-06  1.3455655518564256e-06  3.3721632483795434e-06  3.8342636092183197e-06  4.2899915943773127e-06  6.0175076895945564e-07  9.7135868746983118e-06  6.3429841184263721e-06  6.1964882008676771e-06  7.5397169538493801e-06  1.9933585398452759e-05  1.4500022495573009e-05  1.6155069237869267e-06  3.3260224095857441e-05  3.6055600142304114e-06  4.3454231504790491e-05  1.4564041823534128e-05  1.8351943836521496e-05  1.1700430552526779e-05  6.3374692782517115e-06  2.1325435792596894e-05  1.4888956435608706e-05  1.1707989480542095e-05  3.7408804879871247e-05  2.5575588014792628e-05  6.5516943155865128e-06  4.9988973901505319e-06  6.5512353460093031e-06  7.3858709676634247e-07  3.0189483104368298e-06  1.2881266705761132e-06  7.5332701843397661e-07  2.4279233447464127e-06  1.4102134027596695e-06  1.0987765525982753e-06  7.6531685941243153e-07  1.7628398713422897e-07  2.4804665924808937e-23  -7.2564056281377342e-21  3.4626527239505167e-04  5.3779266366922184e-04  6.1696716193419127e-04  5.3047514324550279e-04  8.7428633092626626e-04  7.7994393322998451e-05  4.8232768391487461e-04  9.3761468659101627e-04  1.3854083102627745e-03  1.5921042982888578e-03  6.7660085869225041e-04  5.3911626949475786e-04  3.8508004788824409e-04  3.5525593831824554e-04  1.4903797101516842e-03  1.9215058627650955e-03  2.59