<?xml version="1.0"?>
<VTKFile type="UnstructuredGrid"  version="0.1"  >
<UnstructuredGrid>
<Piece  NumberOfPoints="10201" NumberOfCells="20000">
<Points>
<DataArray  type="Float64"  NumberOfComponents="3"  format="ascii">0 0 0  0.01 0 0  0.02 0 0  0.03 0 0  0.04 0 0  0.05 0 0  0.06 0 0  0.07000000000000001 0 0  0.08 0 0  0.09 0 0  0.1 0 0  0.11 0 0  0.12 0 0  0.13 0 0  0.14 0 0  0.15 0 0  0.16 0 0  0.17 0 0  0.18 0 0  0.19 0 0  0.2 0 0  0.21 0 0  0.22 0 0  0.23 0 0  0.24 0 0  0.25 0 0  0.26 0 0  0.27 0 0  0.28 0 0  0.29 0 0  0.3 0 0  0.31 0 0  0.32 0 0  0.33 0 0  0.34 0 0  0.35 0 0  0.36 0 0  0.37 0 0  0.38 0 0  0.39 0 0  0.4 0 0  0.41 0 0  0.42 0 0  0.43 0 0  0.44 0 0  0.45 0 0  0.46 0 0  0.47 0 0  0.48 0 0  0.49 0 0  0.5 0 0  0.51 0 0  0.52 0 0  0.53 0 0  0.54 0 0  0.55 0 0  0.5600000000000001 0 0  0.57 0 0  0.58 0 0  0.59 0 0  0.6 0 0  0.61 0 0  0.62 0 0  0.63 0 0  0.64 0 0  0.65 0 0  0.66 0 0  0.67 0 0  0.68 0 0  0.6899999999999999 0 0  0.7 0 0  0.71 0 0  0.72 0 0  0.73 0 0  0.74 0 0  0.75 0 0  0.76 0 0  0.77 0 0  0.78 0 0  0.79 0 0  0.8 0 0  0.8100000000000001 0 0  0.82 0 0  0.83 0 0  0.84 0 0  0.85 0 0  0.86 0 0  0.87 0 0  0.88 0 0  0.89 0 0  0.9 0 0  0.91 0 0  0.92 0 0  0.93 0 0  0.9399999999999999 0 0  0.95 0 0  0.96 0 0  0.97 0 0  0.98 0 0  0.99 0 0  1 0 0  0 0.01 0  0.01 0.01 0  0.02 0.01 0  0.03 0.01 0  0.04 0.01 0  0.05 0.01 0  0.06 0.01 0  0.07000000000000001 0.01 0  0.08 0.01 0  0.09 0.01 0  0.1 0.01 0  0.11 0.01 0  0.12 0.01 0  0.13 0.01 0  0.14 0.01 0  0.15 0.01 0  0.16 0.01 0  0.17 0.01 0  0.18 0.01 0  0.19 0.01 0  0.2 0.01 0  0.21 0.01 0  0.22 0.01 0  0.23 0.01 0  0.24 0.01 0  0.25 0.01 0  0.26 0.01 0  0.27 0.01 0  0.28 0.01 0  0.29 0.01 0  0.3 0.01 0  0.31 0.01 0  0.32 0.01 0  0.33 0.01 0  0.34 0.01 0  0.35 0.01 0  0.36 0.01 0  0.37 0.01 0  0.38 0.01 0  0.39 0.01 0  0.4 0.01 0  0.41 0.01 0  0.42 0.01 0  0.43 0.01 0  0.44 0.01 0  0.45 0.01 0  0.46 0.01 0  0.47 0.01 0  0.48 0.01 0  0.49 0.01 0  0.5 0.01 0  0.51 0.01 0  0.52 0.01 0  0.53 0.01 0  0.54 0.01 0  0.55 0.01 0  0.5600000000000001 0.01 0  0.57 0.01 0  0.58 0.01 0  0.59 0.01 0  0.6 0.01 0  0.61 0.01 0  0.62 0.01 0  0.63 0.01 0  0.64 0.01 0  0.65 0.01 0  0.66 0.01 0  0.67 0.01 0  0.68 0.01 0  0.6899999999999999 0.01 0  0.7 0.01 0  0.71 0.01 0  0.72 0.01 0  0.73 0.01 0  0.74 0.01 0  0.75 0.01 0  0.76 0.01 0  0.77 0.01 0  0.78 0.01 0  0.79 0.01 0  0.8 0.01 0  0.8100000000000001 0.01 0  0.82 0.01 0  0.83 0.01 0  0.84 0.01 0  0.85 0.01 0  0.86 0.01 0  0.87 0.01 0  0.88 0.01 0  0.89 0.01 0  0.9 0.01 0  0.91 0.01 0  0.92 0.01 0  0.93 0.01 0  0.9399999999999999 0.01 0  0.95 0.01 0  0.96 0.01 0  0.97 0.01 0  0.98 0.01 0  0.99 0.01 0  1 0.01 0  0 0.02 0  0.01 0.02 0  0.02 0.02 0  0.03 0.02 0  0.04 0.02 0  0.05 0.02 0  0.06 0.02 0  0.07000000000000001 0.02 0  0.08 0.02 0  0.09 0.02 0  0.1 0.02 0  0.11 0.02 0  0.12 0.02 0  0.13 0.02 0  0.14 0.02 0  0.15 0.02 0  0.16 0.02 0  0.17 0.02 0  0.18 0.02 0  0.19 0.02 0  0.2 0.02 0  0.21 0.02 0  0.22 0.02 0  0.23 0.02 0  0.24 0.02 0  0.25 0.02 0  0.26 0.02 0  0.27 0.02 0  0.28 0.02 0  0.29 0.02 0  0.3 0.02 0  0.31 0.02 0  0.32 0.02 0  0.33 0.02 0  0.34 0.02 0  0.35 0.02 0  0.36 0.02 0  0.37 0.02 0  0.38 0.02 0  0.39 0.02 0  0.4 0.02 0  0.41 0.02 0  0.42 0.02 0  0.43 0.02 0  0.44 0.02 0  0.45 0.02 0  0.46 0.02 0  0.47 0.02 0  0.48 0.02 0  0.49 0.02 0  0.5 0.02 0  0.51 0.02 0  0.52 0.02 0  0.53 0.02 0  0.54 0.02 0  0.55 0.02 0  0.5600000000000001 0.02 0  0.57 0.02 0  0.58 0.02 0  0.59 0.02 0  0.6 0.02 0  0.61 0.02 0  0.62 0.02 0  0.63 0.02 0  0.64 0.02 0  0.65 0.02 0  0.66 0.02 0  0.67 0.02 0  0.68 0.02 0  0.6899999999999999 0.02 0  0.7 0.02 0  0.71 0.02 0  0.72 0.02 0  0.73 0.02 0  0.74 0.02 0  0.75 0.02 0  0.76 0.02 0  0.77 0.02 0  0.78 0.02 0  0.79 0.02 0  0.8 0.02 0  0.8100000000000001 0.02 0  0.82 0.02 0  0.83 0.02 0  0.84 0.02 0  0.85 0.02 0  0.86 0.02 0  0.87 0.02 0  0.88 0.02 0  0.89 0.02 0  0.9 0.02 0  0.91 0.02 0  0.92 0.02 0  0.93 0.02 0  0.9399999999999999 0.02 0  0.95 0.02 0  0.96 0.02 0  0.97 0.02 0  0.98 0.02 0  0.99 0.02 0  1 0.02 0  0 0.03 0  0.01 0.03 0  0.02 0.03 0  0.03 0.03 0  0.04 0.03 0  0.05 0.03 0  0.06 0.03 0  0.07000000000000001 0.03 0  0.08 0.03 0  0.09 0.03 0  0.1 0.03 0  0.11 0.03 0  0.12 0.03 0  0.13 0.03 0  0.14 0.03 0  0.15 0.03 0  0.16 0.03 0  0.17 0.03 0  0.18 0.03 0  0.19 0.03 0  0.2 0.03 0  0.21 0.03 0  0.22 0.03 0  0.23 0.03 0  0.24 0.03 0  0.25 0.03 0  0.26 0.03 0  0.27 0.03 0  0.28 0.03 0  0.29 0.03 0  0.3 0.03 0  0.31 0.03 0  0.32 0.03 0  0.33 0.03 0  0.34 0.03 0  0.35 0.03 0  0.36 0.03 0  0.37 0.03 0  0.38 0.03 0  0.39 0.03 0  0.4 0.03 0  0.41 0.03 0  0.42 0.03 0  0.43 0.03 0  0.44 0.03 0  0.45 0.03 0  0.46 0.03 0  0.47 0.03 0  0.48 0.03 0  0.49 0.03 0  0.5 0.03 0  0.51 0.03 0  0.52 0.03 0  0.53 0.03 0  0.54 0.03 0  0.55 0.03 0  0.5600000000000001 0.03 0  0.57 0.03 0  0.58 0.03 0  0.59 0.03 0  0.6 0.03 0  0.61 0.03 0  0.62 0.03 0  0.63 0.03 0  0.64 0.03 0  0.65 0.03 0  0.66 0.03 0  0.67 0.03 0  0.68 0.03 0  0.6899999999999999 0.03 0  0.7 0.03 0  0.71 0.03 0  0.72 0.03 0  0.73 0.03 0  0.74 0.03 0  0.75 0.03 0  0.76 0.03 0  0.77 0.03 0  0.78 0.03 0  0.79 0.03 0  0.8 0.03 0  0.8100000000000001 0.03 0  0.82 0.03 0  0.83 0.03 0  0.84 0.03 0  0.85 0.03 0  0.86 0.03 0  0.87 0.03 0  0.88 0.03 0  0.89 0.03 0  0.9 0.03 0  0.91 0.03 0  0.92 0.03 0  0.93 0.03 0  0.9399999999999999 0.03 0  0.95 0.03 0  0.96 0.03 0  0.97 0.03 0  0.98 0.03 0  0.99 0.03 0  1 0.03 0  0 0.04 0  0.01 0.04 0  0.02 0.04 0  0.03 0.04 0  0.04 0.04 0  0.05 0.04 0  0.06 0.04 0  0.07000000000000001 0.04 0  0.08 0.04 0  0.09 0.04 0  0.1 0.04 0  0.11 0.04 0  0.12 0.04 0  0.13 0.04 0  0.14 0.04 0  0.15 0.04 0  0.16 0.04 0  0.17 0.04 0  0.18 0.04 0  0.19 0.04 0  0.2 0.04 0  0.21 0.04 0  0.22 0.04 0  0.23 0.04 0  0.24 0.04 0  0.25 0.04 0  0.26 0.04 0  0.27 0.04 0  0.28 0.04 0  0.29 0.04 0  0.3 0.04 0  0.31 0.04 0  0.32 0.04 0  0.33 0.04 0  0.34 0.04 0  0.35 0.04 0  0.36 0.04 0  0.37 0.04 0  0.38 0.04 0  0.39 0.04 0  0.4 0.04 0  0.41 0.04 0  0.42 0.04 0  0.43 0.04 0  0.44 0.04 0  0.45 0.04 0  0.46 0.04 0  0.47 0.04 0  0.48 0.04 0  0.49 0.04 0  0.5 0.04 0  0.51 0.04 0  0.52 0.04 0  0.53 0.04 0  0.54 0.04 0  0.55 0.04 0  0.5600000000000001 0.04 0  0.57 0.04 0  0.58 0.04 0  0.59 0.04 0  0.6 0.04 0  0.61 0.04 0  0.62 0.04 0  0.63 0.04 0  0.64 0.04 0  0.65 0.04 0  0.66 0.04 0  0.67 0.04 0  0.68 0.04 0  0.6899999999999999 0.04 0  0.7 0.04 0  0.71 0.04 0  0.72 0.04 0  0.73 0.04 0  0.74 0.04 0  0.75 0.04 0  0.76 0.04 0  0.77 0.04 0  0.78 0.04 0  0.79 0.04 0  0.8 0.04 0  0.8100000000000001 0.04 0  0.82 0.04 0  0.83 0.04 0  0.84 0.04 0  0.85 0.04 0  0.86 0.04 0  0.87 0.04 0  0.88 0.04 0  0.89 0.04 0  0.9 0.04 0  0.91 0.04 0  0.92 0.04 0  0.93 0.04 0  0.9399999999999999 0.04 0  0.95 0.04 0  0.96 0.04 0  0.97 0.04 0  0.98 0.04 0  0.99 0.04 0  1 0.04 0  0 0.05 0  0.01 0.05 0  0.02 0.05 0  0.03 0.05 0  0.04 0.05 0  0.05 0.05 0  0.06 0.05 0  0.07000000000000001 0.05 0  0.08 0.05 0  0.09 0.05 0  0.1 0.05 0  0.11 0.05 0  0.12 0.05 0  0.13 0.05 0  0.14 0.05 0  0.15 0.05 0  0.16 0.05 0  0.17 0.05 0  0.18 0.05 0  0.19 0.05 0  0.2 0.05 0  0.21 0.05 0  0.22 0.05 0  0.23 0.05 0  0.24 0.05 0  0.25 0.05 0  0.26 0.05 0  0.27 0.05 0  0.28 0.05 0  0.29 0.05 0  0.3 0.05 0  0.31 0.05 0  0.32 0.05 0  0.33 0.05 0  0.34 0.05 0  0.35 0.05 0  0.36 0.05 0  0.37 0.05 0  0.38 0.05 0  0.39 0.05 0  0.4 0.05 0  0.41 0.05 0  0.42 0.05 0  0.43 0.05 0  0.44 0.05 0  0.45 0.05 0  0.46 0.05 0  0.47 0.05 0  0.48 0.05 0  0.49 0.05 0  0.5 0.05 0  0.51 0.05 0  0.52 0.05 0  0.53 0.05 0  0.54 0.05 0  0.55 0.05 0  0.5600000000000001 0.05 0  0.57 0.05 0  0.58 0.05 0  0.59 0.05 0  0.6 0.05 0  0.61 0.05 0  0.62 0.05 0  0.63 0.05 0  0.64 0.05 0  0.65 0.05 0  0.66 0.05 0  0.67 0.05 0  0.68 0.05 0  0.6899999999999999 0.05 0  0.7 0.05 0  0.71 0.05 0  0.72 0.05 0  0.73 0.05 0  0.74 0.05 0  0.75 0.05 0  0.76 0.05 0  0.77 0.05 0  0.78 0.05 0  0.79 0.05 0  0.8 0.05 0  0.8100000000000001 0.05 0  0.82 0.05 0  0.83 0.05 0  0.84 0.05 0  0.85 0.05 0  0.86 0.05 0  0.87 0.05 0  0.88 0.05 0  0.89 0.05 0  0.9 0.05 0  0.91 0.05 0  0.92 0.05 0  0.93 0.05 0  0.9399999999999999 0.05 0  0.95 0.05 0  0.96 0.05 0  0.97 0.05 0  0.98 0.05 0  0.99 0.05 0  1 0.05 0  0 0.06 0  0.01 0.06 0  0.02 0.06 0  0.03 0.06 0  0.04 0.06 0  0.05 0.06 0  0.06 0.06 0  0.07000000000000001 0.06 0  0.08 0.06 0  0.09 0.06 0  0.1 0.06 0  0.11 0.06 0  0.12 0.06 0  0.13 0.06 0  0.14 0.06 0  0.15 0.06 0  0.16 0.06 0  0.17 0.06 0  0.18 0.06 0  0.19 0.06 0  0.2 0.06 0  0.21 0.06 0  0.22 0.06 0  0.23 0.06 0  0.24 0.06 0  0.25 0.06 0  0.26 0.06 0  0.27 0.06 0  0.28 0.06 0  0.29 0.06 0  0.3 0.06 0  0.31 0.06 0  0.32 0.06 0  0.33 0.06 0  0.34 0.06 0  0.35 0.06 0  0.36 0.06 0  0.37 0.06 0  0.38 0.06 0  0.39 0.06 0  0.4 0.06 0  0.41 0.06 0  0.42 0.06 0  0.43 0.06 0  0.44 0.06 0  0.45 0.06 0  0.46 0.06 0  0.47 0.06 0  0.48 0.06 0  0.49 0.06 0  0.5 0.06 0  0.51 0.06 0  0.52 0.06 0  0.53 0.06 0  0.54 0.06 0  0.55 0.06 0  0.5600000000000001 0.06 0  0.57 0.06 0  0.58 0.06 0  0.59 0.06 0  0.6 0.06 0  0.61 0.06 0  0.62 0.06 0  0.63 0.06 0  0.64 0.06 0  0.65 0.06 0  0.66 0.06 0  0.67 0.06 0  0.68 0.06 0  0.6899999999999999 0.06 0  0.7 0.06 0  0.71 0.06 0  0.72 0.06 0  0.73 0.06 0  0.74 0.06 0  0.75 0.06 0  0.76 0.06 0  0.77 0.06 0  0.78 0.06 0  0.79 0.06 0  0.8 0.06 0  0.8100000000000001 0.06 0  0.82 0.06 0  0.83 0.06 0  0.84 0.06 0  0.85 0.06 0  0.86 0.06 0  0.87 0.06 0  0.88 0.06 0  0.89 0.06 0  0.9 0.06 0  0.91 0.06 0  0.92 0.06 0  0.93 0.06 0  0.9399999999999999 0.06 0  0.95 0.06 0  0.96 0.06 0  0.97 0.06 0  0.98 0.06 0  0.99 0.06 0  1 0.06 0  0 0.07000000000000001 0  0.01 0.07000000000000001 0  0.02 0.07000000000000001 0  0.03 0.07000000000000001 0  0.04 0.07000000000000001 0  0.05 0.07000000000000001 0  0.06 0.07000000000000001 0  0.07000000000000001 0.07000000000000001 0  0.08 0.07000000000000001 0  0.09 0.07000000000000001 0  0.1 0.07000000000000001 0  0.11 0.07000000000000001 0  0.12 0.07000000000000001 0  0.13 0.07000000000000001 0  0.14 0.07000000000000001 0  0.15 0.07000000000000001 0  0.16 0.07000000000000001 0  0.17 0.0700
[...]
<PointData  Scalars="u"> 
<DataArray  type="Float64"  Name="u"  format="ascii">0.0000000000000000e+00  0.0000000000000000e+00  0.0000000000000000e+00  0.0000000000000000e+00  0.0000000000000000e+00  0.0000000000000000e+00  0.0000000000000000e+00  0.0000000000000000e+00  0.0000000000000000e+00  0.0000000000000000e+00  0.0000000000000000e+00  0.0000000000000000e+00  0.0000000000000000e+00  0.0000000000000000e+00  0.0000000000000000e+00  0.0000000000000000e+00  0.0000000000000000e+00  0.0000000000000000e+00  0.0000000000000000e+00  0.0000000000000000e+00  0.0000000000000000e+00  0.0000000000000000e+00  0.0000000000000000e+00  0.0000000000000000e+00  0.0000000000000000e+00  0.0000000000000000e+00  0.0000000000000000e+00  0.0000000000000000e+00  0.0000000000000000e+00  0.0000000000000000e+00  0.0000000000000000e+00  0.0000000000000000e+00  0.0000000000000000e+00  0.0000000000000000e+00  0.0000000000000000e+00  0.0000000000000000e+00  0.0000000000000000e+00  0.0000000000000000e+00  0.0000000000000000e+00  0.0000000000000000e+00  0.0000000000000000e+00  0.0000000000000000e+00  0.0000000000000000e+00  0.0000000000000000e+00  0.0000000000000000e+00  0.0000000000000000e+00  0.0000000000000000e+00  0.0000000000000000e+00  0.0000000000000000e+00  0.0000000000000000e+00  0.0000000000000000e+00  0.0000000000000000e+00  0.0000000000000000e+00  0.0000000000000000e+00  0.0000000000000000e+00  0.0000000000000000e+00  0.0000000000000000e+00  0.0000000000000000e+00  0.0000000000000000e+00  0.0000000000000000e+00  0.0000000000000000e+00  0.0000000000000000e+00  0.0000000000000000e+00  0.0000000000000000e+00  0.0000000000000000e+00  0.0000000000000000e+00  0.0000000000000000e+00  0.0000000000000000e+00  0.0000000000000000e+00  0.0000000000000000e+00  0.0000000000000000e+00  0.0000000000000000e+00  0.0000000000000000e+00  0.0000000000000000e+00  0.0000000000000000e+00  0.0000000000000000e+00  0.0000000000000000e+00  0.0000000000000000e+00  0.0000000000000000e+00  0.0000000000000000e+00  0.0000000000000000e+00  0.0000000000000000e+00  0.0000000000000000e+00  0.0000000000000000e+00  0.0000000000000000e+00  0.0000000000000000e+00  0.0000000000000000e+00  0.0000000000000000e+00  0.0000000000000000e+00  0.0000000000000000e+00  0.0000000000000000e+00  0.0000000000000000e+00  0.0000000000000000e+00  0.0000000000000000e+00  0.0000000000000000e+00  0.0000000000000000e+00  0.0000000000000000e+00  0.0000000000000000e+00  0.0000000000000000e+00  0.0000000000000000e+00  0.0000000000000000e+00  0.0000000000000000e+00  5.0959119861327663e-07  1.0327533868117157e-06  1.5698095147868724e-06  2.1209552727479026e-06  2.6863550184695984e-06  3.2661431757010934e-06  3.8604198840626966e-06  4.4692461261774536e-06  5.0926384481173148e-06  5.7305632671881740e-06  6.3829307656156761e-06  7.0495883750971616e-06  7.7303138654722074e-06  8.4248080607333817e-06  9.1326872173855147e-06  9.8534751138610247e-06  1.0586594915446130e-05  1.1331360896864833e-05  1.2086970124468885e-05  1.2852494221470750e-05  1.3626871362868819e-05  1.4408898670964775e-05  1.5197225207300920e-05  1.5990345781534686e-05  1.6786595821377731e-05  1.7584147568923017e-05  1.8381007886237201e-05  1.9175017965249885e-05  1.9963855242149963e-05  2.0745037812709478e-05  2.1515931630467700e-05  2.2273760742741938e-05  2.3015620778548556e-05  2.3738495846525686e-05  2.4439278929577143e-05  2.5114795776213602e-05  2.5761832187914658e-05  2.6377164489251465e-05  2.6957592846559221e-05  2.7499976975974413e-05  2.8001273658091567e-05  2.8458575360735747e-05  2.8869149169906778e-05  2.9230475148871162e-05  2.9540283192789767e-05  2.9796587426745400e-05  2.9997717212436286e-05  3.0142343885179786e-05  3.0229502437992427e-05  3.0258607500703897e-05  3.0229463124354453e-05  3.0142266067278717e-05  2.9997602480506779e-05  2.9796438096388564e-05  2.9540102225481760e-05  2.9230266052629055e-05  2.8868915885174216e-05  2.8458322137063617e-05  2.8001004927348512e-05  2.7499697227586706e-05  2.6957306509754396e-05  2.6376875826485835e-05  2.5761545202720341e-05  2.5114514137637331e-05  2.4439005914382683e-05  2.3738234299311562e-05  2.3015373089135872e-05  2.2273528839471087e-05  2.1515716987519421e-05  2.0744841469283006e-05  1.9963677831102304e-05  1.9174859748857983e-05  1.8380868796780337e-05  1.7584027252015589e-05  1.6786493680244273e-05  1.5990261020684282e-05  1.5197156874374695e-05  1.4408845695835472e-05  1.3626832593315763e-05  1.2852468455051615e-05  1.2086956136352869e-05  1.1331357463626596e-05  1.0586600834920484e-05  9.8534892212752768e-06  9.1327083980454221e-06  8.4248352596132183e-06  7.7303460940353738e-06  7.0496247157378921e-06  6.3829703740479616e-06  5.7306053731314194e-06  5.0926823545860753e-06  4.4692912076467170e-06  3.8604655837143172e-06  3.2661890016225654e-06  2.6864005363578092e-06  2.1210000758054500e-06  1.5698530244344524e-06  1.0327933553184751e-06  5.0961519466972938e-07  0.0000000000000000e+00  0.0000000000000000e+00  1.0327009621062177e-06  2.0942994704828994e-06  3.1853131122244988e-06  4.3062598389370285e-06  5.4575871170161866e-06  6.6396788836562835e-06  7.8528530695736892e-06  9.0973517620646139e-06  1.0373329958716458e-05  1.1680843334308699e-05  1.3019835011634417e-05  1.4390121329217101e-05  1.5791376615525250e-05  1.7223116999964161e-05  1.8684683315987458e-05  2.0175223181508961e-05  2.1693672376608736e-05  2.3238735678723649e-05  2.4808867360930417e-05  2.6402251609696964e-05  2.8016783173923483e-05  2.9650048616710910e-05  3.1299308603781899e-05  3.2961481726259948e-05  3.4633130418524476e-05  3.6310449591143723e-05  3.7989258651454575e-05  3.9664997625930960e-05  4.1332728124908982e-05  4.2987139896624552e-05  4.4622563698769209e-05  4.6232991167148675e-05  4.7812102277933988e-05  4.9353300878786817e-05  5.0849758602742649e-05  5.2294467276438549e-05  5.3680299693293952e-05  5.5000078347011138e-05  5.6246651419056917e-05  5.7412974996486472e-05  5.8492200177107470e-05  5.9477763414073331e-05  6.0363478179026206e-05  6.1143625800768309e-05  6.1813043182400200e-05  6.2367205029673043e-05  6.2802298248412444e-05  6.3115286296004612e-05  6.3303961501503267e-05  6.3366983694703496e-05  6.3303903893607424e-05  6.3115172273322731e-05  6.2802130153548894e-05  6.2366986269971758e-05  6.1812778108805738e-05  6.1143319556947724e-05  6.0363136528774198e-05  5.9477392555784984e-05  5.8491806554271958e-05  5.7412565112667780e-05  5.6246231664929356e-05  5.4999654845631876e-05  5.3679878168273423e-05  5.2294052945939331e-05  5.0849356100644524e-05  4.9352914202846472e-05  4.7811734763495103e-05  4.6232645483988688e-05  4.4622241867944219e-05  4.2986843323785640e-05  4.1332457646408993e-05  3.9664753564117239e-05  3.7989040875765343e-05  3.6310257582017967e-05  3.4632963331552864e-05  3.2961338454493840e-05  3.1299187836556211e-05  2.9649948893855231e-05  2.8016702934533132e-05  2.6402189235093133e-05  2.4808821211654563e-05  2.3238704125672390e-05  2.1693653826582170e-05  2.0175216097576986e-05  1.8684686233144669e-05  1.7223128536602417e-05  1.5791395481262303e-05  1.4390146329603217e-05  1.3019865050249442e-05  1.1680877412711351e-05  1.0373367174673743e-05  9.0973913064353147e-06  7.8528942221208422e-06  6.6397210077392588e-06  5.4576296506285627e-06  4.3063022702694866e-06  3.1853552223773977e-06  2.0943469499859709e-06  1.0327755183103323e-06  0.0000000000000000e+00  0.0000000000000000e+00  1.5697640397681442e-06  3.1853293820154942e-06  4.8476125887948925e-06  6.5575884181248084e-06  8.3160920332374133e-06  1.0123894902836969e-05  1.1981672486048728e-05  1.3889991372542969e-05  1.5849292045260462e-05  1.7859869324658455e-05  1.9921851001777288e-05  2.2035174653155123e-05  2.4199562619328343e-05  2.6414495159242579e-05  2.8679181831988415e-05  3.0992531204844412e-05  3.3353119043648078e-05  3.5759155208553239e-05  3.8208449555782497e-05  4.0698377234279217e-05  4.3225843864769153e-05  4.5787251197004922e-05  4.8378463957080894e-05  5.0994778718550201e-05  5.3630895754752212e-05  5.6280894951238900e-05  5.8938216970045999e-05  6.1595650955140264e-05  6.4245330142230020e-05  6.6878736776745576e-05  6.9486717741587225e-05  7.2059512240222633e-05  7.4586792761932821e-05  7.7057720364796179e-05  7.9461015042922654e-05  8.1785041593763431e-05  8.4017910970535529e-05  8.6147596600680019e-05  8.8162064586521150e-05  9.0049416098253297e-05  9.1798039648237443e-05  9.3396770330269609e-05  9.4835052554519882e-05  9.6103102345054616e-05  9.7192064930434700e-05  9.8094163180968222e-05  9.8802832455724125e-05  9.9312837633567556e-05  9.9620368519045505e-05  9.9723110424808587e-05  9.9620287512777704e-05  9.9312677388423227e-05  9.8802596438182162e-05  9.8093856424062782e-05  9.7191693844904259e-05  9.6102674485097923e-05  9.4834576351277705e-05  9.3396254807326184e-05  9.1797494133463383e-05  9.0048849945451723e-05  8.8161486918510257e-05  8.6147016083256607e-05  8.4017335623897318e-05  8.1784478645372972e-05  7.9460470822982111e-05  7.7057200243300380e-05  7.4586301124236529e-05  7.2059052496672383e-05  6.9486292365849106e-05  6.6878347366968922e-05  6.4244977499125348e-05  6.1595335171428110e-05  5.8937937526090068e-05  5.6280650812558301e-05  5.3630685467704123e-05  5.0994600501378224e-05  4.8378315784215600e-05  4.5787130875201139e-05  4.3225749100319617e-05  4.0698305690926764e-05  3.8208398903506958e-05  3.5759123163561809e-05  3.3353103400228237e-05  3.0992529859810559e-05  2.8679192802566915e-05  2.6414516595235161e-05  2.4199592810425274e-05  2.2035212032173410e-05  1.9921894144593549e-05  1.7859916947500168e-05  1.5849342999955631e-05  1.3890044640251943e-05  1.1981727169922046e-05  1.0123950220440387e-05  8.3161473431144462e-06  6.5576438597395475e-06  4.8476728628146994e-06  3.1853880526384052e-06  1.5698629587487429e-06  0.0000000000000000e+00  0.0000000000000000e+00  2.1209188989696753e-06  4.3062586095674789e-06  6.5576194062155928e-06  8.8763899160618432e-06  1.1264042700002326e-05  1.3721872954493515e-05  1.6251076344411090e-05  1.8852714404168518e-05  2.1527689187783566e-05  2.4276716022847970e-05  2.7100293099799556e-05  2.9998668117068543e-05  3.2971801952119247e-05  3.6019329319203711e-05  3.9140516424275631e-05  4.2334215693407130e-05  4.5598817732030092e-05  4.8932200770037190e-05  5.2331677963489619e-05  5.5793943058141912e-05  5.9315015073861671e-05  6.2890182841346097e-05  6.6513950412130823e-05  7.0179984566446689e-05  7.3881065856524288e-05  7.7609044838786948e-05  8.1354805358130358e-05  8.5108236940115340e-05  8.8858218508359148e-05  9.2592615759565540e-05  9.6298294579063188e-05  9.9961152846613012e-05  1.0356617284785166e-04  1.0709749625131084e-04  1.1053852322206269e-04  1.1387203670972843e-04  1.1708035226939300e-04  1.2014549295505126e-04  1.2304938788575671e-04  1.2577409205405570e-04  1.2830202386746107e-04  1.3061621584207797e-04  1.3270057286522325e-04  1.3454013158145214e-04  1.3612131380262915e-04  1.3743216646195159e-04  1.3846258057607935e-04  1.3920448198227392e-04  1.3965198728943941e-04  1.3980151950746927e-04  1.3965187915504162e-04  1.3920426822424493e-04  1.3846226611284189e-04  1.3743175841995789e-04  1.3612082123279362e-04  1.3453956510906060e-04  1.3269994429410283e-04  1.3061553773534803e-04  1.2830130912700312e-04  1.2577335351915804e-04  1.2304863796828427e-04  1.2014474332454538e-04  1.1707961359714890e-04  1.1387131847638914e-04  1.1053783358936816e-04  1.0709684199488442e-04  1.0356555934529392e-04  9.9960584113258005e-05  9.6297773342520816e-05  9.2592143563893585e-05  8.8857795838838305e-05  8.5107863360479907e-05  8.1354479652805004e-05  7.7608765154233043e-05  7.3880829836808418e-05  7.0179789479416079e-05  6.6513793263800166e-05  6.2890060477008725e-05  5.9314924265307913e-05  5.5793880577034460e-05  5.2331640641448356e-05  4.8932185546352959e-05  4.5598821690142210e-05  4.2334236087445043e-05  3.9140550696975368e-05  3.6019375112515989e-05  3.2971857111743694e-05  2.9998730692069337e-05  2.7100361338330664e-05  2.4276788364909209e-05  2.1527764255797132e-05  1.8852790992131991e-05  1.6251153409073209e-05  1.3721949664179151e-05  1.1264118926626586e-05  8.8764663928318419e-06  6.5576855533403136e-06  4.3063761693886139e-06  2.1210454953841871e-06  0.0000000000000000e+00  0.0000000000000000e+00  2.6863268579375371e-06  5.4576031236667628e-06  8.3161180761567297e-06  1.1264074180703180e-05  1.4303567360378026e-05  1.7436660074514402e-05  2.0665256756833357e-05  2.3991112056111350e-05  2.7415799060539766e-05  3.0940671529619982e-05  3.4566823590339252e-05  3.8295045127746306e-05  4.2125772684130465e-05  4.6059035760615783e-05  5.0094398441953732e-05  5.4230896343376124e-05  5.8466968983098165e-05  6.2800387814297123e-05  6.7228180308860806e-05  7.1746550674114639e-05  7.6350798004800097e-05  8.1035232926483073e-05  8.5793094072306636e-05  9.0616466049798757e-05  9.5496200892956210e-05  1.0042184534832279e-04  1.0538157670061178e-04  1.1036215018701343e-04  1.1534886135924253e-04  1.2032552700421406e-04  1.2527448839825137e-04  1.3017664071669112e-04  1.3501149230927330e-04  1.3975725726672389e-04  1.4439098418755385e-04  1.4888872331748492e-04  1.5322573323463701e-04  1.5737672701712690e-04  1.6131615636318742e-04  1.6501853049021660e-04  1.6845876487680083e-04  1.7161255312267496e-04  1.7445675349151584e-04  1.7696978018859365e-04  1.7913198823402547e-04  1.8092604003896220e-04  1.8233724157419820e-04  1.8335383640694067e-04  1.8396724689572570e-04  1.8417225345920200e-04  1.8396710499901114e-04  1.8335355614611937e-04  1.8233682985961073e-04  1.8092550685952320e-04  1.7913134623385267e-04  1.7696904414708350e-04  1.7445593973973385e-04  1.7161167893057808e-04  1.6845784784556473e-04  1.6501758798041433e-04  1.6131520498420307e-04  1.5737578219653431e-04  1.5322480887919530e-04  1.4888783157062792e-04  1.4439013528190505e-04  1.3975645946466474e-04  1.3501075192160522e-04  1.3017596218591962e-04  1.2527387443306306e-04  1.2032497874965548e-04  1.1534837859144089e-04  1.1036173151802601e-04  1.0538121978545699e-04  1.0042154708504783e-04  9.5495957609955165e-05  9.0616273676131373e-05  8.5792948288494110e-05  8.1035129294573704e-05  7.6350732077599658e-05  7.1746518084416704e-05  6.7228176839972991e-05  6.2800409453675563e-05  5.8467011961024335e-05  5.4230957158739292e-05  5.0094473877146038e-05  4.6059122887461634e-05  4.2125868862576586e-05  3.8295147998931692e-05  3.4566931065385564e-05  3.0940781775359061e-05  2.7415910483403685e-05  2.3991223289906284e-05  2.0665366700606132e-05  1.7436768033564197e-05  1.4303671794754393e-05  1.1264172233943061e-05  8.3162420712649324e-06  5.4577556238319407e-06  2.6864912908771661e-06  0.0000000000000000e+00  0.0000000000000000e+00  3.2661246265296071e-06  6.6397097234398006e-06  1.0123927653578313e-05  1.3721926368555658e-05  1.7436689441064081e-05  2.1271214831033016e-05  2.5228340402219951e-05  2.9310755025968825e-05  3.3520949331526236e-05  3.7861175466690754e-05  4.2333395515273347e-05  4.6939224497732889e-05  5.1679867190709572e-05  5.6556048304301462e-05  6.1567935777427405e-05  6.6715057037965863e-05  7.1996208195701693e-05  7.7409356297188344e-05  8.2951534974412303e-05  8.8618734068243214e-05  9.4405784106877492e-05  1.0030623687224423e-04  1.0631224369451824e-04  1.1241443357513775e-04  1.1860179374718637e-04  1.2486155582911294e-04  1.3117909129856280e-04  1.3753782058578649e-04  1.4391914063404762e-04  1.5030237625441041e-04  1.5666476098275990e-04  1.6298145336189100e-04  1.6922559457805973e-04  1.7536841310541919e-04  1.8137938143914252e-04  1.8722642899978185e-04  1.9287621394834101e-04  1.9829445484603116e-04  2.0344632091392218e-04  2.0829687712324357e-04  2.1281157758176961e-04  2.1695679779187141e-04  2.2070039354656513e-04  2.2401227165976526e-04  2.2686495564151998e-04  2.2923412801029237e-04  2.3109913037192237e-04  2.3244340282011831e-04  2.3325484567860843e-04  2.3352608909325777e-04  2.3325465938884345e-04  2.3244303523207381e-04  2.3109859123413525e-04  2.2923343137662392e-04  2.2686411923445625e-04  2.2401131609367311e-04  2.2069934146235463e-04  2.1695567295741526e-04  2.1281040401196585e-04  2.0829567826564981e-04  2.0344511893599478e-04  1.9829327005127552e-04  1.9287506433365460e-04  1.8722532996047353e-04  1.8137834561300905e-04  1.7536745034358941e-04  1.6922471202451071e-04  1.6298065562060356e-04  1.5666405034567177e-04  1.5030175297691661e-04  1.4391860322988690e-04  1.3753736613018237e-04  1.3117871572452137e-04  1.2486125420667048e-04  1.1860156053752233e-04  1.1241426285638661e-04  1.0631212935621684e-04  1.0030617277836954e-04  9.4405764228541739e-05  8.8618752588079391e-05  8.2951586365387369e-05  7.7409435378883868e-05  7.1996310171267271e-05  6.6715177514833739e-05  6.1568070774779731e-05  5.6556194249950535e-05  5.1680020909821393e-05  4.6939383195460591e-05  4.2333556755109148e-05  3.7861337146440800e-05  3.3521109662944659e-05  2.9310912535859680e-05  2.5228493830830401e-05  2.1271362403611938e-05  1.7436833302475380e-05  1.3722067982720903e-05  1.0124109425287458e-05  6.6399101321773201e-06  3.2663349081192021e-06  0.0000000000000000e+00  0.0000000000000000e+00  3.8604116735121464e-06  7.8528994546162924e-06  1.1981728613311972e-05  1.6251129039335936e-05  2.0665325259603694e-05  2.5228371320974615e-05  2.9944356581049467e-05  3.4817158045947886e-05  3.9850479711405330e-05  4.5047781159824357e-05  5.0412218373633125e-05  5.5946574243484519e-05  6.1653180145571475e-05  6.7533828451987938e-05  7.3589675360271006e-05  7.9821133610655140e-05  8.6227754807723052e-05  9.2808101247297259e-05  9.9559607392340769e-05  1.0647843145141658e-04  1.1355929789762287e-04  1.2079533223226016e-04  1.2817788985103253e-04  1.3569638151412651e-04  1.4333809865156008e-04  1.5108804254538165e-04  1.5892876230213086e-04  1.6684020743706706e-04  1.7479960180042775e-04  1.8278134643237906e-04  1.9075695966482245e-04  1.9869506334147923e-04  2.0656142431190326e-04  2.1431906015585787e-04  2.2192841763970763e-04  2.2934763110523879e-04  2.3653286630025212e-04  2.4343875261897982e-04  2.5001890363302200e-04  2.5622652196074944e-04  2.6201508033675021e-04  2.6733906620550924e-04  2.7215477256640092e-04  2.7642111362265615e-04  2.8010044014129107e-04  2.8315932688671578e-04  2.8556930323820251e-04  2.8730749842404676e-04  2.8835717487792290e-04  2.8870812692470131e-04  2.8835692728881667e-04  2.8730701039507997e-04  2.8556858870688743e-04  2.8315840588599543e-04  2.8009933782661452e-04  2.7641985909594268e-04  2.7215339757170610e-04  2.6733760379400289e-04  2.6201356358063785e-04  2.5622498278304791e-04  2.5001737181326291e-04  2.4343725499519403e-04  2.3653142620473251e-04  2.2934626801883335e-04  2.2192714704759417e-04  2.1431789359701146e-04  2.0656036956918027e-04  1.9869412474999963e-04  1.9075613848966853e-04  1.8278064130928829e-04  1.7479900917239400e-04  1.6683972200253188e-04  1.5892837743593005e-04  1.5108775068212543e-04  1.4333789162756795e-04  1.3569625086194126e-04  1.2817782704543495e-04  1.2079532888979113e-04  1.1355934593272833e-04  1.0647852319334716e-04  9.9559735667824876e-05  9.2808259433866205e-05  8.6227936862675355e-05  7.9821334080256616e-05  7.3589889373374415e-05  6.7534051701763971e-05  6.1653408862573220e-05  5.5946805162717521e-05  5.0412448698356273e-05  4.5048008526508316e-05  3.9850702150594584e-05  3.4817373837401704e-05  2.9944564344841654e-05  2.5228572674061546e-05  2.0665510467456272e-05  1.6251349629110393e-05  1.1981963403533222e-05  7.8531586098946994e-06  3.8606773858131726e-06  0.0000000000000000e+00  0.0000000000000000e+00  4.4692491338257383e-06  9.0974156369735669e-06  1.3890067930391348e-05  1.8852790772752863e-05  2.3991190277916993e-05  2.9310828270949422e-05  3.4817192946167428e-05  4.0515731653298393e-05  4.6411691218390834e-05  5.2510103721523575e-05  5.8815708570111160e-05  6.5332869333870695e-05  7.2065480223739567e-05  7.9016859867593513e-05  8.6189631913436519e-05  9.3585591632344860e-05  1.0120555780943375e-04  1.0904920941805904e-04  1.1711490684419966e-04  1.2539949778970325e-04  1.3389810845076966e-04  1