<?xml version="1.0"?>
<VTKFile type="UnstructuredGrid"  version="0.1"  >
<UnstructuredGrid>
<Piece  NumberOfPoints="10201" NumberOfCells="20000">
<Points>
<DataArray  type="Float64"  NumberOfComponents="3"  format="ascii">0 0 0  0.01 0 0  0.02 0 0  0.03 0 0  0.04 0 0  0.05 0 0  0.06 0 0  0.07000000000000001 0 0  0.08 0 0  0.09 0 0  0.1 0 0  0.11 0 0  0.12 0 0  0.13 0 0  0.14 0 0  0.15 0 0  0.16 0 0  0.17 0 0  0.18 0 0  0.19 0 0  0.2 0 0  0.21 0 0  0.22 0 0  0.23 0 0  0.24 0 0  0.25 0 0  0.26 0 0  0.27 0 0  0.28 0 0  0.29 0 0  0.3 0 0  0.31 0 0  0.32 0 0  0.33 0 0  0.34 0 0  0.35 0 0  0.36 0 0  0.37 0 0  0.38 0 0  0.39 0 0  0.4 0 0  0.41 0 0  0.42 0 0  0.43 0 0  0.44 0 0  0.45 0 0  0.46 0 0  0.47 0 0  0.48 0 0  0.49 0 0  0.5 0 0  0.51 0 0  0.52 0 0  0.53 0 0  0.54 0 0  0.55 0 0  0.5600000000000001 0 0  0.57 0 0  0.58 0 0  0.59 0 0  0.6 0 0  0.61 0 0  0.62 0 0  0.63 0 0  0.64 0 0  0.65 0 0  0.66 0 0  0.67 0 0  0.68 0 0  0.6899999999999999 0 0  0.7 0 0  0.71 0 0  0.72 0 0  0.73 0 0  0.74 0 0  0.75 0 0  0.76 0 0  0.77 0 0  0.78 0 0  0.79 0 0  0.8 0 0  0.8100000000000001 0 0  0.82 0 0  0.83 0 0  0.84 0 0  0.85 0 0  0.86 0 0  0.87 0 0  0.88 0 0  0.89 0 0  0.9 0 0  0.91 0 0  0.92 0 0  0.93 0 0  0.9399999999999999 0 0  0.95 0 0  0.96 0 0  0.97 0 0  0.98 0 0  0.99 0 0  1 0 0  0 0.01 0  0.01 0.01 0  0.02 0.01 0  0.03 0.01 0  0.04 0.01 0  0.05 0.01 0  0.06 0.01 0  0.07000000000000001 0.01 0  0.08 0.01 0  0.09 0.01 0  0.1 0.01 0  0.11 0.01 0  0.12 0.01 0  0.13 0.01 0  0.14 0.01 0  0.15 0.01 0  0.16 0.01 0  0.17 0.01 0  0.18 0.01 0  0.19 0.01 0  0.2 0.01 0  0.21 0.01 0  0.22 0.01 0  0.23 0.01 0  0.24 0.01 0  0.25 0.01 0  0.26 0.01 0  0.27 0.01 0  0.28 0.01 0  0.29 0.01 0  0.3 0.01 0  0.31 0.01 0  0.32 0.01 0  0.33 0.01 0  0.34 0.01 0  0.35 0.01 0  0.36 0.01 0  0.37 0.01 0  0.38 0.01 0  0.39 0.01 0  0.4 0.01 0  0.41 0.01 0  0.42 0.01 0  0.43 0.01 0  0.44 0.01 0  0.45 0.01 0  0.46 0.01 0  0.47 0.01 0  0.48 0.01 0  0.49 0.01 0  0.5 0.01 0  0.51 0.01 0  0.52 0.01 0  0.53 0.01 0  0.54 0.01 0  0.55 0.01 0  0.5600000000000001 0.01 0  0.57 0.01 0  0.58 0.01 0  0.59 0.01 0  0.6 0.01 0  0.61 0.01 0  0.62 0.01 0  0.63 0.01 0  0.64 0.01 0  0.65 0.01 0  0.66 0.01 0  0.67 0.01 0  0.68 0.01 0  0.6899999999999999 0.01 0  0.7 0.01 0  0.71 0.01 0  0.72 0.01 0  0.73 0.01 0  0.74 0.01 0  0.75 0.01 0  0.76 0.01 0  0.77 0.01 0  0.78 0.01 0  0.79 0.01 0  0.8 0.01 0  0.8100000000000001 0.01 0  0.82 0.01 0  0.83 0.01 0  0.84 0.01 0  0.85 0.01 0  0.86 0.01 0  0.87 0.01 0  0.88 0.01 0  0.89 0.01 0  0.9 0.01 0  0.91 0.01 0  0.92 0.01 0  0.93 0.01 0  0.9399999999999999 0.01 0  0.95 0.01 0  0.96 0.01 0  0.97 0.01 0  0.98 0.01 0  0.99 0.01 0  1 0.01 0  0 0.02 0  0.01 0.02 0  0.02 0.02 0  0.03 0.02 0  0.04 0.02 0  0.05 0.02 0  0.06 0.02 0  0.07000000000000001 0.02 0  0.08 0.02 0  0.09 0.02 0  0.1 0.02 0  0.11 0.02 0  0.12 0.02 0  0.13 0.02 0  0.14 0.02 0  0.15 0.02 0  0.16 0.02 0  0.17 0.02 0  0.18 0.02 0  0.19 0.02 0  0.2 0.02 0  0.21 0.02 0  0.22 0.02 0  0.23 0.02 0  0.24 0.02 0  0.25 0.02 0  0.26 0.02 0  0.27 0.02 0  0.28 0.02 0  0.29 0.02 0  0.3 0.02 0  0.31 0.02 0  0.32 0.02 0  0.33 0.02 0  0.34 0.02 0  0.35 0.02 0  0.36 0.02 0  0.37 0.02 0  0.38 0.02 0  0.39 0.02 0  0.4 0.02 0  0.41 0.02 0  0.42 0.02 0  0.43 0.02 0  0.44 0.02 0  0.45 0.02 0  0.46 0.02 0  0.47 0.02 0  0.48 0.02 0  0.49 0.02 0  0.5 0.02 0  0.51 0.02 0  0.52 0.02 0  0.53 0.02 0  0.54 0.02 0  0.55 0.02 0  0.5600000000000001 0.02 0  0.57 0.02 0  0.58 0.02 0  0.59 0.02 0  0.6 0.02 0  0.61 0.02 0  0.62 0.02 0  0.63 0.02 0  0.64 0.02 0  0.65 0.02 0  0.66 0.02 0  0.67 0.02 0  0.68 0.02 0  0.6899999999999999 0.02 0  0.7 0.02 0  0.71 0.02 0  0.72 0.02 0  0.73 0.02 0  0.74 0.02 0  0.75 0.02 0  0.76 0.02 0  0.77 0.02 0  0.78 0.02 0  0.79 0.02 0  0.8 0.02 0  0.8100000000000001 0.02 0  0.82 0.02 0  0.83 0.02 0  0.84 0.02 0  0.85 0.02 0  0.86 0.02 0  0.87 0.02 0  0.88 0.02 0  0.89 0.02 0  0.9 0.02 0  0.91 0.02 0  0.92 0.02 0  0.93 0.02 0  0.9399999999999999 0.02 0  0.95 0.02 0  0.96 0.02 0  0.97 0.02 0  0.98 0.02 0  0.99 0.02 0  1 0.02 0  0 0.03 0  0.01 0.03 0  0.02 0.03 0  0.03 0.03 0  0.04 0.03 0  0.05 0.03 0  0.06 0.03 0  0.07000000000000001 0.03 0  0.08 0.03 0  0.09 0.03 0  0.1 0.03 0  0.11 0.03 0  0.12 0.03 0  0.13 0.03 0  0.14 0.03 0  0.15 0.03 0  0.16 0.03 0  0.17 0.03 0  0.18 0.03 0  0.19 0.03 0  0.2 0.03 0  0.21 0.03 0  0.22 0.03 0  0.23 0.03 0  0.24 0.03 0  0.25 0.03 0  0.26 0.03 0  0.27 0.03 0  0.28 0.03 0  0.29 0.03 0  0.3 0.03 0  0.31 0.03 0  0.32 0.03 0  0.33 0.03 0  0.34 0.03 0  0.35 0.03 0  0.36 0.03 0  0.37 0.03 0  0.38 0.03 0  0.39 0.03 0  0.4 0.03 0  0.41 0.03 0  0.42 0.03 0  0.43 0.03 0  0.44 0.03 0  0.45 0.03 0  0.46 0.03 0  0.47 0.03 0  0.48 0.03 0  0.49 0.03 0  0.5 0.03 0  0.51 0.03 0  0.52 0.03 0  0.53 0.03 0  0.54 0.03 0  0.55 0.03 0  0.5600000000000001 0.03 0  0.57 0.03 0  0.58 0.03 0  0.59 0.03 0  0.6 0.03 0  0.61 0.03 0  0.62 0.03 0  0.63 0.03 0  0.64 0.03 0  0.65 0.03 0  0.66 0.03 0  0.67 0.03 0  0.68 0.03 0  0.6899999999999999 0.03 0  0.7 0.03 0  0.71 0.03 0  0.72 0.03 0  0.73 0.03 0  0.74 0.03 0  0.75 0.03 0  0.76 0.03 0  0.77 0.03 0  0.78 0.03 0  0.79 0.03 0  0.8 0.03 0  0.8100000000000001 0.03 0  0.82 0.03 0  0.83 0.03 0  0.84 0.03 0  0.85 0.03 0  0.86 0.03 0  0.87 0.03 0  0.88 0.03 0  0.89 0.03 0  0.9 0.03 0  0.91 0.03 0  0.92 0.03 0  0.93 0.03 0  0.9399999999999999 0.03 0  0.95 0.03 0  0.96 0.03 0  0.97 0.03 0  0.98 0.03 0  0.99 0.03 0  1 0.03 0  0 0.04 0  0.01 0.04 0  0.02 0.04 0  0.03 0.04 0  0.04 0.04 0  0.05 0.04 0  0.06 0.04 0  0.07000000000000001 0.04 0  0.08 0.04 0  0.09 0.04 0  0.1 0.04 0  0.11 0.04 0  0.12 0.04 0  0.13 0.04 0  0.14 0.04 0  0.15 0.04 0  0.16 0.04 0  0.17 0.04 0  0.18 0.04 0  0.19 0.04 0  0.2 0.04 0  0.21 0.04 0  0.22 0.04 0  0.23 0.04 0  0.24 0.04 0  0.25 0.04 0  0.26 0.04 0  0.27 0.04 0  0.28 0.04 0  0.29 0.04 0  0.3 0.04 0  0.31 0.04 0  0.32 0.04 0  0.33 0.04 0  0.34 0.04 0  0.35 0.04 0  0.36 0.04 0  0.37 0.04 0  0.38 0.04 0  0.39 0.04 0  0.4 0.04 0  0.41 0.04 0  0.42 0.04 0  0.43 0.04 0  0.44 0.04 0  0.45 0.04 0  0.46 0.04 0  0.47 0.04 0  0.48 0.04 0  0.49 0.04 0  0.5 0.04 0  0.51 0.04 0  0.52 0.04 0  0.53 0.04 0  0.54 0.04 0  0.55 0.04 0  0.5600000000000001 0.04 0  0.57 0.04 0  0.58 0.04 0  0.59 0.04 0  0.6 0.04 0  0.61 0.04 0  0.62 0.04 0  0.63 0.04 0  0.64 0.04 0  0.65 0.04 0  0.66 0.04 0  0.67 0.04 0  0.68 0.04 0  0.6899999999999999 0.04 0  0.7 0.04 0  0.71 0.04 0  0.72 0.04 0  0.73 0.04 0  0.74 0.04 0  0.75 0.04 0  0.76 0.04 0  0.77 0.04 0  0.78 0.04 0  0.79 0.04 0  0.8 0.04 0  0.8100000000000001 0.04 0  0.82 0.04 0  0.83 0.04 0  0.84 0.04 0  0.85 0.04 0  0.86 0.04 0  0.87 0.04 0  0.88 0.04 0  0.89 0.04 0  0.9 0.04 0  0.91 0.04 0  0.92 0.04 0  0.93 0.04 0  0.9399999999999999 0.04 0  0.95 0.04 0  0.96 0.04 0  0.97 0.04 0  0.98 0.04 0  0.99 0.04 0  1 0.04 0  0 0.05 0  0.01 0.05 0  0.02 0.05 0  0.03 0.05 0  0.04 0.05 0  0.05 0.05 0  0.06 0.05 0  0.07000000000000001 0.05 0  0.08 0.05 0  0.09 0.05 0  0.1 0.05 0  0.11 0.05 0  0.12 0.05 0  0.13 0.05 0  0.14 0.05 0  0.15 0.05 0  0.16 0.05 0  0.17 0.05 0  0.18 0.05 0  0.19 0.05 0  0.2 0.05 0  0.21 0.05 0  0.22 0.05 0  0.23 0.05 0  0.24 0.05 0  0.25 0.05 0  0.26 0.05 0  0.27 0.05 0  0.28 0.05 0  0.29 0.05 0  0.3 0.05 0  0.31 0.05 0  0.32 0.05 0  0.33 0.05 0  0.34 0.05 0  0.35 0.05 0  0.36 0.05 0  0.37 0.05 0  0.38 0.05 0  0.39 0.05 0  0.4 0.05 0  0.41 0.05 0  0.42 0.05 0  0.43 0.05 0  0.44 0.05 0  0.45 0.05 0  0.46 0.05 0  0.47 0.05 0  0.48 0.05 0  0.49 0.05 0  0.5 0.05 0  0.51 0.05 0  0.52 0.05 0  0.53 0.05 0  0.54 0.05 0  0.55 0.05 0  0.5600000000000001 0.05 0  0.57 0.05 0  0.58 0.05 0  0.59 0.05 0  0.6 0.05 0  0.61 0.05 0  0.62 0.05 0  0.63 0.05 0  0.64 0.05 0  0.65 0.05 0  0.66 0.05 0  0.67 0.05 0  0.68 0.05 0  0.6899999999999999 0.05 0  0.7 0.05 0  0.71 0.05 0  0.72 0.05 0  0.73 0.05 0  0.74 0.05 0  0.75 0.05 0  0.76 0.05 0  0.77 0.05 0  0.78 0.05 0  0.79 0.05 0  0.8 0.05 0  0.8100000000000001 0.05 0  0.82 0.05 0  0.83 0.05 0  0.84 0.05 0  0.85 0.05 0  0.86 0.05 0  0.87 0.05 0  0.88 0.05 0  0.89 0.05 0  0.9 0.05 0  0.91 0.05 0  0.92 0.05 0  0.93 0.05 0  0.9399999999999999 0.05 0  0.95 0.05 0  0.96 0.05 0  0.97 0.05 0  0.98 0.05 0  0.99 0.05 0  1 0.05 0  0 0.06 0  0.01 0.06 0  0.02 0.06 0  0.03 0.06 0  0.04 0.06 0  0.05 0.06 0  0.06 0.06 0  0.07000000000000001 0.06 0  0.08 0.06 0  0.09 0.06 0  0.1 0.06 0  0.11 0.06 0  0.12 0.06 0  0.13 0.06 0  0.14 0.06 0  0.15 0.06 0  0.16 0.06 0  0.17 0.06 0  0.18 0.06 0  0.19 0.06 0  0.2 0.06 0  0.21 0.06 0  0.22 0.06 0  0.23 0.06 0  0.24 0.06 0  0.25 0.06 0  0.26 0.06 0  0.27 0.06 0  0.28 0.06 0  0.29 0.06 0  0.3 0.06 0  0.31 0.06 0  0.32 0.06 0  0.33 0.06 0  0.34 0.06 0  0.35 0.06 0  0.36 0.06 0  0.37 0.06 0  0.38 0.06 0  0.39 0.06 0  0.4 0.06 0  0.41 0.06 0  0.42 0.06 0  0.43 0.06 0  0.44 0.06 0  0.45 0.06 0  0.46 0.06 0  0.47 0.06 0  0.48 0.06 0  0.49 0.06 0  0.5 0.06 0  0.51 0.06 0  0.52 0.06 0  0.53 0.06 0  0.54 0.06 0  0.55 0.06 0  0.5600000000000001 0.06 0  0.57 0.06 0  0.58 0.06 0  0.59 0.06 0  0.6 0.06 0  0.61 0.06 0  0.62 0.06 0  0.63 0.06 0  0.64 0.06 0  0.65 0.06 0  0.66 0.06 0  0.67 0.06 0  0.68 0.06 0  0.6899999999999999 0.06 0  0.7 0.06 0  0.71 0.06 0  0.72 0.06 0  0.73 0.06 0  0.74 0.06 0  0.75 0.06 0  0.76 0.06 0  0.77 0.06 0  0.78 0.06 0  0.79 0.06 0  0.8 0.06 0  0.8100000000000001 0.06 0  0.82 0.06 0  0.83 0.06 0  0.84 0.06 0  0.85 0.06 0  0.86 0.06 0  0.87 0.06 0  0.88 0.06 0  0.89 0.06 0  0.9 0.06 0  0.91 0.06 0  0.92 0.06 0  0.93 0.06 0  0.9399999999999999 0.06 0  0.95 0.06 0  0.96 0.06 0  0.97 0.06 0  0.98 0.06 0  0.99 0.06 0  1 0.06 0  0 0.07000000000000001 0  0.01 0.07000000000000001 0  0.02 0.07000000000000001 0  0.03 0.07000000000000001 0  0.04 0.07000000000000001 0  0.05 0.07000000000000001 0  0.06 0.07000000000000001 0  0.07000000000000001 0.07000000000000001 0  0.08 0.07000000000000001 0  0.09 0.07000000000000001 0  0.1 0.07000000000000001 0  0.11 0.07000000000000001 0  0.12 0.07000000000000001 0  0.13 0.07000000000000001 0  0.14 0.07000000000000001 0  0.15 0.07000000000000001 0  0.16 0.07000000000000001 0  0.17 0.0700
[...]
<PointData  Scalars="Indicator Function"> 
<DataArray  type="Float64"  Name="Indicator Function"  format="ascii">-1.2037062152420224e-35  -6.6889777350125172e-20  1.8462779036582214e-20  3.3092550267448198e-19  3.4454618194553798e-19  -3.5704363082900961e-20  -3.1255532437359594e-20  6.5302704741649367e-19  9.3353858180641523e-19  -9.0277966143151681e-36  5.0008814826968721e-18  2.9177228755754364e-18  -4.2158818336320630e-20  -3.6437786539482045e-20  7.6612381832836858e-18  -9.0329241473651557e-21  -6.3721928787414771e-21  2.1708952866841053e-18  -3.5779222517040015e-20  -4.8148248609680896e-35  5.5804916572413840e-18  -6.0185310762101120e-36  -3.8839881777677703e-20  1.3221211717562413e-17  -5.2756288607100220e-20  -2.6378144303550122e-20  -1.9823567239074711e-20  -4.6172907251326876e-20  4.1426301660443499e-17  -1.7627140561691358e-20  -8.4727961082362198e-20  -3.0314171076088386e-20  -4.9769543734474903e-20  -1.5397332092738782e-20  2.4519122626625567e-17  -9.8163675797100795e-20  -1.3049021136368615e-19  -1.4791742328363996e-19  -1.5301868115941839e-19  -1.4885985057563539e-19  8.7204539868921116e-18  -8.8033243096081471e-20  -2.5656755302825849e-20  -3.4120920580800115e-20  -1.9761364485026603e-20  -2.2897749397408496e-20  2.9976927014841226e-17  -1.4709623229901058e-20  -8.3378963330391780e-21  -1.2954949400729778e-21  -2.2711020570861943e-20  -1.1355510285430974e-20  -8.2249841521004343e-21  -9.1866799835252214e-21  -8.5431057204778227e-21  -4.9816211961639000e-21  2.4149358930267842e-19  -1.0852671937086416e-21  -3.5610334050267122e-22  -3.3769215799498180e-22  -3.8512625814342777e-22  -6.5097018104312763e-22  -4.5706736458408463e-22  -1.4520799805249986e-21  -2.1162293463520064e-21  -7.9566042825036065e-22  -2.5155015372115872e-21  -2.7954862077534092e-21  2.9162840891939759e-18  0.0000000000000000e+00  -6.4381909844301385e-23  -2.9419413503104487e-22  -4.6853916141950016e-22  -5.9998323068572757e-22  -6.1278857307469675e-22  -6.1271231719197466e-22  -5.9239136724051795e-22  -4.8844636065833523e-22  -5.7400139412832875e-22  -5.9550224935679278e-22  -6.3194890871117996e-22  -2.2756089925441223e-20  -3.6668189516625217e-22  -1.3700450104913604e-22  0.0000000000000000e+00  -1.1032074281023886e-22  -2.6468556957482102e-22  -1.7262929840072201e-22  -1.0623207417543614e-22  -1.5042360877318713e-23  -7.2047640256790447e-23  -6.9926911174297342e-23  -2.7262322994364824e-22  8.5081908888485849e-19  -1.2373945948827194e-22  -1.4443563775191906e-22  -4.7982409636569370e-23  -9.9623007325241628e-23  -3.5799221243222625e-23  -5.7489139873162090e-23  0.0000000000000000e+00  -3.6199917334000940e-20  5.7104977793426097e-04  2.3652197456438032e-04  1.5909342723071976e-04  3.5467384151356517e-04  2.8490210457054750e-04  5.0074157281734084e-04  3.1267883054396698e-04  7.0566482220547509e-04  5.4139431991619815e-05  3.1510680202525525e-05  4.4082343946028404e-04  7.6006951474801888e-04  3.7943099682532670e-04  4.6668930911300321e-04  2.8024968864702861e-04  2.2597850973044327e-05  7.8653019564929659e-04  1.3358447251172131e-04  6.4454117278138978e-04  2.1735886173898910e-04  3.1878213117716531e-04  2.5356065225483028e-04  5.7289678227684273e-04  2.1283910340641986e-04  9.5037280684954757e-04  7.1421928024840650e-04  9.4610263814663980e-04  3.5872583249343064e-04  6.3508466932192433e-04  8.6828027867003282e-04  1.0921831164985366e-03  6.8364208373007521e-04  5.5474735260288533e-04  1.8492736400646603e-05  8.7012531921960325e-04  1.3332969153547636e-03  1.6840542114145947e-03  1.8226163038199219e-03  1.8452313498911643e-03  1.7590049953858553e-03  1.4075248504216065e-03  8.8210349800411187e-04  4.6219101448536991e-04  3.8357235361023370e-04  8.2497836523037196e-04  6.0091195457472166e-04  5.2997002957554226e-04  2.8635636577060389e-04  7.0240043888142894e-06  1.9825559923084925e-05  4.0912537512054995e-04  1.1048125897129886e-04  9.2927512764461547e-05  1.1902875782007396e-04  9.4384532047285714e-05  6.9222268932796343e-05  4.5786893377437293e-05  2.4915482312525392e-05  1.5092368074057130e-05  1.1201097927806443e-05  7.7701321073394654e-06  7.8417702054308055e-06  1.4493052004870642e-05  1.8911821434382841e-05  2.8666688065454195e-05  7.4888970319310047e-06  4.1570798626578541e-05  2.9573603260941580e-05  1.4604402558721058e-05  5.6745407034948498e-06  1.1598013807367872e-06  4.7198296972332023e-06  6.0805363224927799e-06  7.7680688553327675e-06  7.1549831297580252e-06  7.4601522886853503e-06  6.9414980187049048e-06  9.2833246820215698e-06  9.5058659544993639e-06  9.2466915657526173e-06  6.7608336962790897e-06  8.6251190451633886e-06  5.1044998746834567e-06  2.5048812908028903e-06  4.5513578740304691e-06  1.9271654328837298e-07  6.2196259516057644e-06  2.7434975039004757e-06  5.4195816673491801e-07  2.5957898065072405e-06  3.4113167855816553e-07  1.0891254051518576e-06  4.9111435071468787e-06  9.6549330850922560e-07  1.7463452803150190e-06  1.7287484972767393e-06  1.0096913581217886e-06  1.2898028756090504e-06  2.0712645512849836e-06  5.7489139873161925e-23  -1.2799492831492640e-20  6.5211973686499745e-04  1.6792543181029824e-04  9.5273065497348614e-05  9.8648115697932641e-06  3.3832098234467194e-04  5.4539986623582744e-04  6.5961193094442598e-04  7.8345181505352099e-04  7.2731956768542843e-05  1.8040735041002448e-04  4.9171548733781820e-04  6.7523125401323795e-04  1.0034255981786536e-03  9.5838697754163161e-04  6.3981637374973990e-04  1.2482901550218582e-03  8.3174490567898356e-05  4.9193605115106711e-04  1.0082007970404834e-03  4.8181329381868010e-04  1.6488046899179052e-03  1.0743298235497219e-03  1.7802272354380713e-03  1.0262921026951467e-03  1.2995442591865597e-03  4.2220200608107639e-05  3.2631843790710752e-04  1.7609544224547983e-03  1.2825364910387729e-03  3.7148975723690609e-05  1.7627215745488725e-03  1.1487040543031301e-04  1.1891797443976603e-03  6.7907471274462905e-04  1.1904647009890145e-03  1.6482952304227626e-03  2.1949664055608475e-03  2.5281785293986788e-03  2.6229251356837428e-03  2.5514160730442130e-03  2.3480226589024625e-03  1.7713903783836318e-03  2.3650949126992037e-04  1.0972990514654731e-03  9.5426082395365765e-04  9.1630062874725250e-04  1.2955600775637220e-03  1.1083648343461201e-03  3.8887398172140179e-04  3.6880833136230341e-04  6.7044651675443048e-04  2.0621380028505381e-04  2.8857569577898511e-04  1.1814973379897865e-04  1.2709507512670678e-04  9.5257712272336109e-05  7.9503008353521367e-05  4.8268059621646093e-05  2.7867528418653282e-05  1.8025165630450681e-05  1.1993274979300726e-05  1.3264061732254181e-05  1.1187444646660594e-05  2.6092529479048032e-05  3.0638300627013308e-05  2.4067456837895331e-05  5.4578380649020948e-05  5.1844864830360029e-05  2.0261236696736150e-05  1.1296250759257454e-05  2.8823047038166924e-06  4.2874642419993153e-06  7.3098220915491658e-06  9.2129338254114519e-06  8.9915600869548974e-06  1.2211204352200689e-05  1.2226870119011666e-05  9.5787228599775509e-06  1.1764438320402414e-05  1.2417017929327776e-05  1.4318702241434193e-05  1.2170385409923413e-05  7.4480620331359112e-06  7.3455413660811014e-06  2.4390897507123442e-07  7.5312964948986947e-06  7.4607035429117894e-06  3.3441769089563690e-06  8.2735596797464112e-06  8.6655825037382725e-06  2.9223653640451586e-06  4.6409455244998065e-06  1.1449196970486815e-05  6.0326997127820372e-06  8.3106430932416399e-06  1.9750225193835342e-06  1.4360270110447197e-06  5.3395520745768338e-06  2.5377378758056585e-06  6.3392737954112621e-22  -2.4213820000224892e-20  2.3057516458576725e-04  4.5497228965912621e-04  7.5510900738690449e-05  5.3836981518455009e-04  7.4850528942290199e-04  6.6562291630719878e-04  8.8004203922967109e-04  2.2451362953795364e-04  1.3449458811339422e-03  5.1130917763627900e-04  7.9203688903639684e-06  1.0659165633699176e-03  1.2731216757331575e-03  2.7763546058879999e-04  1.0278178645020900e-03  1.8820111766576793e-04  3.2542957785158718e-04  1.5726624536084003e-03  8.4096277083826030e-04  1.7808462960487545e-03  4.3653916576529516e-04  1.1479946391888252e-03  3.1411615534668883e-04  1.6883934078796030e-03  1.4539259733356354e-03  2.5103625770537411e-03  2.1289923040812898e-03  2.0461909588358447e-03  7.8490069074315066e-04  2.1847164221197989e-03  2.0039533427877350e-03  2.1579754812162052e-03  2.2716526159296431e-03  1.0193376927136275e-03  2.8025269480426814e-04  2.0260622151216144e-03  2.2727226649090931e-03  2.7819558609818180e-03  2.9993846581618847e-03  3.0365418038114022e-03  2.8519092685837851e-03  2.1752156318200979e-03  1.4160646679781009e-03  1.4127925692083790e-03  7.5808650419910157e-04  2.3960432293839663e-03  1.3796658197337552e-03  8.0879956625701547e-04  4.4632489341404723e-04  1.1628671070279557e-04  1.7311439588051555e-04  1.0394259023466857e-03  4.7259357054198295e-04  2.1925634225887462e-04  1.0870212389939071e-04  8.3025099852869231e-05  8.1628454887757885e-05  7.0400241101775335e-05  3.8349237316307842e-05  2.6029054684388678e-05  2.0772198530947196e-05  1.2251242526682670e-05  1.4415299872868848e-05  2.3639347661051334e-05  2.8424169134086301e-05  4.3859930146206959e-05  2.6782247965246950e-05  8.1239188144057435e-05  2.9068362506553438e-05  6.9001864402294972e-06  6.4926740519275855e-06  4.2262291315630246e-08  6.1024706760070968e-06  8.6973320630682180e-06  1.2338139391582039e-05  9.0633836215906396e-06  1.2177760128189051e-05  1.2496161809730974e-05  1.5554667020519632e-05  1.4484912529454185e-05  1.2868102702069073e-05  1.1144943535823595e-05  1.6269375042084140e-05  6.7395415221971775e-06  5.8603449023172986e-06  7.1696800762050246e-06  4.3687645677940630e-07  1.5869588069066530e-05  5.7916641515187086e-06  7.5626723623953543e-07  1.2817205853897641e-05  6.5531310125422242e-07  3.0195594561013938e-06  1.7995919249514385e-05  4.5409171575566356e-06  5.8612885333106933e-06  4.5772186605357821e-07  4.9591706975963660e-06  6.3006960474565392e-06  -8.7439722788137033e-22  -1.8766331328524209e-20  4.3619740292091716e-04  6.1478699785093565e-04  3.0970418614187950e-06  1.5454259160283047e-04  4.9090138770393847e-04  6.9775912077515545e-04  1.1735996825149590e-03  1.0640288005591622e-03  6.8133516131444339e-04  2.1438359860994710e-04  1.4862948381853665e-05  4.8002751672679634e-04  1.0248851710424611e-03  1.5136812866197084e-03  7.7768404447580558e-04  9.8706205711858214e-04  1.8085225147068814e-03  3.5599864431501036e-04  1.1913051442748082e-03  6.9829920488851359e-04  4.2675538324276301e-04  2.1707608955951938e-03  1.7102449833361539e-03  2.5536796641263031e-03  1.3494916198763924e-03  1.3772736168229415e-03  5.2159812090173151e-04  1.4971594569658069e-03  3.3487447329907738e-03  2.0345961631402600e-03  7.1555855799573180e-04  3.2686609025900930e-03  3.8816492717087657e-04  2.6940936494063046e-03  8.6070020518831203e-04  2.0406199401136541e-03  2.4557965415417686e-03  2.8420650643865291e-03  3.2286492738257066e-03  3.3270848111756597e-03  3.2413372764596728e-03  2.9800076335139993e-03  2.0735099451157099e-03  5.5851267926654334e-04  2.0285469597045862e-03  1.5398171081605961e-03  2.0983651885309708e-03  2.8807757751820192e-03  2.2889675120705498e-03  1.0371415620331456e-03  3.8838551486604795e-04  9.8732861447375767e-04  4.6356032196418411e-04  7.3139543876657095e-04  1.3470090475195895e-04  8.3210305675634515e-05  5.4337760957926823e-05  7.4650799857569486e-05  5.2956496566735260e-05  3.0315534922912437e-05  2.2131669080552320e-05  1.6940840411181029e-05  1.6962613426237189e-05  1.2271837810164239e-05  3.5600396898173362e-05  3.5341148159976359e-05  3.4141275575510874e-05  9.0839680357699800e-05  6.8255867910150693e-05  3.0776090941719724e-06  2.2449309323447749e-06  1.7257885101950318e-06  3.2103204414373048e-06  7.3503921760889143e-06  9.3554381801454265e-06  1.1579987533242142e-05  1.3384764936540343e-05  1.3052663054425324e-05  9.8908586900865654e-06  1.6441519759628123e-05  1.6341673098002633e-05  1.6173727279477743e-05  1.1350853007193854e-05  1.0309301537161184e-05  8.2797620467768483e-06  1.1286585996937629e-06  1.4332054813639856e-05  7.3314514617062383e-06  8.3221214971012127e-06  1.3132987742723917e-05  1.6063510669146986e-05  9.7846540189753444e-06  4.8727821903680554e-06  1.6429670650073759e-05  5.4722234897913609e-07  1.4013322298903538e-05  7.6924914915338588e-07  2.2843534512688829e-06  4.0322412962172453e-06  8.9311306232394363e-22  -2.3240542723167591e-20  3.3806417111301108e-04  5.9030204543582558e-04  9.5985194308275941e-04  1.3350111041198141e-04  5.6232608310735480e-04  7.2292117030477458e-04  6.8654784020349079e-04  1.3289282051221333e-03  4.0760261127269567e-04  1.6868116704039640e-03  9.1684581495293273e-04  2.1449458606934171e-05  1.4141900417777794e-03  1.4812406335025735e-03  3.8785347980205829e-04  1.2741387940053679e-03  9.6808100353403426e-04  1.0402386638912280e-03  1.5433140042245270e-03  9.8511575655074886e-04  2.3431985182316688e-03  1.1305485077903769e-03  2.0828454736414466e-03  1.1936008835563038e-03  2.8112647688542537e-03  2.5453123459782167e-03  3.6433281808410634e-03  2.8327452277798247e-03  2.1790307009898605e-03  1.7073457165592654e-03  3.6242858674653019e-03  2.5114996844392301e-03  3.5384036531420841e-03  3.1322595937243900e-03  1.8540899001713402e-03  3.7827762791434243e-04  3.0906450749414193e-03  2.9170729439934851e-03  3.3767867229856654e-03  3.6038906190746520e-03  3.6275496773506568e-03  3.3932662066788358e-03  2.5959182607041141e-03  1.6567885047776216e-03  2.2838281223827605e-03  1.3826826743534820e-03  3.7110624049974746e-03  1.3389185892010462e-03  5.1479874781334196e-05  1.7768646188758339e-04  1.5525523439909836e-04  4.0254622471410002e-04  1.5824864082314286e-03  5.8364107550570182e-04  4.9520373789684079e-04  8.5162040303628946e-05  4.2514158590135375e-05  5.5566540898158887e-05  7.0889132946243930e-05  3.6954369782863569e-05  2.5602314570899358e-05  2.2060976649569525e-05  1.1869913632374117e-05  1.6634428366318776e-05  2.2644095116072427e-05  3.3844410519762108e-05  5.2097750977861920e-05  2.9257291314654028e-05  1.1515667881642739e-04  2.7244539850684940e-05  8.8749291877669397e-06  2.4557495513984764e-06  4.0904793706959880e-07  5.6877816210179640e-06  8.8212818065169789e-06  1.1117681075444395e-05  9.4150238460203889e-06  1.4410715199300192e-05  1.3594750836892569e-05  1.3405624328087963e-05  1.5744536151936857e-05  1.4546068950834697e-05  1.4272973925969779e-05  1.5503099490408662e-05  5.5625531694919065e-06  5.3418771266649749e-06  5.7224769420329626e-06  4.7710365907589039e-06  2.1282113191357668e-05  6.0123941905280663e-06  4.5981755493318095e-06  2.3284349557753090e-05  2.7429482318105506e-06  3.8477854671129761e-06  2.8698794393701206e-05  6.8219296928848856e-06  1.5988131476666373e-05  4.7443053207540739e-06  1.2402170005594007e-06  5.6423728839469800e-37  -1.2795690464326734e-20  4.1866439819178289e-04  6.5270763237230457e-04  5.6228277077564361e-04  6.0564918726877860e-04  2.4773719108085729e-04  6.0257887198159608e-04  1.0755206464566937e-03  1.5346234913698029e-03  1.3821347690996480e-03  6.0431692015371270e-04  5.3972343343665688e-04  4.1337308351749969e-04  4.4860774341831818e-04  1.5019458081345848e-03  1.8701639708260654e-03  5.5011732623363682e-04  8.8274982648642753e-04  1.5127668968048329e-03  1.8600757975538511e-04  1.6718109799642009e-03  2.0175856502591154e-04  1.0980403044188512e-04  1.8387227104357047e-03  1.5248052132323792e-03  2.4593512067929398e-03  9.2554947903433034e-04  8.0906416723840538e-04  1.4197967989766586e-03  2.5016620881253451e-03  4.5026305427961887e-03  2.1688318247140410e-03  1.8451676483227089e-03  4.5147043015334601e-03  9.7354523870510172e-04  4.1042601733314492e-03  1.2035209561964825e-03  2.5350837805621046e-03  3.4446015132310348e-03  3.4800507620900739e-03  3.8595775240457828e-03  3.9523043831750839e-03  3.8528723829188995e-03  3.5075805065550758e-03  2.2987307624561366e-03  7.0801993813964024e-04  3.1192883789271054e-03  1.7874176217551137e-03  3.4031703074102423e-03  3.7037583395940058e-03  2.5540864008117897e-03  1.1802249167156660e-03  3.7881976056020479e-04  9.7524017585600873e-04  8.6567391503107887e-04  1.0569501182069981e-03  2.2558917819842726e-04  3.0023938830961428e-05  1.0895062978189034e-05  6.3696705327116003e-05  6.0725388925471221e-05  3.1933368627649443e-05  2.3156661025987613e-05  1.9005374943030042e-05  1.5924606981648105e-05  1.2424511277779337e-05  3.8580581331395585e-05  3.7368997273826527e-05  4.3670041910210945e-05  1.1287865507608227e-04  8.8107099073902662e-05  1.0779921489212433e-05  8.4583879414249602e-06  1.5814381525999055e-06  1.2868979492464804e-06  6.6576063226921134e-06  8.9248950646300483e-06  1.0876440774818222e-05  1.1519713770848749e-05  1.3704322773452268e-05  1.1328943264464498e-05  1.5816833509732038e-05  1.6450637568324094e-05  1.4863910963787431e-05  1.3039490941306441e-05  1.1084200453524780e-05  5.4787011868065105e-06  1.5603564197579025e-06  1.3231843896505601e-05  4.6533629338477321e-06  1.2974570740238748e-05  1.7170637977812096e-05  1.5521886425093083e-05  1.9454067671016398e-05  5.5947571186406261e-06  1.5285719241912505e-05  9.7499108923520275e-06  1.1252443996493446e-05  7.2914241867935179e-06  5.6600256347497669e-06  2.5860875718090325e-37  -2.0921786614413210e-20  2.3050666722836049e-04  5.3170031487363993e-04  8.7389848426230150e-04  9.1024650626668274e-04  6.4491967852190824e-05  7.0714098287010603e-04  4.7499815793918654e-04  3.9909752293679874e-04  1.7616310514125639e-03  6.4704776404982546e-04  1.6679535397234931e-03  9.1273109821822149e-04  1.7393825666564216e-04  1.5284817784136126e-03  1.8266689299215268e-03  6.7780579945435045e-04  1.1198158460993301e-03  1.1984058591827879e-03  1.3414690351422332e-03  1.3582885749447166e-03  5.5161447390035241e-04  2.1325821964580734e-03  9.5089522718396250e-04  2.3342576351822026e-03  1.4300034932899482e-03  3.2108922027407416e-03  2.7652403701319251e-03  3.8388281517823578e-03  2.7210714181616765e-03  1.7761522359692524e-03  2.7248752801986892e-03  4.4583020846388696e-03  2.5204503472341278e-03  5.0545096106781673e-03  3.5235439890947003e-03  3.1478663535418230e-03  4.5393408502595158e-04  3.9673549946113943e-03  3.7996788261531246e-03  4.0880724371212956e-03  4.3068635088258740e-03  4.3118400948546831e-03  4.0327673088201895e-03  3.0714612619895327e-03  1.7603066215353071e-03  2.8744687573857655e-03  2.2076468600657059e-03  4.5760223628779125e-03  8.9645587321563424e-04  8.0873688339601335e-04  8.5045115797500852e-04  6.0820114420857298e-04  3.6377056361164289e-04  1.8586143434684323e-03  4.3596003635789011e-04  8.7293776391124693e-04  8.3313568064396121e-05  1.4621367207424271e-05  1.1961288104423833e-05  6.4109634298984057e-05  4.1407561776217205e-05  2.9612853974802477e-05  2.5241240013910176e-05  1.3509132856988900e-05  1.7698515074135269e-05  2.0726649399594823e-05  4.0063614625060949e-05  5.5646721077745808e-05  2.5273458144391531e-05  1.4748357756902720e-04  3.2448351172601542e-05  2.4696004273882021e-05  3.8994742109227509e-06  1.5144922953957270e-07  2.5410850266680259e-06  7.3747932770065969e-06  9.2139018163430304e-06  1.0004791077906421e-05  1.2301964509957756e-05  1.2185584699198676e-05  1.2257707652718965e-05  1.6187779895138185e-05  1.4709861488195447e-05  1.3108269918151858e-05  1.4152182607307918e-05  6.6487226940923892e-06  1.9272691677836938e-06  5.8983544938557270e-06  8.6054401427199407e-06  1.7684847666223325e-05  5.8258117783924019e-06  1.2609514844759604e-05  2.3758834878056247e-05  5.5023507452768726e-06  5.3892168559371461e-06  2.9150388329892304e-05  3.1727086137550341e-06  1.6518751665252505e-05  5.7333504451634305e-06  -7.9566220905816592e-22  -1.4909116857328514e-20  3.7689340160238681e-04  6.4647599421673192e-04  7.1038457050202864e-04  6.9591277628370954e-04  9.8361668096777423e-04  1.2784149854958555e-04  5.0813766197706819e-04  1.0030305008138667e-03  1.5942810800163175e-03  1.7677248953782575e-03  7.6008732074324045e-04  5.6493655657627133e-04  6.4963079672105360e-04  4.2206788723578634e-04  1.8301238281170930e-03  2.1419296609517533e-0