<?xml version="1.0"?>
<VTKFile type="UnstructuredGrid"  version="0.1"  >
<UnstructuredGrid>
<Piece  NumberOfPoints="10201" NumberOfCells="20000">
<Points>
<DataArray  type="Float64"  NumberOfComponents="3"  format="ascii">0 0 0  0.01 0 0  0.02 0 0  0.03 0 0  0.04 0 0  0.05 0 0  0.06 0 0  0.07000000000000001 0 0  0.08 0 0  0.09 0 0  0.1 0 0  0.11 0 0  0.12 0 0  0.13 0 0  0.14 0 0  0.15 0 0  0.16 0 0  0.17 0 0  0.18 0 0  0.19 0 0  0.2 0 0  0.21 0 0  0.22 0 0  0.23 0 0  0.24 0 0  0.25 0 0  0.26 0 0  0.27 0 0  0.28 0 0  0.29 0 0  0.3 0 0  0.31 0 0  0.32 0 0  0.33 0 0  0.34 0 0  0.35 0 0  0.36 0 0  0.37 0 0  0.38 0 0  0.39 0 0  0.4 0 0  0.41 0 0  0.42 0 0  0.43 0 0  0.44 0 0  0.45 0 0  0.46 0 0  0.47 0 0  0.48 0 0  0.49 0 0  0.5 0 0  0.51 0 0  0.52 0 0  0.53 0 0  0.54 0 0  0.55 0 0  0.5600000000000001 0 0  0.57 0 0  0.58 0 0  0.59 0 0  0.6 0 0  0.61 0 0  0.62 0 0  0.63 0 0  0.64 0 0  0.65 0 0  0.66 0 0  0.67 0 0  0.68 0 0  0.6899999999999999 0 0  0.7 0 0  0.71 0 0  0.72 0 0  0.73 0 0  0.74 0 0  0.75 0 0  0.76 0 0  0.77 0 0  0.78 0 0  0.79 0 0  0.8 0 0  0.8100000000000001 0 0  0.82 0 0  0.83 0 0  0.84 0 0  0.85 0 0  0.86 0 0  0.87 0 0  0.88 0 0  0.89 0 0  0.9 0 0  0.91 0 0  0.92 0 0  0.93 0 0  0.9399999999999999 0 0  0.95 0 0  0.96 0 0  0.97 0 0  0.98 0 0  0.99 0 0  1 0 0  0 0.01 0  0.01 0.01 0  0.02 0.01 0  0.03 0.01 0  0.04 0.01 0  0.05 0.01 0  0.06 0.01 0  0.07000000000000001 0.01 0  0.08 0.01 0  0.09 0.01 0  0.1 0.01 0  0.11 0.01 0  0.12 0.01 0  0.13 0.01 0  0.14 0.01 0  0.15 0.01 0  0.16 0.01 0  0.17 0.01 0  0.18 0.01 0  0.19 0.01 0  0.2 0.01 0  0.21 0.01 0  0.22 0.01 0  0.23 0.01 0  0.24 0.01 0  0.25 0.01 0  0.26 0.01 0  0.27 0.01 0  0.28 0.01 0  0.29 0.01 0  0.3 0.01 0  0.31 0.01 0  0.32 0.01 0  0.33 0.01 0  0.34 0.01 0  0.35 0.01 0  0.36 0.01 0  0.37 0.01 0  0.38 0.01 0  0.39 0.01 0  0.4 0.01 0  0.41 0.01 0  0.42 0.01 0  0.43 0.01 0  0.44 0.01 0  0.45 0.01 0  0.46 0.01 0  0.47 0.01 0  0.48 0.01 0  0.49 0.01 0  0.5 0.01 0  0.51 0.01 0  0.52 0.01 0  0.53 0.01 0  0.54 0.01 0  0.55 0.01 0  0.5600000000000001 0.01 0  0.57 0.01 0  0.58 0.01 0  0.59 0.01 0  0.6 0.01 0  0.61 0.01 0  0.62 0.01 0  0.63 0.01 0  0.64 0.01 0  0.65 0.01 0  0.66 0.01 0  0.67 0.01 0  0.68 0.01 0  0.6899999999999999 0.01 0  0.7 0.01 0  0.71 0.01 0  0.72 0.01 0  0.73 0.01 0  0.74 0.01 0  0.75 0.01 0  0.76 0.01 0  0.77 0.01 0  0.78 0.01 0  0.79 0.01 0  0.8 0.01 0  0.8100000000000001 0.01 0  0.82 0.01 0  0.83 0.01 0  0.84 0.01 0  0.85 0.01 0  0.86 0.01 0  0.87 0.01 0  0.88 0.01 0  0.89 0.01 0  0.9 0.01 0  0.91 0.01 0  0.92 0.01 0  0.93 0.01 0  0.9399999999999999 0.01 0  0.95 0.01 0  0.96 0.01 0  0.97 0.01 0  0.98 0.01 0  0.99 0.01 0  1 0.01 0  0 0.02 0  0.01 0.02 0  0.02 0.02 0  0.03 0.02 0  0.04 0.02 0  0.05 0.02 0  0.06 0.02 0  0.07000000000000001 0.02 0  0.08 0.02 0  0.09 0.02 0  0.1 0.02 0  0.11 0.02 0  0.12 0.02 0  0.13 0.02 0  0.14 0.02 0  0.15 0.02 0  0.16 0.02 0  0.17 0.02 0  0.18 0.02 0  0.19 0.02 0  0.2 0.02 0  0.21 0.02 0  0.22 0.02 0  0.23 0.02 0  0.24 0.02 0  0.25 0.02 0  0.26 0.02 0  0.27 0.02 0  0.28 0.02 0  0.29 0.02 0  0.3 0.02 0  0.31 0.02 0  0.32 0.02 0  0.33 0.02 0  0.34 0.02 0  0.35 0.02 0  0.36 0.02 0  0.37 0.02 0  0.38 0.02 0  0.39 0.02 0  0.4 0.02 0  0.41 0.02 0  0.42 0.02 0  0.43 0.02 0  0.44 0.02 0  0.45 0.02 0  0.46 0.02 0  0.47 0.02 0  0.48 0.02 0  0.49 0.02 0  0.5 0.02 0  0.51 0.02 0  0.52 0.02 0  0.53 0.02 0  0.54 0.02 0  0.55 0.02 0  0.5600000000000001 0.02 0  0.57 0.02 0  0.58 0.02 0  0.59 0.02 0  0.6 0.02 0  0.61 0.02 0  0.62 0.02 0  0.63 0.02 0  0.64 0.02 0  0.65 0.02 0  0.66 0.02 0  0.67 0.02 0  0.68 0.02 0  0.6899999999999999 0.02 0  0.7 0.02 0  0.71 0.02 0  0.72 0.02 0  0.73 0.02 0  0.74 0.02 0  0.75 0.02 0  0.76 0.02 0  0.77 0.02 0  0.78 0.02 0  0.79 0.02 0  0.8 0.02 0  0.8100000000000001 0.02 0  0.82 0.02 0  0.83 0.02 0  0.84 0.02 0  0.85 0.02 0  0.86 0.02 0  0.87 0.02 0  0.88 0.02 0  0.89 0.02 0  0.9 0.02 0  0.91 0.02 0  0.92 0.02 0  0.93 0.02 0  0.9399999999999999 0.02 0  0.95 0.02 0  0.96 0.02 0  0.97 0.02 0  0.98 0.02 0  0.99 0.02 0  1 0.02 0  0 0.03 0  0.01 0.03 0  0.02 0.03 0  0.03 0.03 0  0.04 0.03 0  0.05 0.03 0  0.06 0.03 0  0.07000000000000001 0.03 0  0.08 0.03 0  0.09 0.03 0  0.1 0.03 0  0.11 0.03 0  0.12 0.03 0  0.13 0.03 0  0.14 0.03 0  0.15 0.03 0  0.16 0.03 0  0.17 0.03 0  0.18 0.03 0  0.19 0.03 0  0.2 0.03 0  0.21 0.03 0  0.22 0.03 0  0.23 0.03 0  0.24 0.03 0  0.25 0.03 0  0.26 0.03 0  0.27 0.03 0  0.28 0.03 0  0.29 0.03 0  0.3 0.03 0  0.31 0.03 0  0.32 0.03 0  0.33 0.03 0  0.34 0.03 0  0.35 0.03 0  0.36 0.03 0  0.37 0.03 0  0.38 0.03 0  0.39 0.03 0  0.4 0.03 0  0.41 0.03 0  0.42 0.03 0  0.43 0.03 0  0.44 0.03 0  0.45 0.03 0  0.46 0.03 0  0.47 0.03 0  0.48 0.03 0  0.49 0.03 0  0.5 0.03 0  0.51 0.03 0  0.52 0.03 0  0.53 0.03 0  0.54 0.03 0  0.55 0.03 0  0.5600000000000001 0.03 0  0.57 0.03 0  0.58 0.03 0  0.59 0.03 0  0.6 0.03 0  0.61 0.03 0  0.62 0.03 0  0.63 0.03 0  0.64 0.03 0  0.65 0.03 0  0.66 0.03 0  0.67 0.03 0  0.68 0.03 0  0.6899999999999999 0.03 0  0.7 0.03 0  0.71 0.03 0  0.72 0.03 0  0.73 0.03 0  0.74 0.03 0  0.75 0.03 0  0.76 0.03 0  0.77 0.03 0  0.78 0.03 0  0.79 0.03 0  0.8 0.03 0  0.8100000000000001 0.03 0  0.82 0.03 0  0.83 0.03 0  0.84 0.03 0  0.85 0.03 0  0.86 0.03 0  0.87 0.03 0  0.88 0.03 0  0.89 0.03 0  0.9 0.03 0  0.91 0.03 0  0.92 0.03 0  0.93 0.03 0  0.9399999999999999 0.03 0  0.95 0.03 0  0.96 0.03 0  0.97 0.03 0  0.98 0.03 0  0.99 0.03 0  1 0.03 0  0 0.04 0  0.01 0.04 0  0.02 0.04 0  0.03 0.04 0  0.04 0.04 0  0.05 0.04 0  0.06 0.04 0  0.07000000000000001 0.04 0  0.08 0.04 0  0.09 0.04 0  0.1 0.04 0  0.11 0.04 0  0.12 0.04 0  0.13 0.04 0  0.14 0.04 0  0.15 0.04 0  0.16 0.04 0  0.17 0.04 0  0.18 0.04 0  0.19 0.04 0  0.2 0.04 0  0.21 0.04 0  0.22 0.04 0  0.23 0.04 0  0.24 0.04 0  0.25 0.04 0  0.26 0.04 0  0.27 0.04 0  0.28 0.04 0  0.29 0.04 0  0.3 0.04 0  0.31 0.04 0  0.32 0.04 0  0.33 0.04 0  0.34 0.04 0  0.35 0.04 0  0.36 0.04 0  0.37 0.04 0  0.38 0.04 0  0.39 0.04 0  0.4 0.04 0  0.41 0.04 0  0.42 0.04 0  0.43 0.04 0  0.44 0.04 0  0.45 0.04 0  0.46 0.04 0  0.47 0.04 0  0.48 0.04 0  0.49 0.04 0  0.5 0.04 0  0.51 0.04 0  0.52 0.04 0  0.53 0.04 0  0.54 0.04 0  0.55 0.04 0  0.5600000000000001 0.04 0  0.57 0.04 0  0.58 0.04 0  0.59 0.04 0  0.6 0.04 0  0.61 0.04 0  0.62 0.04 0  0.63 0.04 0  0.64 0.04 0  0.65 0.04 0  0.66 0.04 0  0.67 0.04 0  0.68 0.04 0  0.6899999999999999 0.04 0  0.7 0.04 0  0.71 0.04 0  0.72 0.04 0  0.73 0.04 0  0.74 0.04 0  0.75 0.04 0  0.76 0.04 0  0.77 0.04 0  0.78 0.04 0  0.79 0.04 0  0.8 0.04 0  0.8100000000000001 0.04 0  0.82 0.04 0  0.83 0.04 0  0.84 0.04 0  0.85 0.04 0  0.86 0.04 0  0.87 0.04 0  0.88 0.04 0  0.89 0.04 0  0.9 0.04 0  0.91 0.04 0  0.92 0.04 0  0.93 0.04 0  0.9399999999999999 0.04 0  0.95 0.04 0  0.96 0.04 0  0.97 0.04 0  0.98 0.04 0  0.99 0.04 0  1 0.04 0  0 0.05 0  0.01 0.05 0  0.02 0.05 0  0.03 0.05 0  0.04 0.05 0  0.05 0.05 0  0.06 0.05 0  0.07000000000000001 0.05 0  0.08 0.05 0  0.09 0.05 0  0.1 0.05 0  0.11 0.05 0  0.12 0.05 0  0.13 0.05 0  0.14 0.05 0  0.15 0.05 0  0.16 0.05 0  0.17 0.05 0  0.18 0.05 0  0.19 0.05 0  0.2 0.05 0  0.21 0.05 0  0.22 0.05 0  0.23 0.05 0  0.24 0.05 0  0.25 0.05 0  0.26 0.05 0  0.27 0.05 0  0.28 0.05 0  0.29 0.05 0  0.3 0.05 0  0.31 0.05 0  0.32 0.05 0  0.33 0.05 0  0.34 0.05 0  0.35 0.05 0  0.36 0.05 0  0.37 0.05 0  0.38 0.05 0  0.39 0.05 0  0.4 0.05 0  0.41 0.05 0  0.42 0.05 0  0.43 0.05 0  0.44 0.05 0  0.45 0.05 0  0.46 0.05 0  0.47 0.05 0  0.48 0.05 0  0.49 0.05 0  0.5 0.05 0  0.51 0.05 0  0.52 0.05 0  0.53 0.05 0  0.54 0.05 0  0.55 0.05 0  0.5600000000000001 0.05 0  0.57 0.05 0  0.58 0.05 0  0.59 0.05 0  0.6 0.05 0  0.61 0.05 0  0.62 0.05 0  0.63 0.05 0  0.64 0.05 0  0.65 0.05 0  0.66 0.05 0  0.67 0.05 0  0.68 0.05 0  0.6899999999999999 0.05 0  0.7 0.05 0  0.71 0.05 0  0.72 0.05 0  0.73 0.05 0  0.74 0.05 0  0.75 0.05 0  0.76 0.05 0  0.77 0.05 0  0.78 0.05 0  0.79 0.05 0  0.8 0.05 0  0.8100000000000001 0.05 0  0.82 0.05 0  0.83 0.05 0  0.84 0.05 0  0.85 0.05 0  0.86 0.05 0  0.87 0.05 0  0.88 0.05 0  0.89 0.05 0  0.9 0.05 0  0.91 0.05 0  0.92 0.05 0  0.93 0.05 0  0.9399999999999999 0.05 0  0.95 0.05 0  0.96 0.05 0  0.97 0.05 0  0.98 0.05 0  0.99 0.05 0  1 0.05 0  0 0.06 0  0.01 0.06 0  0.02 0.06 0  0.03 0.06 0  0.04 0.06 0  0.05 0.06 0  0.06 0.06 0  0.07000000000000001 0.06 0  0.08 0.06 0  0.09 0.06 0  0.1 0.06 0  0.11 0.06 0  0.12 0.06 0  0.13 0.06 0  0.14 0.06 0  0.15 0.06 0  0.16 0.06 0  0.17 0.06 0  0.18 0.06 0  0.19 0.06 0  0.2 0.06 0  0.21 0.06 0  0.22 0.06 0  0.23 0.06 0  0.24 0.06 0  0.25 0.06 0  0.26 0.06 0  0.27 0.06 0  0.28 0.06 0  0.29 0.06 0  0.3 0.06 0  0.31 0.06 0  0.32 0.06 0  0.33 0.06 0  0.34 0.06 0  0.35 0.06 0  0.36 0.06 0  0.37 0.06 0  0.38 0.06 0  0.39 0.06 0  0.4 0.06 0  0.41 0.06 0  0.42 0.06 0  0.43 0.06 0  0.44 0.06 0  0.45 0.06 0  0.46 0.06 0  0.47 0.06 0  0.48 0.06 0  0.49 0.06 0  0.5 0.06 0  0.51 0.06 0  0.52 0.06 0  0.53 0.06 0  0.54 0.06 0  0.55 0.06 0  0.5600000000000001 0.06 0  0.57 0.06 0  0.58 0.06 0  0.59 0.06 0  0.6 0.06 0  0.61 0.06 0  0.62 0.06 0  0.63 0.06 0  0.64 0.06 0  0.65 0.06 0  0.66 0.06 0  0.67 0.06 0  0.68 0.06 0  0.6899999999999999 0.06 0  0.7 0.06 0  0.71 0.06 0  0.72 0.06 0  0.73 0.06 0  0.74 0.06 0  0.75 0.06 0  0.76 0.06 0  0.77 0.06 0  0.78 0.06 0  0.79 0.06 0  0.8 0.06 0  0.8100000000000001 0.06 0  0.82 0.06 0  0.83 0.06 0  0.84 0.06 0  0.85 0.06 0  0.86 0.06 0  0.87 0.06 0  0.88 0.06 0  0.89 0.06 0  0.9 0.06 0  0.91 0.06 0  0.92 0.06 0  0.93 0.06 0  0.9399999999999999 0.06 0  0.95 0.06 0  0.96 0.06 0  0.97 0.06 0  0.98 0.06 0  0.99 0.06 0  1 0.06 0  0 0.07000000000000001 0  0.01 0.07000000000000001 0  0.02 0.07000000000000001 0  0.03 0.07000000000000001 0  0.04 0.07000000000000001 0  0.05 0.07000000000000001 0  0.06 0.07000000000000001 0  0.07000000000000001 0.07000000000000001 0  0.08 0.07000000000000001 0  0.09 0.07000000000000001 0  0.1 0.07000000000000001 0  0.11 0.07000000000000001 0  0.12 0.07000000000000001 0  0.13 0.07000000000000001 0  0.14 0.07000000000000001 0  0.15 0.07000000000000001 0  0.16 0.07000000000000001 0  0.17 0.0700
[...]
<PointData  Scalars="Indicator Function"> 
<DataArray  type="Float64"  Name="Indicator Function"  format="ascii">-1.2037062152420224e-35  -5.6483846575776789e-20  1.9780568320742680e-20  2.3307024675318701e-20  3.2779789218343217e-19  -3.1273684719070014e-20  -2.6369970001880236e-20  6.6018764721667102e-19  8.4065439329784615e-19  3.9496610187628860e-36  4.2349381877424478e-18  1.5162851394296895e-18  -3.2698525318668324e-20  -3.3344932936415220e-20  8.2449302529347515e-18  -8.6972647581722313e-21  2.5653988712345603e-34  1.9887705130917965e-18  -3.4672865982693033e-20  -9.0277966143151681e-36  6.5810074992631639e-18  -6.0185310762101120e-36  -3.6405210384118228e-20  1.0392273246707269e-17  -4.5877255367924993e-20  -2.4113508545330769e-20  -1.8142253001138136e-20  -4.2714290572986744e-20  4.1051993822075615e-17  -1.6626319978671633e-20  -7.3666960527900168e-20  -2.6867020447853367e-20  -4.4551823775521519e-20  -2.5212584313181320e-20  5.8676567033377442e-18  -7.8804451367316897e-20  -1.1009467098893096e-19  -1.2762643368089204e-19  -1.3370471764926451e-19  -1.3112848377875792e-19  8.9981004473423379e-18  -6.6863682917652713e-20  -2.3526774758952468e-20  -2.9897597557770622e-20  -2.5588619001415352e-20  -2.0679465225659837e-20  2.0507512220653103e-17  -1.5011498023536961e-20  -9.9832094879470188e-21  -7.2822083082615042e-21  -2.0148870568862245e-20  -1.1484473448490138e-20  -8.4183013482141291e-21  -1.1477383136603789e-20  -8.4384203171739277e-21  -1.3552712170155076e-21  6.5751808032001782e-19  -4.7019774032891500e-38  2.3509887016445750e-38  -1.4105932209867450e-37  -1.2675615364855939e-23  -6.3378076824280842e-24  -2.5544085068207748e-22  -3.4837704759077868e-22  -4.7019774032891500e-38  -4.2106306318567125e-23  -3.7191213886059043e-22  -1.8151294679664521e-22  7.2112370847326756e-19  -9.4039548065783001e-38  -3.9047130382950011e-23  -2.4238050849720664e-22  -1.6145037105000291e-22  -2.6047912707217441e-22  -2.9119676924552673e-22  -3.7343812473937879e-23  -1.1049224201872828e-22  -1.1706712651217881e-22  4.7019774032891500e-38  -1.8319402495489960e-22  -5.0943637299653656e-22  4.1183637716971681e-20  -2.0216260483579121e-22  -5.8960433152073750e-22  -7.2935910301855859e-22  -5.0889348132230801e-22  -8.5746063290452213e-23  -2.1537695662989941e-23  -1.8459464929296035e-22  -1.4497194507728128e-22  -2.0642817076260089e-22  -1.6599802335349234e-22  -1.3468173198296978e-22  4.7274395982834466e-20  -8.2345393238944765e-23  -5.9752523468081466e-23  -4.3369442054337787e-23  -7.4902336646432737e-24  -4.7072348012957625e-24  -3.6871858546826255e-24  0.0000000000000000e+00  -2.8981065327427605e-20  4.6605937731755801e-04  2.1777765220271553e-04  1.2906722693617492e-04  3.3743324916345939e-04  2.4613865648330838e-04  4.4030729114757005e-04  2.5488550272317184e-04  6.6313377175160641e-04  8.5709842393261499e-05  2.2322380811871316e-06  4.1218688005944290e-04  6.8829536102125468e-04  2.4489658525225023e-04  4.7824061756240784e-04  1.8762809363579355e-04  6.2861946478291229e-05  7.1678687820060064e-04  1.3440439200958120e-04  6.2461082527809396e-04  1.3416981886156396e-04  3.1861672148441743e-04  1.6294152147455228e-04  5.7434720694376573e-04  2.4151449769262530e-04  8.6878070479477515e-04  6.5364355084469568e-04  8.1697870047708107e-04  3.6098290219304936e-04  5.9902630768390527e-04  7.1815911542361902e-04  9.6798642622006304e-04  6.0585142223283021e-04  4.9964859670004376e-04  2.0436524292153659e-04  6.3611002962785795e-04  1.1015597764380098e-03  1.4325093887459018e-03  1.5828587422986114e-03  1.6171806951823140e-03  1.5536104151435319e-03  1.2356019342145762e-03  5.8670806278295063e-04  4.2382069615059148e-04  3.2667688880649978e-04  7.4505625507605665e-04  6.1134035400825884e-04  5.4084621524059194e-04  3.5968302823903830e-04  1.4096898259211449e-04  1.3118460249408331e-04  4.1377176274533207e-04  3.8075941970744391e-05  1.3261266427426656e-04  1.4045182153165554e-04  8.1787155618252694e-05  6.0014174349284371e-05  3.1409835120882797e-05  1.3240270654557482e-05  6.6249964403396084e-06  3.1416728734060334e-06  2.2834358653542824e-07  7.3169834051089463e-07  4.6016132797880249e-06  6.2758029668570602e-06  1.5170395635699804e-06  3.6350919334664729e-06  7.6264693756700710e-06  3.2698465582249924e-06  2.1684562701161897e-06  1.4068211347403261e-06  8.7326781419991292e-06  5.1085125439379879e-06  9.3847495969602923e-06  9.0365786650074852e-06  7.2744531335884441e-07  3.0900366308946238e-07  4.2177877387006630e-06  2.9644646487839665e-06  7.6330354860097762e-07  6.9932225508282916e-06  5.6805785629705916e-06  1.8085075947639095e-06  3.6418377272268720e-06  8.8004485273178601e-06  8.7387412746357070e-06  4.7980393340998264e-06  2.4329262353268514e-06  3.8798863264904327e-07  3.1313672587569326e-06  1.0458987619384137e-06  3.1957299507316821e-06  1.7799937452393836e-06  1.5362135192687602e-06  1.9601021186915765e-06  5.0335166988056649e-07  1.0228206079453700e-06  2.6986410832804282e-07  1.6959600717648824e-07  1.3284487072955538e-07  4.7019774032891500e-38  -1.4471665152879402e-20  5.2207646003761164e-04  1.3965630854208367e-04  9.8551774007314607e-05  2.5566042644202286e-05  3.9647322532333724e-04  5.0038700688702820e-04  6.0588594426549578e-04  7.2593626294126701e-04  2.3470961149786490e-05  3.5300809514042189e-04  4.0847301911427144e-04  5.1047957767958927e-04  9.7427759574140224e-04  7.3665167107804747e-04  5.0839038074825037e-04  1.1542822711270357e-03  4.5875599248369246e-05  5.3679786091229695e-04  8.3310550744358032e-04  3.9478435577296222e-04  1.4636599056085775e-03  9.5564447805735191e-04  1.5881739619008398e-03  8.7787335481235727e-04  1.0968204583682180e-03  5.6133034813378979e-05  3.7021706473933005e-04  1.6228732936654526e-03  1.0863669610339187e-03  1.7570491649122275e-04  1.6021562289411746e-03  1.8849140215417118e-04  1.1449095448225609e-03  5.4786649063057993e-04  5.7416300120512176e-04  1.3941141459427279e-03  1.8419387351379971e-03  2.1711263338996677e-03  2.2932173263090342e-03  2.2374725470844722e-03  2.0188758516111890e-03  1.4576513717942132e-03  3.1275233565243880e-04  1.0049422494368878e-03  8.7566871882139739e-04  7.3529871354982795e-04  1.0748064944133217e-03  8.6312984817829596e-04  1.9055691941997663e-04  3.8500147720648401e-04  4.9370069028581681e-04  3.7939996768159988e-04  3.6362638455978021e-04  1.7827136778323339e-04  1.2651887303792789e-04  7.0253726371748387e-05  6.9349698788415142e-05  3.1443956958459683e-05  1.5761280833102640e-05  6.3899481851834066e-06  3.9491870684324928e-06  1.5082691684344347e-06  7.4740419257405138e-06  8.8969330295592998e-06  1.2908547690658701e-06  8.6147691671245513e-07  6.8223339938894082e-06  4.8124299187113935e-06  1.0137029187918597e-05  1.2557683254129825e-05  1.1340953910381359e-05  1.5522715101353683e-05  5.1820901018956792e-06  2.8749866236146743e-06  1.0702837401538547e-05  1.6659057122092493e-06  9.7384102299314241e-06  5.0636920416154445e-06  9.7601228673177974e-06  3.7211712446097548e-06  1.0236681684904479e-05  6.8995517485335730e-06  4.9914632076011694e-06  1.0971999899647244e-05  9.9923987273750564e-06  8.8579458006609987e-06  4.2820774181127376e-06  3.4550804351750385e-07  8.8719618137248514e-07  3.5904504067986369e-06  2.4764465372690819e-06  2.2465206927314935e-06  3.0973786209271095e-06  1.6828907684048027e-06  1.8442275679230232e-06  1.1385761703518807e-06  7.9153234329275065e-07  3.3667106306437424e-07  4.0144031892289339e-07  -1.4627641277273238e-22  -2.1210452002516495e-20  2.6069834315975399e-04  4.4529190683969221e-04  4.1826783552312113e-05  4.5681714223400315e-04  6.5423298914709879e-04  5.6161893300587455e-04  7.8483124084432587e-04  1.7625544596714713e-04  1.3194504682833568e-03  4.8279238790770683e-04  3.6892375984250106e-06  1.0156973529680967e-03  1.0899078922736209e-03  1.0166315993776458e-04  1.0899861399660622e-03  3.1433338721622981e-04  4.5076588572341578e-04  1.3360092762968326e-03  7.4586632656600143e-04  1.6739269143669201e-03  5.3871404426813400e-04  1.1365756446895753e-03  4.2489774894546205e-04  1.6808658676897550e-03  1.4263791367926505e-03  2.2814154497573800e-03  1.8817353131461527e-03  1.7407848095173212e-03  8.3218140594845734e-04  1.9922814527928577e-03  1.6287320901294876e-03  1.9666372434572850e-03  1.9663743459974277e-03  9.6129091280990238e-04  9.6522275511378409e-05  1.5710088530229629e-03  1.9694873199598913e-03  2.3505104031940559e-03  2.5755764982530265e-03  2.6379693294221276e-03  2.5018420795251649e-03  1.8720600637173888e-03  8.2130651386354335e-04  1.1365389994263094e-03  6.1099956488081344e-04  2.1221090754476057e-03  1.4367864848434820e-03  9.6355097518163583e-04  7.1387278896143378e-04  5.4063263652295173e-04  5.1448991123404105e-04  1.0375506341368146e-03  2.3820757255923653e-04  3.9485238351947308e-04  1.5475482105028969e-04  3.4769831895097119e-05  7.1201503037950431e-05  5.7958738815517198e-05  2.5212324350072393e-05  1.4485858846867051e-05  4.7694120083724810e-06  1.5978819083466465e-07  1.2071393021614230e-06  1.0876191649269433e-05  1.5139644020089204e-05  3.2719100810676110e-06  4.7361902984388950e-06  1.9276140588007639e-05  2.3961782811251205e-05  8.9593482276952570e-06  5.9193354758229241e-06  1.9655826013504884e-06  2.1788531205390444e-06  7.2211535720660848e-06  1.4968788844546018e-05  5.7021360827526813e-06  5.4437985187303391e-06  1.6752224097759848e-05  4.4681506354577455e-06  7.7582384928694954e-06  1.2504451776735797e-05  8.8490706493194037e-06  1.1513839926528524e-06  1.1593021951713177e-05  1.3414067245847039e-05  9.1893945980969867e-06  5.5628389542122927e-06  2.2614529088465634e-06  5.9559247585262123e-07  2.2009472894454232e-06  2.3532260302785705e-06  1.7419158037145373e-06  2.8976600193903506e-06  1.2718229571318112e-06  1.9428196205926523e-06  1.0052193269922414e-06  1.3049665637887329e-06  1.1214376263122471e-06  1.3014015403144605e-07  -1.8060574429246793e-23  -1.8905663827117508e-20  3.8209353493957301e-04  5.1623747350845555e-04  6.8005083314553712e-05  1.4397651542869693e-04  5.0018994263383444e-04  7.4337280920283827e-04  1.1087344925441523e-03  9.8461558028296479e-04  6.0745424824517507e-04  1.2926964264502199e-04  2.8737821379788497e-04  2.8934311615590126e-04  8.1977646076843006e-04  1.5121164876418711e-03  4.1766538663002824e-04  6.6224946618608524e-04  1.5782295807937471e-03  4.2832012448982540e-04  1.2244225631910476e-03  4.8252751301169493e-04  2.6196477223524358e-04  1.8424765389290834e-03  1.4592625967868029e-03  2.1949942948610596e-03  1.0624683278688061e-03  1.0637233688531530e-03  6.4523447470164036e-04  1.4619831063093299e-03  3.0372740291050642e-03  1.6827619151914264e-03  8.7596845997067198e-04  2.9344933192031711e-03  4.8903850730157197e-04  2.5258947384574674e-03  6.4731210927259644e-04  9.9349186612799918e-04  2.2166707299137883e-03  2.4333312368937710e-03  2.7402034490075339e-03  2.8657750431307018e-03  2.7964846648698681e-03  2.5343975329832676e-03  1.6975667966077552e-03  7.3350591046607164e-04  1.7233284061302339e-03  1.4444445400305880e-03  1.7343341789900814e-03  2.5044931332983047e-03  1.9434291091628328e-03  8.2717042073670232e-04  2.7658904438715562e-04  5.8178294380926596e-04  7.6755358468106748e-04  7.6714738501514263e-04  2.7468696753396040e-04  7.3800848799561878e-05  6.0819788823343017e-06  7.5225715778837432e-05  4.1667303471007017e-05  2.2518472129431904e-05  1.0789684166244430e-05  5.8125803286519992e-06  1.5581332753292092e-06  8.3553205146574805e-06  6.7587947984689873e-06  1.3819968396977061e-06  3.9047292869676426e-06  3.2285254499729164e-06  1.3707293643042172e-06  2.2836527838273984e-05  2.1507373123276504e-06  2.9823416971610089e-06  1.1725671862898031e-05  2.0841050205940294e-06  3.7766558917894398e-06  1.7184297512799146e-05  1.4486202386978198e-06  1.5272117742522819e-05  1.5726958832477474e-05  1.1624508889378801e-05  5.9173616810547824e-06  1.5595116089439276e-05  4.6308391083193710e-06  9.8082923335278106e-06  1.6870575544130525e-05  1.1714849902027953e-05  6.8502806023992947e-06  4.1526795970926820e-06  5.8887054234447757e-07  1.5396861749967641e-06  9.5821475643055928e-07  3.3990700326388140e-06  7.0092251176963961e-07  2.6675792643819376e-06  1.7628823989159367e-06  1.4163602620065725e-06  1.7344463664144764e-06  1.1629099006894539e-06  8.8254232486050175e-07  2.2045923208492723e-22  -1.7797682859172048e-20  3.4057416226799278e-04  5.5501994806491240e-04  8.5902629818473161e-04  1.3514915976889957e-04  4.9440608326055456e-04  5.6133804667242990e-04  5.2712619944826871e-04  1.2173167499557104e-03  3.8162197362144601e-04  1.6454049668599455e-03  9.2727506686421303e-04  1.6943282643665499e-04  1.2896435125165865e-03  1.1793358305697155e-03  2.8213633830933421e-04  1.2820944033482735e-03  9.7523168950536948e-04  1.1229806526137679e-03  1.1943786606562359e-03  7.8512392959959509e-04  2.1300052477811870e-03  1.1562326380307234e-03  1.9872543997107132e-03  1.2256348839636980e-03  2.7051638446041917e-03  2.4124848839230779e-03  3.2311118157433631e-03  2.4236294123865985e-03  1.7666563319907842e-03  1.7260048390557970e-03  3.2340232641659503e-03  1.9464429953333859e-03  3.2291821259724878e-03  2.6294709796508488e-03  1.7513230971746717e-03  1.0216954460442189e-05  2.2111295618422520e-03  2.6264251743928694e-03  2.8444741258405832e-03  3.0499223164330729e-03  3.1123963740009573e-03  2.9385822655792725e-03  2.1813808724686140e-03  9.0113152647149184e-04  1.8658912296953916e-03  1.0953108317132935e-03  3.2763601508868988e-03  1.4802020127406524e-03  3.8598433782406529e-04  2.6295917925296431e-04  4.5106673355878345e-04  8.3459543389100975e-04  1.4669875202233812e-03  1.8772765539847871e-04  7.5554068900902341e-04  1.6350421571592128e-04  3.9909055560857686e-05  2.5525102831528940e-05  6.7616657325777655e-05  2.9040167838624770e-05  1.8608752078338509e-05  7.3789219906990064e-06  3.4667374984858751e-06  1.5968174286453908e-06  8.3071871650420761e-06  1.4335760212887164e-05  2.7311144506640993e-06  5.0296188332109122e-06  1.1161702347032532e-05  1.1699525535511264e-05  1.6994195143317308e-05  1.9968780625220307e-05  1.0396035825523908e-05  6.6739493490028197e-06  3.0058351712096028e-06  7.8289822175711578e-06  1.7522067658355998e-05  1.4116110664406319e-05  1.9562834320732988e-05  2.6310864933458661e-06  1.0445644723845790e-05  1.1842652564724934e-05  1.6535937678008807e-05  6.6926959128637262e-06  1.7466847709084283e-05  1.6548190561739299e-05  9.8524868068565493e-06  3.3254291434451178e-06  1.1025078358223974e-06  6.1161051251641048e-07  2.3790090396255900e-06  8.1611016886572267e-07  1.6291073412873619e-06  2.5790262545993550e-06  1.9229253211667580e-06  2.0449982345667985e-06  1.5604615151475537e-06  1.2445434128372000e-06  1.1115563973891064e-06  -6.1703775277538760e-23  -8.2933944724947710e-21  3.2061455157050204e-04  5.8368002248206736e-04  4.7269397849961510e-04  6.0107484811123082e-04  2.0825694364853408e-04  5.7972943843519469e-04  1.0549242631183657e-03  1.4183180741013095e-03  1.2678963424060750e-03  5.3637831318268086e-04  5.0111209718443862e-04  1.1791397940866003e-04  2.5875224254548094e-04  1.2846963121615426e-03  1.7967403267655851e-03  1.5708068356749905e-04  4.4257642081480274e-04  1.2584329307993773e-03  1.9560026625907448e-04  1.5976214237739164e-03  4.4604936442709097e-05  2.7149662405730765e-04  1.4671964961919721e-03  1.2168729070155771e-03  2.0303649935582732e-03  5.7550376749294961e-04  4.7166105291557650e-04  1.4729151528908389e-03  2.3553429209475637e-03  3.9920779319525613e-03  1.7129931583371315e-03  1.9339668650644973e-03  3.9476757610223019e-03  1.0847063511302047e-03  3.7223314839907400e-03  9.4018804221778635e-04  1.2801500914000679e-03  3.0091163073121502e-03  3.0239380118340371e-03  3.2252968469781117e-03  3.3408226827009047e-03  3.2723433376393306e-03  2.9603402729990198e-03  1.8448846172452354e-03  9.7135028552363745e-04  2.5412670044772626e-03  1.6814862965678771e-03  2.8311597988443706e-03  3.3072201144175766e-03  2.2658764425482997e-03  1.0991907900462306e-03  3.5722538969737860e-05  3.7089186646489932e-04  1.2082877581575510e-03  9.6798405676120356e-04  4.8906212626488197e-04  3.1019096071500421e-05  8.9422096718096543e-05  6.3667094862796965e-05  5.4186501638040493e-05  2.6158215130377419e-05  1.3152746979424710e-05  5.0888934565173902e-06  2.2513857971280381e-06  1.0293960823392124e-05  6.4782712989370515e-06  1.2231328894533456e-06  6.4689363646105305e-06  1.4083689076980467e-06  2.6571202526053293e-06  1.5066493919814137e-06  7.6979156647493756e-06  1.4663460738486022e-05  1.7660407155843153e-05  1.1183022110869399e-05  1.3444022870498667e-05  9.9715847288806932e-06  1.1629323951267184e-05  2.3027385392707214e-05  1.5633019865873995e-05  8.1091594534030212e-06  1.4185226251768526e-05  1.5962105464020150e-05  1.0587964755513403e-05  1.5912779694755926e-05  2.1762780573108973e-05  1.2569250921954326e-05  5.1950182626708499e-06  9.8604812504615921e-07  1.6384360759078209e-06  2.1131052009245940e-06  7.1472932561545772e-07  1.5182707077324953e-06  2.3852939874839723e-06  1.7921013109047445e-06  2.6834740031179036e-06  1.0130344510069201e-06  1.4645165810529440e-06  9.8309322557336195e-07  -5.4572636719227913e-23  -1.9360326661155999e-20  1.4940051302385593e-04  4.4489600765999261e-04  7.5264915650821783e-04  7.8608186447401895e-04  7.2798339999200306e-05  6.2241428533557944e-04  3.2340270522828303e-04  2.2640204693406927e-04  1.6094765392501234e-03  6.1198394756907352e-04  1.5796249614410801e-03  8.9774233158277381e-04  9.4037390897087927e-05  1.2978694831171549e-03  1.4643752934907106e-03  6.1218580017200657e-04  1.0404916298372444e-03  1.0488402156800982e-03  1.3461189121679949e-03  1.0349480351351311e-03  3.4840848019826931e-04  1.8763673353273495e-03  9.4060268296463679e-04  2.1589483647002756e-03  1.3862589400475422e-03  3.0148855833847859e-03  2.5248854614178711e-03  3.3091034679070836e-03  2.2239491621389531e-03  1.3381644797845463e-03  2.6586820098648697e-03  3.8924283498105003e-03  1.8165649334371781e-03  4.5318541716752349e-03  2.8673257675265358e-03  2.9007264282105644e-03  5.5499876479788255e-05  2.6875880159906609e-03  3.4641435846499320e-03  3.4491756290043096e-03  3.5781838979128118e-03  3.6319452090315591e-03  3.4269711573874664e-03  2.5268963006150245e-03  9.0070603715321684e-04  2.4516656174339781e-03  1.6528691907510269e-03  4.0292138937470297e-03  1.1031627615012910e-03  4.0643801940949784e-04  3.8565809718962423e-04  3.7386837660027690e-05  7.1051265129582332e-04  1.5460939856229636e-03  6.6565120554428620e-05  1.0834442704915740e-03  2.3980536435690925e-04  1.0752280778620295e-04  5.0875220432659562e-05  7.2128164411805335e-05  3.9255894575157274e-05  2.4333349834180446e-05  1.0904596667013433e-05  4.2604424968863979e-06  1.4377462947751432e-06  7.8433010102358318e-06  9.5626362837162258e-06  5.5215605914528080e-07  8.6264271776049415e-06  2.5779617630811339e-06  7.1556744256638543e-06  3.0606452198217712e-06  6.9592283102017969e-06  9.5046936977947712e-06  1.6253146171952924e-05  4.1708250322572144e-06  2.0458709175681398e-05  9.3204402308929694e-06  6.6541665686758506e-06  2.7129297347619130e-05  5.4956203464702044e-06  8.4529455637126336e-06  1.4871898533189875e-05  1.8503979453973895e-05  4.0684356755790281e-06  2.3395449451768485e-05  1.9579461875007770e-05  9.1829639266259402e-06  2.3902256838414659e-06  2.7437933309619216e-06  2.3684781178822754e-06  2.2287782493546166e-06  2.0911699587748395e-06  4.6777121123616598e-07  3.0329068793085045e-06  1.9621857494743350e-06  1.7570653551929152e-06  1.7888258489523997e-06  8.7554730075694896e-07  -9.1992723436264184e-23  -8.2974432354348263e-21  3.4876463974781391e-04  5.5027610175388726e-04  6.2911829079545718e-04  5.5222065132577020e-04  8.9749698681295916e-04  8.6813524608918302e-05  4.7438043526609736e-04  9.4538149778568541e-04  1.4165041475675778e-03  1.6168871717534149e-03  6.9349159707719809e-04  5.3566692091595121e-04  4.1188562863244354e-04  3.5435696222842195e-04  1.5344143076146048e-03  1.9553240594725875e-0