<?xml version="1.0"?>
<VTKFile type="UnstructuredGrid"  version="0.1"  >
<UnstructuredGrid>
<Piece  NumberOfPoints="10201" NumberOfCells="20000">
<Points>
<DataArray  type="Float64"  NumberOfComponents="3"  format="ascii">0 0 0  0.01 0 0  0.02 0 0  0.03 0 0  0.04 0 0  0.05 0 0  0.06 0 0  0.07000000000000001 0 0  0.08 0 0  0.09 0 0  0.1 0 0  0.11 0 0  0.12 0 0  0.13 0 0  0.14 0 0  0.15 0 0  0.16 0 0  0.17 0 0  0.18 0 0  0.19 0 0  0.2 0 0  0.21 0 0  0.22 0 0  0.23 0 0  0.24 0 0  0.25 0 0  0.26 0 0  0.27 0 0  0.28 0 0  0.29 0 0  0.3 0 0  0.31 0 0  0.32 0 0  0.33 0 0  0.34 0 0  0.35 0 0  0.36 0 0  0.37 0 0  0.38 0 0  0.39 0 0  0.4 0 0  0.41 0 0  0.42 0 0  0.43 0 0  0.44 0 0  0.45 0 0  0.46 0 0  0.47 0 0  0.48 0 0  0.49 0 0  0.5 0 0  0.51 0 0  0.52 0 0  0.53 0 0  0.54 0 0  0.55 0 0  0.5600000000000001 0 0  0.57 0 0  0.58 0 0  0.59 0 0  0.6 0 0  0.61 0 0  0.62 0 0  0.63 0 0  0.64 0 0  0.65 0 0  0.66 0 0  0.67 0 0  0.68 0 0  0.6899999999999999 0 0  0.7 0 0  0.71 0 0  0.72 0 0  0.73 0 0  0.74 0 0  0.75 0 0  0.76 0 0  0.77 0 0  0.78 0 0  0.79 0 0  0.8 0 0  0.8100000000000001 0 0  0.82 0 0  0.83 0 0  0.84 0 0  0.85 0 0  0.86 0 0  0.87 0 0  0.88 0 0  0.89 0 0  0.9 0 0  0.91 0 0  0.92 0 0  0.93 0 0  0.9399999999999999 0 0  0.95 0 0  0.96 0 0  0.97 0 0  0.98 0 0  0.99 0 0  1 0 0  0 0.01 0  0.01 0.01 0  0.02 0.01 0  0.03 0.01 0  0.04 0.01 0  0.05 0.01 0  0.06 0.01 0  0.07000000000000001 0.01 0  0.08 0.01 0  0.09 0.01 0  0.1 0.01 0  0.11 0.01 0  0.12 0.01 0  0.13 0.01 0  0.14 0.01 0  0.15 0.01 0  0.16 0.01 0  0.17 0.01 0  0.18 0.01 0  0.19 0.01 0  0.2 0.01 0  0.21 0.01 0  0.22 0.01 0  0.23 0.01 0  0.24 0.01 0  0.25 0.01 0  0.26 0.01 0  0.27 0.01 0  0.28 0.01 0  0.29 0.01 0  0.3 0.01 0  0.31 0.01 0  0.32 0.01 0  0.33 0.01 0  0.34 0.01 0  0.35 0.01 0  0.36 0.01 0  0.37 0.01 0  0.38 0.01 0  0.39 0.01 0  0.4 0.01 0  0.41 0.01 0  0.42 0.01 0  0.43 0.01 0  0.44 0.01 0  0.45 0.01 0  0.46 0.01 0  0.47 0.01 0  0.48 0.01 0  0.49 0.01 0  0.5 0.01 0  0.51 0.01 0  0.52 0.01 0  0.53 0.01 0  0.54 0.01 0  0.55 0.01 0  0.5600000000000001 0.01 0  0.57 0.01 0  0.58 0.01 0  0.59 0.01 0  0.6 0.01 0  0.61 0.01 0  0.62 0.01 0  0.63 0.01 0  0.64 0.01 0  0.65 0.01 0  0.66 0.01 0  0.67 0.01 0  0.68 0.01 0  0.6899999999999999 0.01 0  0.7 0.01 0  0.71 0.01 0  0.72 0.01 0  0.73 0.01 0  0.74 0.01 0  0.75 0.01 0  0.76 0.01 0  0.77 0.01 0  0.78 0.01 0  0.79 0.01 0  0.8 0.01 0  0.8100000000000001 0.01 0  0.82 0.01 0  0.83 0.01 0  0.84 0.01 0  0.85 0.01 0  0.86 0.01 0  0.87 0.01 0  0.88 0.01 0  0.89 0.01 0  0.9 0.01 0  0.91 0.01 0  0.92 0.01 0  0.93 0.01 0  0.9399999999999999 0.01 0  0.95 0.01 0  0.96 0.01 0  0.97 0.01 0  0.98 0.01 0  0.99 0.01 0  1 0.01 0  0 0.02 0  0.01 0.02 0  0.02 0.02 0  0.03 0.02 0  0.04 0.02 0  0.05 0.02 0  0.06 0.02 0  0.07000000000000001 0.02 0  0.08 0.02 0  0.09 0.02 0  0.1 0.02 0  0.11 0.02 0  0.12 0.02 0  0.13 0.02 0  0.14 0.02 0  0.15 0.02 0  0.16 0.02 0  0.17 0.02 0  0.18 0.02 0  0.19 0.02 0  0.2 0.02 0  0.21 0.02 0  0.22 0.02 0  0.23 0.02 0  0.24 0.02 0  0.25 0.02 0  0.26 0.02 0  0.27 0.02 0  0.28 0.02 0  0.29 0.02 0  0.3 0.02 0  0.31 0.02 0  0.32 0.02 0  0.33 0.02 0  0.34 0.02 0  0.35 0.02 0  0.36 0.02 0  0.37 0.02 0  0.38 0.02 0  0.39 0.02 0  0.4 0.02 0  0.41 0.02 0  0.42 0.02 0  0.43 0.02 0  0.44 0.02 0  0.45 0.02 0  0.46 0.02 0  0.47 0.02 0  0.48 0.02 0  0.49 0.02 0  0.5 0.02 0  0.51 0.02 0  0.52 0.02 0  0.53 0.02 0  0.54 0.02 0  0.55 0.02 0  0.5600000000000001 0.02 0  0.57 0.02 0  0.58 0.02 0  0.59 0.02 0  0.6 0.02 0  0.61 0.02 0  0.62 0.02 0  0.63 0.02 0  0.64 0.02 0  0.65 0.02 0  0.66 0.02 0  0.67 0.02 0  0.68 0.02 0  0.6899999999999999 0.02 0  0.7 0.02 0  0.71 0.02 0  0.72 0.02 0  0.73 0.02 0  0.74 0.02 0  0.75 0.02 0  0.76 0.02 0  0.77 0.02 0  0.78 0.02 0  0.79 0.02 0  0.8 0.02 0  0.8100000000000001 0.02 0  0.82 0.02 0  0.83 0.02 0  0.84 0.02 0  0.85 0.02 0  0.86 0.02 0  0.87 0.02 0  0.88 0.02 0  0.89 0.02 0  0.9 0.02 0  0.91 0.02 0  0.92 0.02 0  0.93 0.02 0  0.9399999999999999 0.02 0  0.95 0.02 0  0.96 0.02 0  0.97 0.02 0  0.98 0.02 0  0.99 0.02 0  1 0.02 0  0 0.03 0  0.01 0.03 0  0.02 0.03 0  0.03 0.03 0  0.04 0.03 0  0.05 0.03 0  0.06 0.03 0  0.07000000000000001 0.03 0  0.08 0.03 0  0.09 0.03 0  0.1 0.03 0  0.11 0.03 0  0.12 0.03 0  0.13 0.03 0  0.14 0.03 0  0.15 0.03 0  0.16 0.03 0  0.17 0.03 0  0.18 0.03 0  0.19 0.03 0  0.2 0.03 0  0.21 0.03 0  0.22 0.03 0  0.23 0.03 0  0.24 0.03 0  0.25 0.03 0  0.26 0.03 0  0.27 0.03 0  0.28 0.03 0  0.29 0.03 0  0.3 0.03 0  0.31 0.03 0  0.32 0.03 0  0.33 0.03 0  0.34 0.03 0  0.35 0.03 0  0.36 0.03 0  0.37 0.03 0  0.38 0.03 0  0.39 0.03 0  0.4 0.03 0  0.41 0.03 0  0.42 0.03 0  0.43 0.03 0  0.44 0.03 0  0.45 0.03 0  0.46 0.03 0  0.47 0.03 0  0.48 0.03 0  0.49 0.03 0  0.5 0.03 0  0.51 0.03 0  0.52 0.03 0  0.53 0.03 0  0.54 0.03 0  0.55 0.03 0  0.5600000000000001 0.03 0  0.57 0.03 0  0.58 0.03 0  0.59 0.03 0  0.6 0.03 0  0.61 0.03 0  0.62 0.03 0  0.63 0.03 0  0.64 0.03 0  0.65 0.03 0  0.66 0.03 0  0.67 0.03 0  0.68 0.03 0  0.6899999999999999 0.03 0  0.7 0.03 0  0.71 0.03 0  0.72 0.03 0  0.73 0.03 0  0.74 0.03 0  0.75 0.03 0  0.76 0.03 0  0.77 0.03 0  0.78 0.03 0  0.79 0.03 0  0.8 0.03 0  0.8100000000000001 0.03 0  0.82 0.03 0  0.83 0.03 0  0.84 0.03 0  0.85 0.03 0  0.86 0.03 0  0.87 0.03 0  0.88 0.03 0  0.89 0.03 0  0.9 0.03 0  0.91 0.03 0  0.92 0.03 0  0.93 0.03 0  0.9399999999999999 0.03 0  0.95 0.03 0  0.96 0.03 0  0.97 0.03 0  0.98 0.03 0  0.99 0.03 0  1 0.03 0  0 0.04 0  0.01 0.04 0  0.02 0.04 0  0.03 0.04 0  0.04 0.04 0  0.05 0.04 0  0.06 0.04 0  0.07000000000000001 0.04 0  0.08 0.04 0  0.09 0.04 0  0.1 0.04 0  0.11 0.04 0  0.12 0.04 0  0.13 0.04 0  0.14 0.04 0  0.15 0.04 0  0.16 0.04 0  0.17 0.04 0  0.18 0.04 0  0.19 0.04 0  0.2 0.04 0  0.21 0.04 0  0.22 0.04 0  0.23 0.04 0  0.24 0.04 0  0.25 0.04 0  0.26 0.04 0  0.27 0.04 0  0.28 0.04 0  0.29 0.04 0  0.3 0.04 0  0.31 0.04 0  0.32 0.04 0  0.33 0.04 0  0.34 0.04 0  0.35 0.04 0  0.36 0.04 0  0.37 0.04 0  0.38 0.04 0  0.39 0.04 0  0.4 0.04 0  0.41 0.04 0  0.42 0.04 0  0.43 0.04 0  0.44 0.04 0  0.45 0.04 0  0.46 0.04 0  0.47 0.04 0  0.48 0.04 0  0.49 0.04 0  0.5 0.04 0  0.51 0.04 0  0.52 0.04 0  0.53 0.04 0  0.54 0.04 0  0.55 0.04 0  0.5600000000000001 0.04 0  0.57 0.04 0  0.58 0.04 0  0.59 0.04 0  0.6 0.04 0  0.61 0.04 0  0.62 0.04 0  0.63 0.04 0  0.64 0.04 0  0.65 0.04 0  0.66 0.04 0  0.67 0.04 0  0.68 0.04 0  0.6899999999999999 0.04 0  0.7 0.04 0  0.71 0.04 0  0.72 0.04 0  0.73 0.04 0  0.74 0.04 0  0.75 0.04 0  0.76 0.04 0  0.77 0.04 0  0.78 0.04 0  0.79 0.04 0  0.8 0.04 0  0.8100000000000001 0.04 0  0.82 0.04 0  0.83 0.04 0  0.84 0.04 0  0.85 0.04 0  0.86 0.04 0  0.87 0.04 0  0.88 0.04 0  0.89 0.04 0  0.9 0.04 0  0.91 0.04 0  0.92 0.04 0  0.93 0.04 0  0.9399999999999999 0.04 0  0.95 0.04 0  0.96 0.04 0  0.97 0.04 0  0.98 0.04 0  0.99 0.04 0  1 0.04 0  0 0.05 0  0.01 0.05 0  0.02 0.05 0  0.03 0.05 0  0.04 0.05 0  0.05 0.05 0  0.06 0.05 0  0.07000000000000001 0.05 0  0.08 0.05 0  0.09 0.05 0  0.1 0.05 0  0.11 0.05 0  0.12 0.05 0  0.13 0.05 0  0.14 0.05 0  0.15 0.05 0  0.16 0.05 0  0.17 0.05 0  0.18 0.05 0  0.19 0.05 0  0.2 0.05 0  0.21 0.05 0  0.22 0.05 0  0.23 0.05 0  0.24 0.05 0  0.25 0.05 0  0.26 0.05 0  0.27 0.05 0  0.28 0.05 0  0.29 0.05 0  0.3 0.05 0  0.31 0.05 0  0.32 0.05 0  0.33 0.05 0  0.34 0.05 0  0.35 0.05 0  0.36 0.05 0  0.37 0.05 0  0.38 0.05 0  0.39 0.05 0  0.4 0.05 0  0.41 0.05 0  0.42 0.05 0  0.43 0.05 0  0.44 0.05 0  0.45 0.05 0  0.46 0.05 0  0.47 0.05 0  0.48 0.05 0  0.49 0.05 0  0.5 0.05 0  0.51 0.05 0  0.52 0.05 0  0.53 0.05 0  0.54 0.05 0  0.55 0.05 0  0.5600000000000001 0.05 0  0.57 0.05 0  0.58 0.05 0  0.59 0.05 0  0.6 0.05 0  0.61 0.05 0  0.62 0.05 0  0.63 0.05 0  0.64 0.05 0  0.65 0.05 0  0.66 0.05 0  0.67 0.05 0  0.68 0.05 0  0.6899999999999999 0.05 0  0.7 0.05 0  0.71 0.05 0  0.72 0.05 0  0.73 0.05 0  0.74 0.05 0  0.75 0.05 0  0.76 0.05 0  0.77 0.05 0  0.78 0.05 0  0.79 0.05 0  0.8 0.05 0  0.8100000000000001 0.05 0  0.82 0.05 0  0.83 0.05 0  0.84 0.05 0  0.85 0.05 0  0.86 0.05 0  0.87 0.05 0  0.88 0.05 0  0.89 0.05 0  0.9 0.05 0  0.91 0.05 0  0.92 0.05 0  0.93 0.05 0  0.9399999999999999 0.05 0  0.95 0.05 0  0.96 0.05 0  0.97 0.05 0  0.98 0.05 0  0.99 0.05 0  1 0.05 0  0 0.06 0  0.01 0.06 0  0.02 0.06 0  0.03 0.06 0  0.04 0.06 0  0.05 0.06 0  0.06 0.06 0  0.07000000000000001 0.06 0  0.08 0.06 0  0.09 0.06 0  0.1 0.06 0  0.11 0.06 0  0.12 0.06 0  0.13 0.06 0  0.14 0.06 0  0.15 0.06 0  0.16 0.06 0  0.17 0.06 0  0.18 0.06 0  0.19 0.06 0  0.2 0.06 0  0.21 0.06 0  0.22 0.06 0  0.23 0.06 0  0.24 0.06 0  0.25 0.06 0  0.26 0.06 0  0.27 0.06 0  0.28 0.06 0  0.29 0.06 0  0.3 0.06 0  0.31 0.06 0  0.32 0.06 0  0.33 0.06 0  0.34 0.06 0  0.35 0.06 0  0.36 0.06 0  0.37 0.06 0  0.38 0.06 0  0.39 0.06 0  0.4 0.06 0  0.41 0.06 0  0.42 0.06 0  0.43 0.06 0  0.44 0.06 0  0.45 0.06 0  0.46 0.06 0  0.47 0.06 0  0.48 0.06 0  0.49 0.06 0  0.5 0.06 0  0.51 0.06 0  0.52 0.06 0  0.53 0.06 0  0.54 0.06 0  0.55 0.06 0  0.5600000000000001 0.06 0  0.57 0.06 0  0.58 0.06 0  0.59 0.06 0  0.6 0.06 0  0.61 0.06 0  0.62 0.06 0  0.63 0.06 0  0.64 0.06 0  0.65 0.06 0  0.66 0.06 0  0.67 0.06 0  0.68 0.06 0  0.6899999999999999 0.06 0  0.7 0.06 0  0.71 0.06 0  0.72 0.06 0  0.73 0.06 0  0.74 0.06 0  0.75 0.06 0  0.76 0.06 0  0.77 0.06 0  0.78 0.06 0  0.79 0.06 0  0.8 0.06 0  0.8100000000000001 0.06 0  0.82 0.06 0  0.83 0.06 0  0.84 0.06 0  0.85 0.06 0  0.86 0.06 0  0.87 0.06 0  0.88 0.06 0  0.89 0.06 0  0.9 0.06 0  0.91 0.06 0  0.92 0.06 0  0.93 0.06 0  0.9399999999999999 0.06 0  0.95 0.06 0  0.96 0.06 0  0.97 0.06 0  0.98 0.06 0  0.99 0.06 0  1 0.06 0  0 0.07000000000000001 0  0.01 0.07000000000000001 0  0.02 0.07000000000000001 0  0.03 0.07000000000000001 0  0.04 0.07000000000000001 0  0.05 0.07000000000000001 0  0.06 0.07000000000000001 0  0.07000000000000001 0.07000000000000001 0  0.08 0.07000000000000001 0  0.09 0.07000000000000001 0  0.1 0.07000000000000001 0  0.11 0.07000000000000001 0  0.12 0.07000000000000001 0  0.13 0.07000000000000001 0  0.14 0.07000000000000001 0  0.15 0.07000000000000001 0  0.16 0.07000000000000001 0  0.17 0.0700
[...]
<PointData  Scalars="u"> 
<DataArray  type="Float64"  Name="u"  format="ascii">0.0000000000000000e+00  0.0000000000000000e+00  0.0000000000000000e+00  0.0000000000000000e+00  0.0000000000000000e+00  0.0000000000000000e+00  0.0000000000000000e+00  0.0000000000000000e+00  0.0000000000000000e+00  0.0000000000000000e+00  0.0000000000000000e+00  0.0000000000000000e+00  0.0000000000000000e+00  0.0000000000000000e+00  0.0000000000000000e+00  0.0000000000000000e+00  0.0000000000000000e+00  0.0000000000000000e+00  0.0000000000000000e+00  0.0000000000000000e+00  0.0000000000000000e+00  0.0000000000000000e+00  0.0000000000000000e+00  0.0000000000000000e+00  0.0000000000000000e+00  0.0000000000000000e+00  0.0000000000000000e+00  0.0000000000000000e+00  0.0000000000000000e+00  0.0000000000000000e+00  0.0000000000000000e+00  0.0000000000000000e+00  0.0000000000000000e+00  0.0000000000000000e+00  0.0000000000000000e+00  0.0000000000000000e+00  0.0000000000000000e+00  0.0000000000000000e+00  0.0000000000000000e+00  0.0000000000000000e+00  0.0000000000000000e+00  0.0000000000000000e+00  0.0000000000000000e+00  0.0000000000000000e+00  0.0000000000000000e+00  0.0000000000000000e+00  0.0000000000000000e+00  0.0000000000000000e+00  0.0000000000000000e+00  0.0000000000000000e+00  0.0000000000000000e+00  0.0000000000000000e+00  0.0000000000000000e+00  0.0000000000000000e+00  0.0000000000000000e+00  0.0000000000000000e+00  0.0000000000000000e+00  0.0000000000000000e+00  0.0000000000000000e+00  0.0000000000000000e+00  0.0000000000000000e+00  0.0000000000000000e+00  0.0000000000000000e+00  0.0000000000000000e+00  0.0000000000000000e+00  0.0000000000000000e+00  0.0000000000000000e+00  0.0000000000000000e+00  0.0000000000000000e+00  0.0000000000000000e+00  0.0000000000000000e+00  0.0000000000000000e+00  0.0000000000000000e+00  0.0000000000000000e+00  0.0000000000000000e+00  0.0000000000000000e+00  0.0000000000000000e+00  0.0000000000000000e+00  0.0000000000000000e+00  0.0000000000000000e+00  0.0000000000000000e+00  0.0000000000000000e+00  0.0000000000000000e+00  0.0000000000000000e+00  0.0000000000000000e+00  0.0000000000000000e+00  0.0000000000000000e+00  0.0000000000000000e+00  0.0000000000000000e+00  0.0000000000000000e+00  0.0000000000000000e+00  0.0000000000000000e+00  0.0000000000000000e+00  0.0000000000000000e+00  0.0000000000000000e+00  0.0000000000000000e+00  0.0000000000000000e+00  0.0000000000000000e+00  0.0000000000000000e+00  0.0000000000000000e+00  0.0000000000000000e+00  0.0000000000000000e+00  -7.0321789068212670e-04  -4.6712683270993323e-04  -9.7122783383683290e-05  -4.9490729969005180e-04  1.7748613840274199e-04  1.6093920977611632e-04  -1.6039955625772942e-04  1.9356382109254688e-04  -2.0782423322485280e-04  -8.2372080349578516e-05  2.4709716659426274e-04  3.0566952626127490e-04  -1.9464089762234477e-04  5.1677572240871564e-05  8.1977429502558876e-05  -1.1952459273013307e-04  5.2189249957939384e-04  -3.6798165120837702e-04  3.5124935465051152e-04  1.8281753452251798e-06  5.7094362062636883e-05  1.3638583622547308e-04  3.1276758880760959e-04  -2.6150514746026675e-04  7.1689007294542355e-04  -7.3073986497713646e-04  8.6944184547674578e-04  4.9813613351195489e-05  -4.6936720769609290e-04  8.9698183521721704e-04  5.5439221754682150e-04  -7.7757125220047634e-04  1.4409034505195495e-05  4.4247239108960413e-04  6.5658540303457165e-04  3.7925890057918072e-04  2.5594289336312382e-04  1.7313306452387662e-04  1.2555015899020586e-04  8.6835550330969697e-05  -5.8419026789505616e-05  -2.0395915413852148e-04  -5.6458016436146928e-04  5.6152591564277226e-05  7.6170614139810418e-04  -7.9695789477180357e-04  5.7237326160809363e-04  -3.7060680066076240e-04  1.1379800233187108e-04  4.2573149684183258e-06  3.0557989992744305e-04  -2.3574030653037960e-04  -6.5667156816011314e-05  2.8875829127440625e-05  6.2386688603310503e-05  4.0595423028371759e-05  2.6938126136846291e-05  2.3816193872126066e-05  2.2349384861968140e-05  2.1719218183488112e-05  1.8404032218568053e-05  1.4861743294372392e-05  1.6190103222338757e-05  3.3318010786757726e-05  2.7688627830231410e-05  1.7749049217125264e-05  1.7244114608152751e-05  1.3894904925751440e-05  1.4890155468583047e-05  1.5452556098179794e-05  1.4766304348938051e-05  1.4331136973400638e-05  1.2243799714630615e-05  1.4838160993273345e-05  1.1559678426775792e-05  1.2390741630368498e-05  1.0751265797782746e-05  9.4400599528204819e-06  9.2929820596236687e-06  8.4455120081655892e-06  8.4041104172375238e-06  9.4756805163539749e-06  1.0334809263179338e-05  1.0971553377649761e-05  6.5017290385554372e-06  4.0520241334843941e-06  3.8754043028630875e-06  9.8097500004661209e-06  3.7859019087991038e-06  2.0483684522791881e-06  2.9612930116756673e-06  3.7700604968516954e-06  4.2190885552540617e-06  2.8575008363030059e-06  2.8831273302711973e-06  1.8219735112049606e-06  1.1911666335206683e-06  1.1121596598203385e-06  6.0123063061543275e-07  0.0000000000000000e+00  0.0000000000000000e+00  4.4231097811296303e-04  -4.7183556285248319e-04  -4.1958287178702478e-04  -2.9820726804409743e-04  -5.1122055396276211e-04  2.7284342222061539e-04  1.0682938243081888e-04  1.5040966276490242e-04  -5.3138269407676552e-04  -5.7283576589409767e-07  2.7966724010793195e-04  2.1405784260206348e-04  3.3780790820517976e-04  2.3543148847049588e-04  -9.8980934847547062e-04  1.0046637973331661e-03  -2.2387220903669262e-04  1.6277286618893107e-04  6.1256351311890684e-04  -7.8790247300234025e-04  1.2775051261145910e-03  -1.2634956591685452e-03  1.4983466338006164e-03  -1.2101526072232100e-03  1.1375345612470943e-03  -2.4348445994928325e-04  -3.0801776013099233e-04  1.4610233401740891e-03  -1.3891626730462370e-03  1.4173050183447140e-04  1.4909386120182597e-03  -3.2722568874594255e-04  -9.0123574302474006e-04  1.2426784566027459e-04  1.2375064469861436e-03  8.9304609569193505e-04  5.7057689916637021e-04  4.3366155254856073e-04  3.4154905666065178e-04  2.5968367034727663e-04  1.9830660973173492e-04  5.6335194646946498e-05  -1.0496025604469488e-03  -8.2174218655197285e-04  1.2905244665274208e-03  6.0596670670251432e-04  -1.2173713436406221e-03  9.7949411432732194e-04  -2.6106364874494331e-04  -3.0919926554401984e-04  6.3396144732381465e-04  1.1389598195150605e-04  -4.0392013108483086e-04  1.5307383488812270e-05  9.7414839019097701e-05  1.1272605490260435e-04  5.8698703761566316e-05  5.0680816230140005e-05  4.6858074889938425e-05  4.1468585777394103e-05  4.1512669337482865e-05  4.1860926926902214e-05  2.5697891605337383e-05  4.1268802645504482e-05  6.8626432695955295e-05  4.7765453065193544e-05  2.9990150608380513e-05  3.5233822179445605e-05  3.2904451696126075e-05  2.8222614343702099e-05  3.1385094839035143e-05  2.7448207477864003e-05  2.9513032438773615e-05  2.4464641168352818e-05  2.6186834687341664e-05  2.2596467141929501e-05  2.5536529177127171e-05  1.8072290932743709e-05  1.7524713748871797e-05  1.9331091825398154e-05  1.7364499305654204e-05  1.6009342190164783e-05  2.0240818825702422e-05  1.7355590291793214e-05  2.2016951934660561e-05  8.3663841811460473e-06  1.5086796231477426e-06  1.8432081486484019e-05  1.2781931957421103e-05  2.9554390435673270e-06  4.3673331307722359e-06  7.5350959489824449e-06  6.4030315972376644e-06  5.2360148306001594e-06  4.6248402339846740e-06  3.4689715911020286e-06  2.8743814596765309e-06  2.0376420233181458e-06  1.1538888895358867e-06  0.0000000000000000e+00  0.0000000000000000e+00  1.0233583331937266e-04  1.8479392682925965e-04  -2.9706436842006495e-04  1.5473837560181730e-04  -9.9125283428947797e-04  4.4449615846429573e-04  4.4009378059679100e-04  -4.0614309243225486e-04  6.6725622871734104e-04  -9.7855561154361749e-04  -2.3598879266153425e-04  7.8430118462657948e-04  6.5333514032733277e-04  -5.0763311477350110e-04  4.5280217225597807e-04  -5.7690152329536028e-04  1.6337840065653209e-04  1.1501516540849731e-03  -1.1524631346474957e-03  1.3595960890556416e-03  -7.9157426230673825e-04  8.0978568652611562e-04  -5.4057505218674056e-04  1.4046188820181298e-03  -1.5825711666444017e-03  2.2359057056198202e-03  -2.1560657332642241e-03  1.9078280614195026e-03  5.0784723209903787e-04  -2.0515308386884917e-03  2.0043936144430929e-03  1.6463763738420178e-03  -2.3435696496143634e-03  -4.2662051705209835e-04  7.5217270357496094e-04  1.7789236789479575e-03  1.0422207694459334e-03  7.5932217951001665e-04  6.0219821547785894e-04  5.2490961197299165e-04  4.3322693328033625e-04  7.2827904583308526e-05  -2.3386814034885475e-04  -1.6558154323721291e-03  -2.4112680922410876e-04  2.4170762243610811e-03  -1.6146687088460640e-03  9.4015746292609183e-04  -5.9355584954292587e-04  4.2617943558211562e-04  -2.3683169187674449e-04  1.0270936042375224e-03  -5.2485771639762448e-04  -2.5284028561031854e-04  1.0711174358950532e-04  1.9661465948145253e-04  1.3697442106347824e-04  8.1546935583848087e-05  7.4620498094768637e-05  7.0342377152190729e-05  6.5338212048545515e-05  6.0278115245786677e-05  5.6365189669773045e-05  4.8331905279441622e-05  8.6411832136326503e-05  8.8318181248218640e-05  6.1737697700944730e-05  5.0135191757703310e-05  4.9320655303896984e-05  5.1736912568473459e-05  4.4022942648890375e-05  4.4591405563125957e-05  4.3034136036389261e-05  3.9610986214067871e-05  3.9473079764018144e-05  3.3946317854573476e-05  3.6080063100874149e-05  3.3885163614863924e-05  2.5374117243652935e-05  2.5671435253161148e-05  2.6920775684772585e-05  2.4785124069261891e-05  2.5978967527376129e-05  3.0528286144856267e-05  2.8310885176698885e-05  2.0861744226215034e-05  1.0830656045129498e-05  4.0587873246921862e-06  3.0939644945783245e-05  9.6249851594320370e-06  3.1807851976388785e-06  8.2585712718171247e-06  9.9004348418750864e-06  9.0354831378197435e-06  6.2563588777172893e-06  5.3788580000150759e-06  3.7025674025372337e-06  2.5295144289300772e-06  1.9341015137720770e-06  0.0000000000000000e+00  0.0000000000000000e+00  2.8741021713287043e-04  3.6490019403539775e-04  -3.0668178675015401e-04  -2.1814496128165061e-04  1.4094948858726396e-04  -9.4889268866882954e-04  9.1151398712665198e-04  5.2298038439605658e-04  4.0776174197909445e-06  -4.6418252354603817e-04  -2.5059197650433896e-04  1.6865455129438955e-04  5.8185461668024629e-04  8.7577358946079771e-04  -8.0376689285707373e-05  -1.3528552729017910e-03  1.4419953966047225e-03  -6.5100697779308921e-04  8.7412649001645691e-04  2.4928471959205967e-04  -7.0848930818591047e-04  1.7120235146509206e-03  -1.8701516793047646e-03  2.1957550210449416e-03  -1.4616975467299240e-03  1.1363053648194297e-03  3.8990831184297387e-04  -1.5001666529639579e-03  3.0711964387237310e-03  -2.1006936298581689e-03  -5.9823401546418072e-04  3.0913137677169027e-03  2.2005389252917808e-05  -2.5156738137030398e-03  -5.5234729311302241e-05  2.0271873407583570e-03  1.8920811887660834e-03  1.2174011896375785e-03  9.6155215792166854e-04  7.9662300707905738e-04  6.7496859431758632e-04  5.6680756245284050e-04  1.2059659222079458e-04  -1.6922742630355652e-03  -1.8321592360544077e-03  1.9601422286847515e-03  1.8719321800345610e-03  -2.7591452636573153e-03  2.2089185830412097e-03  -8.9410844719014495e-04  -2.2489300222500351e-04  9.3335774035110833e-04  5.5250345300739199e-04  -8.4599655301552108e-04  -2.8669544320767373e-05  2.0425181879847105e-04  2.5973958479529600e-04  1.4498766226804050e-04  1.1205439802377679e-04  1.0268389410836792e-04  9.3923337939396615e-05  8.8778733717313004e-05  8.4638830894758608e-05  6.3955020984640871e-05  8.6188433288675618e-05  1.3163153424347823e-04  1.0184309666823866e-04  7.3514817974755395e-05  7.1428213142317104e-05  6.6464158492069586e-05  6.7461016935041284e-05  6.3651421282243673e-05  5.5394461254651138e-05  5.8974638117454569e-05  5.1420249440295980e-05  5.2170494291793812e-05  4.2511009036546319e-05  4.9750688031469407e-05  3.9362229204484704e-05  3.2288705563597456e-05  3.3480695569740814e-05  3.4239201361717226e-05  3.1832607266614438e-05  3.7224205148928113e-05  3.6393002446637201e-05  3.8481523881221200e-05  1.7382349849282825e-05  6.2468635246500068e-06  2.1560598386067300e-05  3.1938780078670901e-05  5.2349427175467948e-06  4.5095302420851810e-06  1.1596046477834994e-05  1.2174975268920282e-05  8.9881866083909060e-06  7.0603220508675109e-06  5.4996037213589735e-06  3.3934700295014912e-06  1.9760682987672776e-06  0.0000000000000000e+00  0.0000000000000000e+00  2.1459354254549200e-04  3.8190641595093429e-04  6.6759010204992821e-04  -4.9599635195560589e-04  1.5922715162898678e-04  -9.8090191227285508e-04  4.2383019859552705e-04  9.6066484964219283e-04  -1.6310420082698963e-04  9.9250231295152204e-04  -1.4934065753269905e-03  -2.1339192314825701e-04  1.1317279012536523e-03  8.9232349523843445e-04  -3.2987824318751627e-04  6.3827995350707978e-04  -1.4004951756246783e-03  8.8593115189990516e-04  1.0858709517886076e-03  -1.2176677996758767e-03  1.8947120760639045e-03  -1.4754278126156554e-03  1.7437809791286418e-03  -1.4267889008315552e-03  2.5547377332517506e-03  -2.6721927672884874e-03  3.3385227467090739e-03  -2.7675568213200111e-03  1.9872055767689318e-03  1.5386693303056135e-03  -3.4681935131796295e-03  2.4536137495124494e-03  3.1462203961898473e-03  -3.1451814950360446e-03  -1.4097667277062310e-03  8.9215640938045170e-04  2.9152609234556221e-03  1.9440149392151392e-03  1.4307053257287445e-03  1.1700780683933298e-03  1.0277005855225908e-03  8.6001906311718092e-04  3.4297851141040011e-04  -2.3078818944529306e-04  -2.7096764982192136e-03  -8.9577387036045221e-04  3.8173179944314549e-03  -1.4694407785542903e-03  2.4175826895875643e-04  4.8377586202652589e-05  2.8314687669427752e-04  -4.7271250637619962e-04  1.6568859422984501e-03  -4.7970451765263670e-04  -5.9780215365730122e-04  1.4107555021291250e-04  3.2024757302479381e-04  2.6498868555998835e-04  1.5663719329493117e-04  1.3948068280838209e-04  1.2883647104219441e-04  1.2195794934646544e-04  1.1478163913505388e-04  1.0098303420266417e-04  8.5310945169859122e-05  1.4293906504724864e-04  1.5493382181676265e-04  1.1136699264218834e-04  9.3560242977059390e-05  9.0320144531417165e-05  8.4256908312447894e-05  8.1623313704275556e-05  8.1139829511063229e-05  7.0911335927922577e-05  6.8995214120708725e-05  6.6385270768858909e-05  6.1534742509748358e-05  5.6505514435644869e-05  5.7979244957297307e-05  4.4792486320758248e-05  4.0957741962934676e-05  4.1571297731225605e-05  4.0657909594597072e-05  4.1524125314365653e-05  4.7870091466780270e-05  4.7223014293785209e-05  3.3585490330822478e-05  1.6721222298083388e-05  8.6325213141360817e-06  3.8720600520732610e-05  2.2297190884157595e-05  3.6708193648489888e-06  9.4306090194483563e-06  1.3604179929311488e-05  1.2988047931916448e-05  8.7872539250103272e-06  6.3568208483803662e-06  3.8631026482395568e-06  1.9538387796234213e-06  0.0000000000000000e+00  0.0000000000000000e+00  2.5381946307042767e-04  4.5021241493702394e-04  3.0416849166531063e-04  3.1051277299014003e-04  -1.3784167020946403e-04  2.2904519285752708e-04  -1.3451652752300590e-03  1.2880396442434749e-03  9.2404731917129020e-04  -3.3095787796512237e-05  -1.1730593055982242e-04  -7.4331123598962430e-04  1.0926194091626009e-04  1.1383662585105795e-03  1.2956800067465836e-03  -3.1694551613066979e-04  -1.2263220650332919e-03  1.0712485203482366e-03  -3.9638041879095124e-04  1.3560406372645755e-03  -2.1172198379653228e-04  -1.1646652198953915e-04  1.3433736873559557e-03  -1.6062449827103620e-03  2.0464164376284713e-03  -9.1073615436310876e-04  5.1278317863184277e-04  1.3670276996541806e-03  -2.4946730509264083e-03  4.1971530544741148e-03  -2.0961226579606779e-03  -1.7814391330722682e-03  4.3415452494149579e-03  7.7009948749819611e-04  -3.9317227191206609e-03  -4.7382710347105585e-04  2.5646361593623947e-03  3.1300567653102093e-03  2.0915486529792058e-03  1.6626085084822386e-03  1.4043945047951872e-03  1.2235730784472946e-03  1.0103100177043711e-03  2.2427486188790463e-04  -2.0512683528894149e-03  -2.9855180338713536e-03  2.1932820486333712e-03  3.3052586323528673e-03  -3.5352750738793020e-03  2.5485439244976840e-03  -1.0353371942026868e-03  -2.0749284584861387e-05  8.9096953677009303e-04  1.1325572379092478e-03  -1.0823662815524614e-03  -1.9393128281433000e-04  2.9603507316416997e-04  4.0494424128310164e-04  2.5146831659336510e-04  1.8072947452470926e-04  1.6724620376957572e-04  1.5278893996373811e-04  1.4478777178797935e-04  1.4282427625596431e-04  1.1278544657954995e-04  1.3319669963391889e-04  1.9518276818204539e-04  1.6600896883267477e-04  1.2165534002788377e-04  1.1327934189283574e-04  1.1110698100410304e-04  1.0270921920823861e-04  9.6678494948266805e-05  9.4302449402564444e-05  8.7539103774041853e-05  7.9907318534766197e-05  7.9037771063653338e-05  6.9668716076957873e-05  7.0420333880509130e-05  6.3068347043844915e-05  5.0745947721974374e-05  4.8585472646476451e-05  4.8681118904766814e-05  4.7576369986431947e-05  5.3878809332211642e-05  5.5084931658043271e-05  5.4807340737489756e-05  2.8719871332671163e-05  1.0723071892463949e-05  2.4220365487829422e-05  4.5726196148789948e-05  1.1352969498632070e-05  4.3559704498224810e-06  1.3189369292327307e-05  1.4826199156930568e-05  1.2137014416849780e-05  8.4338292171272650e-06  5.6395632988166302e-06  2.4731249493082390e-06  0.0000000000000000e+00  0.0000000000000000e+00  6.9964013502134140e-05  3.2049949920682510e-04  6.2042037596815179e-04  6.3005493161840450e-04  -3.9869243328471840e-04  2.9093280361699580e-04  -7.4264954064458494e-04  1.0149958008455034e-04  1.4535977725860048e-03  1.6587000841447439e-04  9.7439402194444253e-04  -1.5027797071429250e-03  -4.1289647939990524e-04  1.2101068717431931e-03  1.3112633161505550e-03  7.0725515140818292e-05  4.4059741039880005e-04  -1.6145687598325899e-03  1.1461594123979928e-03  9.5119487968973408e-04  -7.0247197800899484e-04  1.6831511459112431e-03  -1.2452387399631577e-03  1.9777519663171515e-03  -1.6176047579030853e-03  2.9593168675027021e-03  -2.8073164029849013e-03  3.4793936190312775e-03  -2.5022505363883930e-03  1.5303340306581732e-03  2.6673441402783856e-03  -4.1917534817876136e-03  2.3486511306892400e-03  4.7185263613111171e-03  -3.3662665248688720e-03  -2.7793677875909036e-03  9.3965146652323986e-04  3.8421936712007354e-03  3.1405298979145973e-03  2.3186660278218434e-03  1.9090344021255416e-03  1.6772992878576717e-03  1.4256227909860309e-03  7.2438314063053922e-04  -2.7129731360356926e-04  -3.4823853085466667e-03  -1.7424635823420338e-03  4.7126046174906459e-03  -8.2657011525733319e-04  -5.9488378962195359e-04  8.4185046012887543e-04  -1.5608062215712411e-04  -3.1605033569532810e-04  1.9538255037887101e-03  -1.4206001362828985e-04  -9.5570821711433909e-04  1.1468532248168529e-04  4.4379603529292737e-04  4.2035727751220647e-04  2.5248983792828264e-04  2.1231300416533870e-04  1.9567262750125948e-04  1.8290362778949540e-04  1.7042669876211880e-04  1.5568484273359280e-04  1.3696221211841189e-04  2.0522330292836879e-04  2.2218598631674390e-04  1.7063902643088311e-04  1.4071266791819485e-04  1.3113255452147076e-04  1.2921661416362765e-04  1.2242897430511283e-04  1.1053839476982094e-04  1.0886481463281506e-04  1.0122608080438335e-04  9.2439518832380311e-05  8.7948453244893134e-05  8.1745080079527262e-05  7.9679075442438897e-05  6.5940220495708682e-05  5.6898786114243067e-05  5.6255862489776324e-05  5.4124270195466084e-05  5.5259283916497619e-05  6.3992633887227166e-05  6.7379030959341393e-05  4.4341805462807821e-05  2.4256847133713597e-05  1.5390699190466490e-05  3.8927532458754613e-05  3.8794540535023325e-05  4.7656945365437634e-06  9.1865909177712102e-06  1.5945269549489700e-05  1.5024623569445310e-05  9.7421934263848852e-06  6.5904111558375186e-06  2.3793055723916084e-06  0.0000000000000000e+00  0.0000000000000000e+00  2.4301194580610014e-04  4.3323718469395604e-04  4.8395535308887178e-04  4.1769115658458838e-04  7.0065214449713286e-04  -2.4036441085374872e-04  1.2476707040898221e-04  -1.2801487625407029e-03  1.3302860365175476e-03  1.3986996533366450e-03  1.9495518372719076e-04  -6.5561906208507720e-05  -1.0732895391702450e-03  1.0697366703174349e-04  1.491145