<?xml version="1.0"?>
<VTKFile type="UnstructuredGrid"  version="0.1"  >
<UnstructuredGrid>
<Piece  NumberOfPoints="10201" NumberOfCells="20000">
<Points>
<DataArray  type="Float64"  NumberOfComponents="3"  format="ascii">0 0 0  0.01 0 0  0.02 0 0  0.03 0 0  0.04 0 0  0.05 0 0  0.06 0 0  0.07000000000000001 0 0  0.08 0 0  0.09 0 0  0.1 0 0  0.11 0 0  0.12 0 0  0.13 0 0  0.14 0 0  0.15 0 0  0.16 0 0  0.17 0 0  0.18 0 0  0.19 0 0  0.2 0 0  0.21 0 0  0.22 0 0  0.23 0 0  0.24 0 0  0.25 0 0  0.26 0 0  0.27 0 0  0.28 0 0  0.29 0 0  0.3 0 0  0.31 0 0  0.32 0 0  0.33 0 0  0.34 0 0  0.35 0 0  0.36 0 0  0.37 0 0  0.38 0 0  0.39 0 0  0.4 0 0  0.41 0 0  0.42 0 0  0.43 0 0  0.44 0 0  0.45 0 0  0.46 0 0  0.47 0 0  0.48 0 0  0.49 0 0  0.5 0 0  0.51 0 0  0.52 0 0  0.53 0 0  0.54 0 0  0.55 0 0  0.5600000000000001 0 0  0.57 0 0  0.58 0 0  0.59 0 0  0.6 0 0  0.61 0 0  0.62 0 0  0.63 0 0  0.64 0 0  0.65 0 0  0.66 0 0  0.67 0 0  0.68 0 0  0.6899999999999999 0 0  0.7 0 0  0.71 0 0  0.72 0 0  0.73 0 0  0.74 0 0  0.75 0 0  0.76 0 0  0.77 0 0  0.78 0 0  0.79 0 0  0.8 0 0  0.8100000000000001 0 0  0.82 0 0  0.83 0 0  0.84 0 0  0.85 0 0  0.86 0 0  0.87 0 0  0.88 0 0  0.89 0 0  0.9 0 0  0.91 0 0  0.92 0 0  0.93 0 0  0.9399999999999999 0 0  0.95 0 0  0.96 0 0  0.97 0 0  0.98 0 0  0.99 0 0  1 0 0  0 0.01 0  0.01 0.01 0  0.02 0.01 0  0.03 0.01 0  0.04 0.01 0  0.05 0.01 0  0.06 0.01 0  0.07000000000000001 0.01 0  0.08 0.01 0  0.09 0.01 0  0.1 0.01 0  0.11 0.01 0  0.12 0.01 0  0.13 0.01 0  0.14 0.01 0  0.15 0.01 0  0.16 0.01 0  0.17 0.01 0  0.18 0.01 0  0.19 0.01 0  0.2 0.01 0  0.21 0.01 0  0.22 0.01 0  0.23 0.01 0  0.24 0.01 0  0.25 0.01 0  0.26 0.01 0  0.27 0.01 0  0.28 0.01 0  0.29 0.01 0  0.3 0.01 0  0.31 0.01 0  0.32 0.01 0  0.33 0.01 0  0.34 0.01 0  0.35 0.01 0  0.36 0.01 0  0.37 0.01 0  0.38 0.01 0  0.39 0.01 0  0.4 0.01 0  0.41 0.01 0  0.42 0.01 0  0.43 0.01 0  0.44 0.01 0  0.45 0.01 0  0.46 0.01 0  0.47 0.01 0  0.48 0.01 0  0.49 0.01 0  0.5 0.01 0  0.51 0.01 0  0.52 0.01 0  0.53 0.01 0  0.54 0.01 0  0.55 0.01 0  0.5600000000000001 0.01 0  0.57 0.01 0  0.58 0.01 0  0.59 0.01 0  0.6 0.01 0  0.61 0.01 0  0.62 0.01 0  0.63 0.01 0  0.64 0.01 0  0.65 0.01 0  0.66 0.01 0  0.67 0.01 0  0.68 0.01 0  0.6899999999999999 0.01 0  0.7 0.01 0  0.71 0.01 0  0.72 0.01 0  0.73 0.01 0  0.74 0.01 0  0.75 0.01 0  0.76 0.01 0  0.77 0.01 0  0.78 0.01 0  0.79 0.01 0  0.8 0.01 0  0.8100000000000001 0.01 0  0.82 0.01 0  0.83 0.01 0  0.84 0.01 0  0.85 0.01 0  0.86 0.01 0  0.87 0.01 0  0.88 0.01 0  0.89 0.01 0  0.9 0.01 0  0.91 0.01 0  0.92 0.01 0  0.93 0.01 0  0.9399999999999999 0.01 0  0.95 0.01 0  0.96 0.01 0  0.97 0.01 0  0.98 0.01 0  0.99 0.01 0  1 0.01 0  0 0.02 0  0.01 0.02 0  0.02 0.02 0  0.03 0.02 0  0.04 0.02 0  0.05 0.02 0  0.06 0.02 0  0.07000000000000001 0.02 0  0.08 0.02 0  0.09 0.02 0  0.1 0.02 0  0.11 0.02 0  0.12 0.02 0  0.13 0.02 0  0.14 0.02 0  0.15 0.02 0  0.16 0.02 0  0.17 0.02 0  0.18 0.02 0  0.19 0.02 0  0.2 0.02 0  0.21 0.02 0  0.22 0.02 0  0.23 0.02 0  0.24 0.02 0  0.25 0.02 0  0.26 0.02 0  0.27 0.02 0  0.28 0.02 0  0.29 0.02 0  0.3 0.02 0  0.31 0.02 0  0.32 0.02 0  0.33 0.02 0  0.34 0.02 0  0.35 0.02 0  0.36 0.02 0  0.37 0.02 0  0.38 0.02 0  0.39 0.02 0  0.4 0.02 0  0.41 0.02 0  0.42 0.02 0  0.43 0.02 0  0.44 0.02 0  0.45 0.02 0  0.46 0.02 0  0.47 0.02 0  0.48 0.02 0  0.49 0.02 0  0.5 0.02 0  0.51 0.02 0  0.52 0.02 0  0.53 0.02 0  0.54 0.02 0  0.55 0.02 0  0.5600000000000001 0.02 0  0.57 0.02 0  0.58 0.02 0  0.59 0.02 0  0.6 0.02 0  0.61 0.02 0  0.62 0.02 0  0.63 0.02 0  0.64 0.02 0  0.65 0.02 0  0.66 0.02 0  0.67 0.02 0  0.68 0.02 0  0.6899999999999999 0.02 0  0.7 0.02 0  0.71 0.02 0  0.72 0.02 0  0.73 0.02 0  0.74 0.02 0  0.75 0.02 0  0.76 0.02 0  0.77 0.02 0  0.78 0.02 0  0.79 0.02 0  0.8 0.02 0  0.8100000000000001 0.02 0  0.82 0.02 0  0.83 0.02 0  0.84 0.02 0  0.85 0.02 0  0.86 0.02 0  0.87 0.02 0  0.88 0.02 0  0.89 0.02 0  0.9 0.02 0  0.91 0.02 0  0.92 0.02 0  0.93 0.02 0  0.9399999999999999 0.02 0  0.95 0.02 0  0.96 0.02 0  0.97 0.02 0  0.98 0.02 0  0.99 0.02 0  1 0.02 0  0 0.03 0  0.01 0.03 0  0.02 0.03 0  0.03 0.03 0  0.04 0.03 0  0.05 0.03 0  0.06 0.03 0  0.07000000000000001 0.03 0  0.08 0.03 0  0.09 0.03 0  0.1 0.03 0  0.11 0.03 0  0.12 0.03 0  0.13 0.03 0  0.14 0.03 0  0.15 0.03 0  0.16 0.03 0  0.17 0.03 0  0.18 0.03 0  0.19 0.03 0  0.2 0.03 0  0.21 0.03 0  0.22 0.03 0  0.23 0.03 0  0.24 0.03 0  0.25 0.03 0  0.26 0.03 0  0.27 0.03 0  0.28 0.03 0  0.29 0.03 0  0.3 0.03 0  0.31 0.03 0  0.32 0.03 0  0.33 0.03 0  0.34 0.03 0  0.35 0.03 0  0.36 0.03 0  0.37 0.03 0  0.38 0.03 0  0.39 0.03 0  0.4 0.03 0  0.41 0.03 0  0.42 0.03 0  0.43 0.03 0  0.44 0.03 0  0.45 0.03 0  0.46 0.03 0  0.47 0.03 0  0.48 0.03 0  0.49 0.03 0  0.5 0.03 0  0.51 0.03 0  0.52 0.03 0  0.53 0.03 0  0.54 0.03 0  0.55 0.03 0  0.5600000000000001 0.03 0  0.57 0.03 0  0.58 0.03 0  0.59 0.03 0  0.6 0.03 0  0.61 0.03 0  0.62 0.03 0  0.63 0.03 0  0.64 0.03 0  0.65 0.03 0  0.66 0.03 0  0.67 0.03 0  0.68 0.03 0  0.6899999999999999 0.03 0  0.7 0.03 0  0.71 0.03 0  0.72 0.03 0  0.73 0.03 0  0.74 0.03 0  0.75 0.03 0  0.76 0.03 0  0.77 0.03 0  0.78 0.03 0  0.79 0.03 0  0.8 0.03 0  0.8100000000000001 0.03 0  0.82 0.03 0  0.83 0.03 0  0.84 0.03 0  0.85 0.03 0  0.86 0.03 0  0.87 0.03 0  0.88 0.03 0  0.89 0.03 0  0.9 0.03 0  0.91 0.03 0  0.92 0.03 0  0.93 0.03 0  0.9399999999999999 0.03 0  0.95 0.03 0  0.96 0.03 0  0.97 0.03 0  0.98 0.03 0  0.99 0.03 0  1 0.03 0  0 0.04 0  0.01 0.04 0  0.02 0.04 0  0.03 0.04 0  0.04 0.04 0  0.05 0.04 0  0.06 0.04 0  0.07000000000000001 0.04 0  0.08 0.04 0  0.09 0.04 0  0.1 0.04 0  0.11 0.04 0  0.12 0.04 0  0.13 0.04 0  0.14 0.04 0  0.15 0.04 0  0.16 0.04 0  0.17 0.04 0  0.18 0.04 0  0.19 0.04 0  0.2 0.04 0  0.21 0.04 0  0.22 0.04 0  0.23 0.04 0  0.24 0.04 0  0.25 0.04 0  0.26 0.04 0  0.27 0.04 0  0.28 0.04 0  0.29 0.04 0  0.3 0.04 0  0.31 0.04 0  0.32 0.04 0  0.33 0.04 0  0.34 0.04 0  0.35 0.04 0  0.36 0.04 0  0.37 0.04 0  0.38 0.04 0  0.39 0.04 0  0.4 0.04 0  0.41 0.04 0  0.42 0.04 0  0.43 0.04 0  0.44 0.04 0  0.45 0.04 0  0.46 0.04 0  0.47 0.04 0  0.48 0.04 0  0.49 0.04 0  0.5 0.04 0  0.51 0.04 0  0.52 0.04 0  0.53 0.04 0  0.54 0.04 0  0.55 0.04 0  0.5600000000000001 0.04 0  0.57 0.04 0  0.58 0.04 0  0.59 0.04 0  0.6 0.04 0  0.61 0.04 0  0.62 0.04 0  0.63 0.04 0  0.64 0.04 0  0.65 0.04 0  0.66 0.04 0  0.67 0.04 0  0.68 0.04 0  0.6899999999999999 0.04 0  0.7 0.04 0  0.71 0.04 0  0.72 0.04 0  0.73 0.04 0  0.74 0.04 0  0.75 0.04 0  0.76 0.04 0  0.77 0.04 0  0.78 0.04 0  0.79 0.04 0  0.8 0.04 0  0.8100000000000001 0.04 0  0.82 0.04 0  0.83 0.04 0  0.84 0.04 0  0.85 0.04 0  0.86 0.04 0  0.87 0.04 0  0.88 0.04 0  0.89 0.04 0  0.9 0.04 0  0.91 0.04 0  0.92 0.04 0  0.93 0.04 0  0.9399999999999999 0.04 0  0.95 0.04 0  0.96 0.04 0  0.97 0.04 0  0.98 0.04 0  0.99 0.04 0  1 0.04 0  0 0.05 0  0.01 0.05 0  0.02 0.05 0  0.03 0.05 0  0.04 0.05 0  0.05 0.05 0  0.06 0.05 0  0.07000000000000001 0.05 0  0.08 0.05 0  0.09 0.05 0  0.1 0.05 0  0.11 0.05 0  0.12 0.05 0  0.13 0.05 0  0.14 0.05 0  0.15 0.05 0  0.16 0.05 0  0.17 0.05 0  0.18 0.05 0  0.19 0.05 0  0.2 0.05 0  0.21 0.05 0  0.22 0.05 0  0.23 0.05 0  0.24 0.05 0  0.25 0.05 0  0.26 0.05 0  0.27 0.05 0  0.28 0.05 0  0.29 0.05 0  0.3 0.05 0  0.31 0.05 0  0.32 0.05 0  0.33 0.05 0  0.34 0.05 0  0.35 0.05 0  0.36 0.05 0  0.37 0.05 0  0.38 0.05 0  0.39 0.05 0  0.4 0.05 0  0.41 0.05 0  0.42 0.05 0  0.43 0.05 0  0.44 0.05 0  0.45 0.05 0  0.46 0.05 0  0.47 0.05 0  0.48 0.05 0  0.49 0.05 0  0.5 0.05 0  0.51 0.05 0  0.52 0.05 0  0.53 0.05 0  0.54 0.05 0  0.55 0.05 0  0.5600000000000001 0.05 0  0.57 0.05 0  0.58 0.05 0  0.59 0.05 0  0.6 0.05 0  0.61 0.05 0  0.62 0.05 0  0.63 0.05 0  0.64 0.05 0  0.65 0.05 0  0.66 0.05 0  0.67 0.05 0  0.68 0.05 0  0.6899999999999999 0.05 0  0.7 0.05 0  0.71 0.05 0  0.72 0.05 0  0.73 0.05 0  0.74 0.05 0  0.75 0.05 0  0.76 0.05 0  0.77 0.05 0  0.78 0.05 0  0.79 0.05 0  0.8 0.05 0  0.8100000000000001 0.05 0  0.82 0.05 0  0.83 0.05 0  0.84 0.05 0  0.85 0.05 0  0.86 0.05 0  0.87 0.05 0  0.88 0.05 0  0.89 0.05 0  0.9 0.05 0  0.91 0.05 0  0.92 0.05 0  0.93 0.05 0  0.9399999999999999 0.05 0  0.95 0.05 0  0.96 0.05 0  0.97 0.05 0  0.98 0.05 0  0.99 0.05 0  1 0.05 0  0 0.06 0  0.01 0.06 0  0.02 0.06 0  0.03 0.06 0  0.04 0.06 0  0.05 0.06 0  0.06 0.06 0  0.07000000000000001 0.06 0  0.08 0.06 0  0.09 0.06 0  0.1 0.06 0  0.11 0.06 0  0.12 0.06 0  0.13 0.06 0  0.14 0.06 0  0.15 0.06 0  0.16 0.06 0  0.17 0.06 0  0.18 0.06 0  0.19 0.06 0  0.2 0.06 0  0.21 0.06 0  0.22 0.06 0  0.23 0.06 0  0.24 0.06 0  0.25 0.06 0  0.26 0.06 0  0.27 0.06 0  0.28 0.06 0  0.29 0.06 0  0.3 0.06 0  0.31 0.06 0  0.32 0.06 0  0.33 0.06 0  0.34 0.06 0  0.35 0.06 0  0.36 0.06 0  0.37 0.06 0  0.38 0.06 0  0.39 0.06 0  0.4 0.06 0  0.41 0.06 0  0.42 0.06 0  0.43 0.06 0  0.44 0.06 0  0.45 0.06 0  0.46 0.06 0  0.47 0.06 0  0.48 0.06 0  0.49 0.06 0  0.5 0.06 0  0.51 0.06 0  0.52 0.06 0  0.53 0.06 0  0.54 0.06 0  0.55 0.06 0  0.5600000000000001 0.06 0  0.57 0.06 0  0.58 0.06 0  0.59 0.06 0  0.6 0.06 0  0.61 0.06 0  0.62 0.06 0  0.63 0.06 0  0.64 0.06 0  0.65 0.06 0  0.66 0.06 0  0.67 0.06 0  0.68 0.06 0  0.6899999999999999 0.06 0  0.7 0.06 0  0.71 0.06 0  0.72 0.06 0  0.73 0.06 0  0.74 0.06 0  0.75 0.06 0  0.76 0.06 0  0.77 0.06 0  0.78 0.06 0  0.79 0.06 0  0.8 0.06 0  0.8100000000000001 0.06 0  0.82 0.06 0  0.83 0.06 0  0.84 0.06 0  0.85 0.06 0  0.86 0.06 0  0.87 0.06 0  0.88 0.06 0  0.89 0.06 0  0.9 0.06 0  0.91 0.06 0  0.92 0.06 0  0.93 0.06 0  0.9399999999999999 0.06 0  0.95 0.06 0  0.96 0.06 0  0.97 0.06 0  0.98 0.06 0  0.99 0.06 0  1 0.06 0  0 0.07000000000000001 0  0.01 0.07000000000000001 0  0.02 0.07000000000000001 0  0.03 0.07000000000000001 0  0.04 0.07000000000000001 0  0.05 0.07000000000000001 0  0.06 0.07000000000000001 0  0.07000000000000001 0.07000000000000001 0  0.08 0.07000000000000001 0  0.09 0.07000000000000001 0  0.1 0.07000000000000001 0  0.11 0.07000000000000001 0  0.12 0.07000000000000001 0  0.13 0.07000000000000001 0  0.14 0.07000000000000001 0  0.15 0.07000000000000001 0  0.16 0.07000000000000001 0  0.17 0.0700
[...]
<PointData  Scalars="u"> 
<DataArray  type="Float64"  Name="u"  format="ascii">0.0000000000000000e+00  0.0000000000000000e+00  0.0000000000000000e+00  0.0000000000000000e+00  0.0000000000000000e+00  0.0000000000000000e+00  0.0000000000000000e+00  0.0000000000000000e+00  0.0000000000000000e+00  0.0000000000000000e+00  0.0000000000000000e+00  0.0000000000000000e+00  0.0000000000000000e+00  0.0000000000000000e+00  0.0000000000000000e+00  0.0000000000000000e+00  0.0000000000000000e+00  0.0000000000000000e+00  0.0000000000000000e+00  0.0000000000000000e+00  0.0000000000000000e+00  0.0000000000000000e+00  0.0000000000000000e+00  0.0000000000000000e+00  0.0000000000000000e+00  0.0000000000000000e+00  0.0000000000000000e+00  0.0000000000000000e+00  0.0000000000000000e+00  0.0000000000000000e+00  0.0000000000000000e+00  0.0000000000000000e+00  0.0000000000000000e+00  0.0000000000000000e+00  0.0000000000000000e+00  0.0000000000000000e+00  0.0000000000000000e+00  0.0000000000000000e+00  0.0000000000000000e+00  0.0000000000000000e+00  0.0000000000000000e+00  0.0000000000000000e+00  0.0000000000000000e+00  0.0000000000000000e+00  0.0000000000000000e+00  0.0000000000000000e+00  0.0000000000000000e+00  0.0000000000000000e+00  0.0000000000000000e+00  0.0000000000000000e+00  0.0000000000000000e+00  0.0000000000000000e+00  0.0000000000000000e+00  0.0000000000000000e+00  0.0000000000000000e+00  0.0000000000000000e+00  0.0000000000000000e+00  0.0000000000000000e+00  0.0000000000000000e+00  0.0000000000000000e+00  0.0000000000000000e+00  0.0000000000000000e+00  0.0000000000000000e+00  0.0000000000000000e+00  0.0000000000000000e+00  0.0000000000000000e+00  0.0000000000000000e+00  0.0000000000000000e+00  0.0000000000000000e+00  0.0000000000000000e+00  0.0000000000000000e+00  0.0000000000000000e+00  0.0000000000000000e+00  0.0000000000000000e+00  0.0000000000000000e+00  0.0000000000000000e+00  0.0000000000000000e+00  0.0000000000000000e+00  0.0000000000000000e+00  0.0000000000000000e+00  0.0000000000000000e+00  0.0000000000000000e+00  0.0000000000000000e+00  0.0000000000000000e+00  0.0000000000000000e+00  0.0000000000000000e+00  0.0000000000000000e+00  0.0000000000000000e+00  0.0000000000000000e+00  0.0000000000000000e+00  0.0000000000000000e+00  0.0000000000000000e+00  0.0000000000000000e+00  0.0000000000000000e+00  0.0000000000000000e+00  0.0000000000000000e+00  0.0000000000000000e+00  0.0000000000000000e+00  0.0000000000000000e+00  0.0000000000000000e+00  0.0000000000000000e+00  0.0000000000000000e+00  9.3494844282047950e-08  1.8947977529774913e-07  2.8801386976421557e-07  3.8913300577038873e-07  4.9286733791481927e-07  5.9924152937192084e-07  7.0827395340875282e-07  8.1997579916972780e-07  9.3435010300920391e-07  1.0513907041296250e-06  1.1710811242440298e-06  1.2933933721735044e-06  1.4182866758104990e-06  1.5457061457082062e-06  1.6755813767189356e-06  1.8078249966178056e-06  1.9423311735373178e-06  2.0789740972843073e-06  2.2176064532439766e-06  2.3580579115180685e-06  2.5001336582034792e-06  2.6436130001666445e-06  2.7882480792428205e-06  2.9337627363196144e-06  3.0798515700952808e-06  3.2261792391923246e-06  3.3723800595267252e-06  3.5180579510638581e-06  3.6627867890421892e-06  3.8061112140504418e-06  3.9475479526863646e-06  4.0865876955768810e-06  4.2226975720393552e-06  4.3553242503900385e-06  4.4838976798108241e-06  4.6078354737706132e-06  4.7265479165296617e-06  4.8394435535994983e-06  4.9459353048390265e-06  5.0454470159380102e-06  5.1374203413682816e-06  5.2213218306447370e-06  5.2966500711255086e-06  5.3629427258888406e-06  5.4197832955747587e-06  5.4668074294982236e-06  5.5037086145330095e-06  5.5302430806099107e-06  5.5462337791261954e-06  5.5515733146330986e-06  5.5462257399461441e-06  5.5302271589773782e-06  5.5036851185099324e-06  5.4667768079816673e-06  5.4197461232479923e-06  5.3628996843999529e-06  5.2966019274400219e-06  5.2212694136166995e-06  5.1373645176051035e-06  5.0453886659928749e-06  4.9458753006681143e-06  4.8393827380751281e-06  4.7264870856255542e-06  4.6077753618379621e-06  4.4838389481774454e-06  4.3552674793245330e-06  4.2226432559720278e-06  4.0865362413346875e-06  3.9474996803994383e-06  3.8060663603325081e-06  3.6627455120026373e-06  3.5180203367173892e-06  3.3723461291707523e-06  3.2261489573642364e-06  3.0798248527681980e-06  2.9337394590438120e-06  2.7882280849978828e-06  2.6435961067456728e-06  2.5001196649961694e-06  2.3580466056146186e-06  2.2175976148092589e-06  2.0789675041955225e-06  1.9423266052977404e-06  1.8078222375818798e-06  1.6755802186755263e-06  1.5457063898833489e-06  1.4182881343474442e-06  1.2933958691602431e-06  1.1710844963472485e-06  1.0513948008988275e-06  9.3435478690768071e-07  8.1998094538200201e-07  7.0827944945301371e-07  5.9924727459031842e-07  4.9287324208992949e-07  3.8913898427283341e-07  2.8801980901904517e-07  1.8948527476184258e-07  9.3497793893943986e-08  0.0000000000000000e+00  0.0000000000000000e+00  1.8947141601747711e-07  3.8424302836849976e-07  5.8441190974211867e-07  7.9007275253833413e-07  1.0013075433973101e-06  1.2181867193375757e-06  1.4407686116083653e-06  1.6690976365914354e-06  1.9032022323135827e-06  2.1430926139922132e-06  2.3887583468641788e-06  2.6401657349723652e-06  2.8972550276707800e-06  3.1599374494045538e-06  3.4280920629184879e-06  3.7015624815225537e-06  3.9801534524289093e-06  4.2636273405510167e-06  4.5517005504877246e-06  4.8440399337299667e-06  5.1402592383003319e-06  5.4399156689737498e-06  5.7425066376927077e-06  6.0474667954911369e-06  6.3541654488045806e-06  6.6619044739181728e-06  6.9699168529520418e-06  7.2773659624083037e-06  7.5833457501545480e-06  7.8868819378900705e-06  8.1869343827006215e-06  8.4824007223877803e-06  8.7721214140127599e-06  9.0548862528564757e-06  9.3294424293857401e-06  9.5945041446988505e-06  9.8487637607111319e-06  1.0090904410841753e-05  1.0319613941607499e-05  1.0533599997313503e-05  1.0731606001436455e-05  1.0912427732351655e-05  1.1074930140974722e-05  1.1218064017129944e-05  1.1340882083195834e-05  1.1442554080699482e-05  1.1522380420140184e-05  1.1579803987646195e-05  1.1614419744190937e-05  1.1625981812867116e-05  1.1614407824773954e-05  1.1579780380968602e-05  1.1522345582260566e-05  1.1442508675531996e-05  1.1340826959557555e-05  1.1218000180123157e-05  1.1074858719202224e-05  1.0912349942608902e-05  1.0731523112558326e-05  1.0533513294766470e-05  1.0319524694254652e-05  1.0090813841052599e-05  9.8486730187075330e-06  9.5944142877077484e-06  9.3293544058728214e-06  9.0548008918329824e-06  8.7720394191689534e-06  8.4823226706221495e-06  8.1868607264764047e-06  7.8868130107737570e-06  7.5832817748568984e-06  7.2773070606597950e-06  6.9698630565813888e-06  6.6618557365718794e-06  6.3541216578205470e-06  6.0474277835285795e-06  5.7424721937998319e-06  5.4398855488713579e-06  5.1402331737139635e-06  4.8440176406886972e-06  4.5516817365482503e-06  4.2636117109556832e-06  3.9801407152382439e-06  3.7015523517883762e-06  3.4280842659777490e-06  3.1599317233856435e-06  2.8972511253080085e-06  2.6401634248210210e-06  2.3887574140093663e-06  2.1430928603350492e-06  1.9032034765131353e-06  1.6690997137305684e-06  1.4407713726344094e-06  1.2181900302866335e-06  1.0013112840697675e-06  7.9007681232106691e-07  5.8441623211290386e-07  3.8424856350962213e-07  1.8948191506594949e-07  0.0000000000000000e+00  0.0000000000000000e+00  2.8800684715724515e-07  5.8441525445068371e-07  8.8939533970375948e-07  1.2031254659710891e-06  1.5257591511531908e-06  1.8574378118997807e-06  2.1982853602968059e-06  2.5484057483034789e-06  2.9078797915248485e-06  3.2767615808538788e-06  3.6550745622134097e-06  4.0428072827519726e-06  4.4399088001276726e-06  4.8462837571260291e-06  5.2617871310417335e-06  5.6862186759846690e-06  6.1193170867358543e-06  6.5607539250780062e-06  7.0101273637539358e-06  7.4669558194048840e-06  7.9306715639332546e-06  8.4006144235965153e-06  8.8760256964431840e-06  9.3560424410568435e-06  9.8396923122653060e-06  1.0325889141759409e-05  1.0813429482273878e-05  1.1300990351885105e-05  1.1787128428531955e-05  1.2270280952319287e-05  1.2748768592755860e-05  1.3220800527805510e-05  1.3684481959832557e-05  1.4137824258443477e-05  1.4578757870860054e-05  1.5005148076114055e-05  1.5414813580321255e-05  1.5805547857796593e-05  1.6175143039159182e-05  1.6521416036382875e-05  1.6842236480785294e-05  1.7135555938890051e-05  1.7399437769642040e-05  1.7632086901364536e-05  1.7831878745122196e-05  1.7997386428696029e-05  1.8127405537123394e-05  1.8220975584497205e-05  1.8277397518147720e-05  1.8296246668404939e-05  1.8277380700345927e-05  1.8220942291286152e-05  1.8127356440452005e-05  1.7997322505151271e-05  1.7831801240392884e-05  1.7631997286110123e-05  1.7399337689199192e-05  1.7135447159470653e-05  1.6842120834831360e-05  1.6521295369588874e-05  1.6175019161342211e-05  1.5805422499394735e-05  1.5414688355773771e-05  1.5005024454901426e-05  1.4578637156460019e-05  1.4137707575052327e-05  1.3684370246320588e-05  1.3220694538115151e-05  1.2748668901773395e-05  1.2270187966155252e-05  1.1787042398124363e-05  1.1300911388903579e-05  1.0813357576363353e-05  1.0325824178316501e-05  9.8396340900491851e-06  9.3559906890979461e-06  8.8759800898397818e-06  8.4005745979166994e-06  7.9306371280600207e-06  7.4669263667345366e-06  7.0101024817602494e-06  6.5607332032850774e-06  6.1193001232054653e-06  5.6862050824394800e-06  5.2617765367685077e-06  4.8462758118045086e-06  4.4399031757383762e-06  4.0428036747005598e-06  3.6550726898097947e-06  3.2767611872666706e-06  2.9078806433227440e-06  2.5484076346807709e-06  2.1982880920242406e-06  1.8574412200086440e-06  1.5257630928747809e-06  1.2031299249854196e-06  8.8940102414156771e-07  5.8442115878932677e-07  2.8802065021773880e-07  0.0000000000000000e+00  0.0000000000000000e+00  3.8912756418180588e-07  7.9007406077874144e-07  1.2031309000598766e-06  1.6285572883529652e-06  2.0666211081034847e-06  2.5175604684247637e-06  2.9815947002090844e-06  3.4589185433890525e-06  3.9496974959251586e-06  4.4540627983567629e-06  4.9721058529108372e-06  5.5038721038910330e-06  6.0493543723932318e-06  6.6084856381567893e-06  7.1811312704847831e-06  7.7670807222418456e-06  8.3660387157912465e-06  8.9776159676614364e-06  9.6013195199628580e-06  1.0236542771247491e-05  1.0882555327730617e-05  1.1538492827415340e-05  1.2203346924440669e-05  1.2875955658324336e-05  1.3554994471857447e-05  1.4238968181009882e-05  1.4926204238687612e-05  1.5614847669526856e-05  1.6302858082531991e-05  1.6988009189491582e-05  1.7667891266359864e-05  1.8339916988713954e-05  1.9001331047746663e-05  1.9649223906379221e-05  2.0280549983742284e-05  2.0892150458415809e-05  2.1480780756209604e-05  2.2043142638021327e-05  2.2575920630941744e-05  2.3075822356698582e-05  2.3539622113592195e-05  2.3964206871464999e-05  2.4346623655357876e-05  2.4684127135271433e-05  2.4974226119509230e-05  2.5214727579217906e-05  2.5403776821515151e-05  2.5539892484138358e-05  2.5621995147838521e-05  2.5649428550895347e-05  2.5621972635198670e-05  2.5539847942904952e-05  2.5403711200527134e-05  2.5214642254811409e-05  2.4974122842494933e-05  2.4684007965388799e-05  2.4346490887038233e-05  2.3964062955020831e-05  2.3539469575926204e-05  2.3075663725328233e-05  2.2575758364567504e-05  2.2042979066156656e-05  2.1480618029591375e-05  2.0891990511088535e-05  2.0280394506995846e-05  1.9649074334023645e-05  1.9001188551723618e-05  1.8339782483683651e-05  1.7667765421666254e-05  1.6987892446849350e-05  1.6302750677785484e-05  1.5614749656990401e-05  1.4926115516688465e-05  1.4238888517536334e-05  1.3554923529392681e-05  1.2875893017175478e-05  1.2203292104093072e-05  1.1538445305608646e-05  1.0882514557112048e-05  1.0236508193581323e-05  9.6012905779699094e-06  8.9775921146307662e-06  8.3660194231514104e-06  7.7670654853091397e-06  7.1811196126140592e-06  6.6084771135228165e-06  6.0493485676189519e-06  5.5038686387272056e-06  4.9721043801490486e-06  4.4540630031382171e-06  3.9496990945867066e-06  3.4589212820043605e-06  2.9815983534921543e-06  2.5175648476366163e-06  2.0666261324300960e-06  1.6285630075032338e-06  1.2031357546643534e-06  7.9008757109243520e-07  3.8914499343204340e-07  0.0000000000000000e+00  0.0000000000000000e+00  4.9286340947327215e-07  1.0013117599670343e-06  1.5257648681701841e-06  2.0666264088426952e-06  2.6242837751679430e-06  3.1991136952129922e-06  3.7914657089549642e-06  4.4016617856540749e-06  5.0299905253595972e-06  5.6767002976310013e-06  6.3419918396763754e-06  7.0260100694438471e-06  7.7288350768286449e-06  8.4504722716122224e-06  9.1908416733668585e-06  9.9497663430887297e-06  1.0726959975569057e-05  1.1522013695409154e-05  1.2334382128655683e-05  1.3163368856691362e-05  1.4008111399574221e-05  1.4867565922603310e-05  1.5740491912312951e-05  1.6625437125852711e-05  1.7520723179816847e-05  1.8424432209444915e-05  1.9334395094580101e-05  2.0248181811812184e-05  2.1163094529092237e-05  2.2076164105309182e-05  2.2984150687408974e-05  2.3883549106253348e-05  2.4770599751965727e-05  2.5641305557222019e-05  2.6491455622198950e-05  2.7316655879760822e-05  2.8112367016108454e-05  2.8873949635270545e-05  2.9596716386749336e-05  3.0275990474056208e-05  3.0907169638537512e-05  3.1485794384648564e-05  3.2007618899083018e-05  3.2468682838599169e-05  3.2865381942821518e-05  3.3194535290064147e-05  3.3453446974258149e-05  3.3639960051918675e-05  3.3752500794183146e-05  3.3790111577214150e-05  3.3752471141393001e-05  3.3639901424751528e-05  3.3453360700756820e-05  3.3194423292273677e-05  3.2865246657995276e-05  3.2468527122308911e-05  3.2007445916263916e-05  3.1485607494925527e-05  3.0906972282139964e-05  3.0275786064001011e-05  2.9596508212001097e-05  2.8873740778383956e-05  2.8112160287567085e-05  2.7316453769990405e-05  2.6491260271072619e-05  2.5641118739864336e-05  2.4770422879103047e-05  2.3883383236703519e-05  2.2983996550306177e-05  2.2076022129250862e-05  2.1162964876187661e-05  2.0248064413993972e-05  1.9334289690710729e-05  1.8424338381522453e-05  1.7520640387190411e-05  1.6625364736630717e-05  1.5740429231461665e-05  1.4867512216469438e-05  1.4008065916771846e-05  1.3163330845461156e-05  1.2334350850896729e-05  1.1521988437678873e-05  1.0726940057373899e-05  9.9497511228164199e-06  9.1908305522052920e-06  8.4504646957873588e-06  7.7288305384637319e-06  7.0260081063265292e-06  6.3419920341786190e-06  5.6767022750113614e-06  5.0299939516533299e-06  4.4016663659577999e-06  3.7914711924581137e-06  3.1991198916838214e-06  2.6242903823195039e-06  2.0666330234558616e-06  1.5257758862692278e-06  1.0013290639974155e-06  4.9288554913900855e-07  0.0000000000000000e+00  0.0000000000000000e+00  5.9923933257472517e-07  1.2181935152357427e-06  1.8574452456184233e-06  2.5175698181149325e-06  3.1991186159568528e-06  3.9026403763427388e-06  4.6286557240409517e-06  5.3776577920753533e-06  6.1501035856733043e-06  6.9464063052058235e-06  7.7669259283158537e-06  8.6119587580565204e-06  9.4817258299924988e-06  1.0376360101661121e-05  1.1295892379503633e-05  1.2240235955074372e-05  1.3209169944666174e-05  1.4202321356021226e-05  1.5219145943008424e-05  1.6258907954861018e-05  1.7320658941467611e-05  1.8403215840931293e-05  1.9505138650314913e-05  2.0624708064932669e-05  2.1759903564839137e-05  2.2908382527537656e-05  2.4067461050664604e-05  2.5234097273469444e-05  2.6404878086445840e-05  2.7576010206525249e-05  2.8743316665062833e-05  2.9902239795251177e-05  3.1047851806835702e-05  3.2174873985392874e-05  3.3277705448262936e-05  3.4350462206254656e-05  3.5387027033640882e-05  3.6381110317861240e-05  3.7326321660493354e-05  3.8216251538007764e-05  3.9044561823358372e-05  3.9805083439332181e-05  4.0491918899166484e-05  4.1099547018362187e-05  4.1622926699033593e-05  4.2057596427852846e-05  4.2399766025438277e-05  4.2646397263068637e-05  4.2795270231394945e-05  4.2845032802379296e-05  4.2795231150613962e-05  4.2646320057360949e-05  4.2399652563078110e-05  4.2057449405796425e-05  4.1622749524789662e-05  4.1099343665682169e-05  4.0491693746984693e-05  3.9804841103912783e-05  3.9044306993548449e-05  3.8215988822054395e-05  3.7326055451106023e-05  3.6380844680623529e-05  3.5386765621116618e-05  3.4350208199098208e-05  3.3277461521898118e-05  3.2174642300099250e-05  3.1047634018064675e-05  2.9902037080387263e-05  2.8743129761821980e-05  2.7575839460569904e-05  2.6404723503128674e-05  2.5233958571646193e-05  2.4067337715798864e-05  2.2908273862211823e-05  2.1759808735137977e-05  2.0624626142071322e-05  1.9505068646890944e-05  1.8403156741734992e-05  1.7320609728981172e-05  1.6258867629765053e-05  1.5219113540138765e-05  1.4202295956286005e-05  1.3209150683465102e-05  1.2240222027748459e-05  1.1295883044332464e-05  1.0376354680870349e-05  9.4817237091971517e-06  8.6119593844936516e-06  7.7669288081574029e-06  6.9464110002677160e-06  6.1501097105352321e-06  5.3776650138835022e-06  4.6286637493046667e-06  3.9026488690766004e-06  3.1991277667686368e-06  2.5175796277182121e-06  1.8574621179833480e-06  1.2182157522410182e-06  5.9926713022368976e-07  0.0000000000000000e+00  0.0000000000000000e+00  7.0827362316384538e-07  1.4407781822584851e-06  2.1982965053519580e-06  2.9816052430871216e-06  3.7914765869173697e-06  4.6286605032100682e-06  5.4939035354602089e-06  6.3879178247251870e-06  7.3113827063265665e-06  8.2649329069628579e-06  9.2491474533219837e-06  1.0264536915153188e-05  1.1311529022698463e-05  1.2390452614702923e-05  1.3501519810404515e-05  1.4644806326457127e-05  1.5820229886560689e-05  1.7027526705578242e-05  1.8266226074560562e-05  1.9535623129906989e-05  2.0834749960390729e-05  2.2162345291345252e-05  2.3516823086861915e-05  2.4896240528921047e-05  2.6298265966322491e-05  2.7720147574925311e-05  2.9158683630654521e-05  3.0610195463355062e-05  3.2070504326283476e-05  3.3534913573150433e-05  3.4998197668861293e-05  3.6454599661604735e-05  3.7897838795965038e-05  3.9321129910376420e-05  4.0717216178836791e-05  4.2078416517490399e-05  4.3396688667474103e-05  4.4663708498009653e-05  4.5870965508174462e-05  4.7009873802142232e-05  4.8071897044823338e-05  4.9048685072152478e-05  4.9932218987095109e-05  5.0714960806415192e-05  5.1390003054346578e-05  5.1951213232628939e-05  5.2393367866451647e-05  5.2712270885228954e-05  5.2904851477161403e-05  5.2969237235801127e-05  5.2904799386671217e-05  5.2712168070207057e-05  5.2393216992067155e-05  5.1951018135089565e-05  5.1389768560732877e-05  5.0714692516609354e-05  4.9931923031513561e-05  4.9048367863073047e-05  4.8071565035970677e-05  4.7009533268837037e-05  4.5870622359193809e-05  4.4663368122998836e-05  4.3396355826899110e-05  4.2078095272581815e-05  4.0716909858533772e-05  3.9320841114053525e-05  3.7897569422281415e-05  3.6454350959762805e-05  3.4997970303079343e-05  3.3534707699559871e-05  3.2070319669833962e-05  3.0610031397598402e-05  2.9158539253337745e-05  2.7720021777428590e-05  2.6298157496158481e-05  2.4896148044133793e-05  2.3516745202046422e-05  2.2162280615563368e-05  2.0834697127474146e-05  1.9535580821819939e-05  1.8266193038666802e-05  1.7027501766639263e-05  1.5820211954319941e-05  1.4644794399598094e-05  1.3501512977609919e-05  1.2390450053451161e-05  1.1311529996369798e-05  1.0264540768967810e-05  9.2491536096164571e-06  8.2649408603819041e-06  7.3113920178512208e-06  6.3879281018226558e-06  5.4939144482893193e-06  4.6286720399510242e-06  3.7914874890553666e-06  2.9816217504725176e-06  2.1983175433867078e-06  1.4408069560238349e-06  7.0830641207557136e-07  0.0000000000000000e+00  0.0000000000000000e+00  8.1997749403144480e-07  1.6691102745629282e-06  2.5484203943834316e-06  3.4589329343547462e-06  4.4016751523954824e-06  5.3776678685295516e-06  6.3879219175541256e-06  7.4334334839243496e-06  8.5151657824588758e-06  9.6340420467845480e-06  1.0790931778342116e-05  1.1986635554383715e-05  1.3221867834502077e-05  1.4497237474616134e-05  1.5813225822827851e-05  1.7170162244570250e-05  1.8568196948943535e-05  2.0007271023353303e-05  2.1487083633647025e-05  2.3007056413306892e-05  2.4566295151111527e-05  2