<?xml version="1.0"?>
<VTKFile type="UnstructuredGrid"  version="0.1"  >
<UnstructuredGrid>
<Piece  NumberOfPoints="10201" NumberOfCells="20000">
<Points>
<DataArray  type="Float64"  NumberOfComponents="3"  format="ascii">0 0 0  0.01 0 0  0.02 0 0  0.03 0 0  0.04 0 0  0.05 0 0  0.06 0 0  0.07000000000000001 0 0  0.08 0 0  0.09 0 0  0.1 0 0  0.11 0 0  0.12 0 0  0.13 0 0  0.14 0 0  0.15 0 0  0.16 0 0  0.17 0 0  0.18 0 0  0.19 0 0  0.2 0 0  0.21 0 0  0.22 0 0  0.23 0 0  0.24 0 0  0.25 0 0  0.26 0 0  0.27 0 0  0.28 0 0  0.29 0 0  0.3 0 0  0.31 0 0  0.32 0 0  0.33 0 0  0.34 0 0  0.35 0 0  0.36 0 0  0.37 0 0  0.38 0 0  0.39 0 0  0.4 0 0  0.41 0 0  0.42 0 0  0.43 0 0  0.44 0 0  0.45 0 0  0.46 0 0  0.47 0 0  0.48 0 0  0.49 0 0  0.5 0 0  0.51 0 0  0.52 0 0  0.53 0 0  0.54 0 0  0.55 0 0  0.5600000000000001 0 0  0.57 0 0  0.58 0 0  0.59 0 0  0.6 0 0  0.61 0 0  0.62 0 0  0.63 0 0  0.64 0 0  0.65 0 0  0.66 0 0  0.67 0 0  0.68 0 0  0.6899999999999999 0 0  0.7 0 0  0.71 0 0  0.72 0 0  0.73 0 0  0.74 0 0  0.75 0 0  0.76 0 0  0.77 0 0  0.78 0 0  0.79 0 0  0.8 0 0  0.8100000000000001 0 0  0.82 0 0  0.83 0 0  0.84 0 0  0.85 0 0  0.86 0 0  0.87 0 0  0.88 0 0  0.89 0 0  0.9 0 0  0.91 0 0  0.92 0 0  0.93 0 0  0.9399999999999999 0 0  0.95 0 0  0.96 0 0  0.97 0 0  0.98 0 0  0.99 0 0  1 0 0  0 0.01 0  0.01 0.01 0  0.02 0.01 0  0.03 0.01 0  0.04 0.01 0  0.05 0.01 0  0.06 0.01 0  0.07000000000000001 0.01 0  0.08 0.01 0  0.09 0.01 0  0.1 0.01 0  0.11 0.01 0  0.12 0.01 0  0.13 0.01 0  0.14 0.01 0  0.15 0.01 0  0.16 0.01 0  0.17 0.01 0  0.18 0.01 0  0.19 0.01 0  0.2 0.01 0  0.21 0.01 0  0.22 0.01 0  0.23 0.01 0  0.24 0.01 0  0.25 0.01 0  0.26 0.01 0  0.27 0.01 0  0.28 0.01 0  0.29 0.01 0  0.3 0.01 0  0.31 0.01 0  0.32 0.01 0  0.33 0.01 0  0.34 0.01 0  0.35 0.01 0  0.36 0.01 0  0.37 0.01 0  0.38 0.01 0  0.39 0.01 0  0.4 0.01 0  0.41 0.01 0  0.42 0.01 0  0.43 0.01 0  0.44 0.01 0  0.45 0.01 0  0.46 0.01 0  0.47 0.01 0  0.48 0.01 0  0.49 0.01 0  0.5 0.01 0  0.51 0.01 0  0.52 0.01 0  0.53 0.01 0  0.54 0.01 0  0.55 0.01 0  0.5600000000000001 0.01 0  0.57 0.01 0  0.58 0.01 0  0.59 0.01 0  0.6 0.01 0  0.61 0.01 0  0.62 0.01 0  0.63 0.01 0  0.64 0.01 0  0.65 0.01 0  0.66 0.01 0  0.67 0.01 0  0.68 0.01 0  0.6899999999999999 0.01 0  0.7 0.01 0  0.71 0.01 0  0.72 0.01 0  0.73 0.01 0  0.74 0.01 0  0.75 0.01 0  0.76 0.01 0  0.77 0.01 0  0.78 0.01 0  0.79 0.01 0  0.8 0.01 0  0.8100000000000001 0.01 0  0.82 0.01 0  0.83 0.01 0  0.84 0.01 0  0.85 0.01 0  0.86 0.01 0  0.87 0.01 0  0.88 0.01 0  0.89 0.01 0  0.9 0.01 0  0.91 0.01 0  0.92 0.01 0  0.93 0.01 0  0.9399999999999999 0.01 0  0.95 0.01 0  0.96 0.01 0  0.97 0.01 0  0.98 0.01 0  0.99 0.01 0  1 0.01 0  0 0.02 0  0.01 0.02 0  0.02 0.02 0  0.03 0.02 0  0.04 0.02 0  0.05 0.02 0  0.06 0.02 0  0.07000000000000001 0.02 0  0.08 0.02 0  0.09 0.02 0  0.1 0.02 0  0.11 0.02 0  0.12 0.02 0  0.13 0.02 0  0.14 0.02 0  0.15 0.02 0  0.16 0.02 0  0.17 0.02 0  0.18 0.02 0  0.19 0.02 0  0.2 0.02 0  0.21 0.02 0  0.22 0.02 0  0.23 0.02 0  0.24 0.02 0  0.25 0.02 0  0.26 0.02 0  0.27 0.02 0  0.28 0.02 0  0.29 0.02 0  0.3 0.02 0  0.31 0.02 0  0.32 0.02 0  0.33 0.02 0  0.34 0.02 0  0.35 0.02 0  0.36 0.02 0  0.37 0.02 0  0.38 0.02 0  0.39 0.02 0  0.4 0.02 0  0.41 0.02 0  0.42 0.02 0  0.43 0.02 0  0.44 0.02 0  0.45 0.02 0  0.46 0.02 0  0.47 0.02 0  0.48 0.02 0  0.49 0.02 0  0.5 0.02 0  0.51 0.02 0  0.52 0.02 0  0.53 0.02 0  0.54 0.02 0  0.55 0.02 0  0.5600000000000001 0.02 0  0.57 0.02 0  0.58 0.02 0  0.59 0.02 0  0.6 0.02 0  0.61 0.02 0  0.62 0.02 0  0.63 0.02 0  0.64 0.02 0  0.65 0.02 0  0.66 0.02 0  0.67 0.02 0  0.68 0.02 0  0.6899999999999999 0.02 0  0.7 0.02 0  0.71 0.02 0  0.72 0.02 0  0.73 0.02 0  0.74 0.02 0  0.75 0.02 0  0.76 0.02 0  0.77 0.02 0  0.78 0.02 0  0.79 0.02 0  0.8 0.02 0  0.8100000000000001 0.02 0  0.82 0.02 0  0.83 0.02 0  0.84 0.02 0  0.85 0.02 0  0.86 0.02 0  0.87 0.02 0  0.88 0.02 0  0.89 0.02 0  0.9 0.02 0  0.91 0.02 0  0.92 0.02 0  0.93 0.02 0  0.9399999999999999 0.02 0  0.95 0.02 0  0.96 0.02 0  0.97 0.02 0  0.98 0.02 0  0.99 0.02 0  1 0.02 0  0 0.03 0  0.01 0.03 0  0.02 0.03 0  0.03 0.03 0  0.04 0.03 0  0.05 0.03 0  0.06 0.03 0  0.07000000000000001 0.03 0  0.08 0.03 0  0.09 0.03 0  0.1 0.03 0  0.11 0.03 0  0.12 0.03 0  0.13 0.03 0  0.14 0.03 0  0.15 0.03 0  0.16 0.03 0  0.17 0.03 0  0.18 0.03 0  0.19 0.03 0  0.2 0.03 0  0.21 0.03 0  0.22 0.03 0  0.23 0.03 0  0.24 0.03 0  0.25 0.03 0  0.26 0.03 0  0.27 0.03 0  0.28 0.03 0  0.29 0.03 0  0.3 0.03 0  0.31 0.03 0  0.32 0.03 0  0.33 0.03 0  0.34 0.03 0  0.35 0.03 0  0.36 0.03 0  0.37 0.03 0  0.38 0.03 0  0.39 0.03 0  0.4 0.03 0  0.41 0.03 0  0.42 0.03 0  0.43 0.03 0  0.44 0.03 0  0.45 0.03 0  0.46 0.03 0  0.47 0.03 0  0.48 0.03 0  0.49 0.03 0  0.5 0.03 0  0.51 0.03 0  0.52 0.03 0  0.53 0.03 0  0.54 0.03 0  0.55 0.03 0  0.5600000000000001 0.03 0  0.57 0.03 0  0.58 0.03 0  0.59 0.03 0  0.6 0.03 0  0.61 0.03 0  0.62 0.03 0  0.63 0.03 0  0.64 0.03 0  0.65 0.03 0  0.66 0.03 0  0.67 0.03 0  0.68 0.03 0  0.6899999999999999 0.03 0  0.7 0.03 0  0.71 0.03 0  0.72 0.03 0  0.73 0.03 0  0.74 0.03 0  0.75 0.03 0  0.76 0.03 0  0.77 0.03 0  0.78 0.03 0  0.79 0.03 0  0.8 0.03 0  0.8100000000000001 0.03 0  0.82 0.03 0  0.83 0.03 0  0.84 0.03 0  0.85 0.03 0  0.86 0.03 0  0.87 0.03 0  0.88 0.03 0  0.89 0.03 0  0.9 0.03 0  0.91 0.03 0  0.92 0.03 0  0.93 0.03 0  0.9399999999999999 0.03 0  0.95 0.03 0  0.96 0.03 0  0.97 0.03 0  0.98 0.03 0  0.99 0.03 0  1 0.03 0  0 0.04 0  0.01 0.04 0  0.02 0.04 0  0.03 0.04 0  0.04 0.04 0  0.05 0.04 0  0.06 0.04 0  0.07000000000000001 0.04 0  0.08 0.04 0  0.09 0.04 0  0.1 0.04 0  0.11 0.04 0  0.12 0.04 0  0.13 0.04 0  0.14 0.04 0  0.15 0.04 0  0.16 0.04 0  0.17 0.04 0  0.18 0.04 0  0.19 0.04 0  0.2 0.04 0  0.21 0.04 0  0.22 0.04 0  0.23 0.04 0  0.24 0.04 0  0.25 0.04 0  0.26 0.04 0  0.27 0.04 0  0.28 0.04 0  0.29 0.04 0  0.3 0.04 0  0.31 0.04 0  0.32 0.04 0  0.33 0.04 0  0.34 0.04 0  0.35 0.04 0  0.36 0.04 0  0.37 0.04 0  0.38 0.04 0  0.39 0.04 0  0.4 0.04 0  0.41 0.04 0  0.42 0.04 0  0.43 0.04 0  0.44 0.04 0  0.45 0.04 0  0.46 0.04 0  0.47 0.04 0  0.48 0.04 0  0.49 0.04 0  0.5 0.04 0  0.51 0.04 0  0.52 0.04 0  0.53 0.04 0  0.54 0.04 0  0.55 0.04 0  0.5600000000000001 0.04 0  0.57 0.04 0  0.58 0.04 0  0.59 0.04 0  0.6 0.04 0  0.61 0.04 0  0.62 0.04 0  0.63 0.04 0  0.64 0.04 0  0.65 0.04 0  0.66 0.04 0  0.67 0.04 0  0.68 0.04 0  0.6899999999999999 0.04 0  0.7 0.04 0  0.71 0.04 0  0.72 0.04 0  0.73 0.04 0  0.74 0.04 0  0.75 0.04 0  0.76 0.04 0  0.77 0.04 0  0.78 0.04 0  0.79 0.04 0  0.8 0.04 0  0.8100000000000001 0.04 0  0.82 0.04 0  0.83 0.04 0  0.84 0.04 0  0.85 0.04 0  0.86 0.04 0  0.87 0.04 0  0.88 0.04 0  0.89 0.04 0  0.9 0.04 0  0.91 0.04 0  0.92 0.04 0  0.93 0.04 0  0.9399999999999999 0.04 0  0.95 0.04 0  0.96 0.04 0  0.97 0.04 0  0.98 0.04 0  0.99 0.04 0  1 0.04 0  0 0.05 0  0.01 0.05 0  0.02 0.05 0  0.03 0.05 0  0.04 0.05 0  0.05 0.05 0  0.06 0.05 0  0.07000000000000001 0.05 0  0.08 0.05 0  0.09 0.05 0  0.1 0.05 0  0.11 0.05 0  0.12 0.05 0  0.13 0.05 0  0.14 0.05 0  0.15 0.05 0  0.16 0.05 0  0.17 0.05 0  0.18 0.05 0  0.19 0.05 0  0.2 0.05 0  0.21 0.05 0  0.22 0.05 0  0.23 0.05 0  0.24 0.05 0  0.25 0.05 0  0.26 0.05 0  0.27 0.05 0  0.28 0.05 0  0.29 0.05 0  0.3 0.05 0  0.31 0.05 0  0.32 0.05 0  0.33 0.05 0  0.34 0.05 0  0.35 0.05 0  0.36 0.05 0  0.37 0.05 0  0.38 0.05 0  0.39 0.05 0  0.4 0.05 0  0.41 0.05 0  0.42 0.05 0  0.43 0.05 0  0.44 0.05 0  0.45 0.05 0  0.46 0.05 0  0.47 0.05 0  0.48 0.05 0  0.49 0.05 0  0.5 0.05 0  0.51 0.05 0  0.52 0.05 0  0.53 0.05 0  0.54 0.05 0  0.55 0.05 0  0.5600000000000001 0.05 0  0.57 0.05 0  0.58 0.05 0  0.59 0.05 0  0.6 0.05 0  0.61 0.05 0  0.62 0.05 0  0.63 0.05 0  0.64 0.05 0  0.65 0.05 0  0.66 0.05 0  0.67 0.05 0  0.68 0.05 0  0.6899999999999999 0.05 0  0.7 0.05 0  0.71 0.05 0  0.72 0.05 0  0.73 0.05 0  0.74 0.05 0  0.75 0.05 0  0.76 0.05 0  0.77 0.05 0  0.78 0.05 0  0.79 0.05 0  0.8 0.05 0  0.8100000000000001 0.05 0  0.82 0.05 0  0.83 0.05 0  0.84 0.05 0  0.85 0.05 0  0.86 0.05 0  0.87 0.05 0  0.88 0.05 0  0.89 0.05 0  0.9 0.05 0  0.91 0.05 0  0.92 0.05 0  0.93 0.05 0  0.9399999999999999 0.05 0  0.95 0.05 0  0.96 0.05 0  0.97 0.05 0  0.98 0.05 0  0.99 0.05 0  1 0.05 0  0 0.06 0  0.01 0.06 0  0.02 0.06 0  0.03 0.06 0  0.04 0.06 0  0.05 0.06 0  0.06 0.06 0  0.07000000000000001 0.06 0  0.08 0.06 0  0.09 0.06 0  0.1 0.06 0  0.11 0.06 0  0.12 0.06 0  0.13 0.06 0  0.14 0.06 0  0.15 0.06 0  0.16 0.06 0  0.17 0.06 0  0.18 0.06 0  0.19 0.06 0  0.2 0.06 0  0.21 0.06 0  0.22 0.06 0  0.23 0.06 0  0.24 0.06 0  0.25 0.06 0  0.26 0.06 0  0.27 0.06 0  0.28 0.06 0  0.29 0.06 0  0.3 0.06 0  0.31 0.06 0  0.32 0.06 0  0.33 0.06 0  0.34 0.06 0  0.35 0.06 0  0.36 0.06 0  0.37 0.06 0  0.38 0.06 0  0.39 0.06 0  0.4 0.06 0  0.41 0.06 0  0.42 0.06 0  0.43 0.06 0  0.44 0.06 0  0.45 0.06 0  0.46 0.06 0  0.47 0.06 0  0.48 0.06 0  0.49 0.06 0  0.5 0.06 0  0.51 0.06 0  0.52 0.06 0  0.53 0.06 0  0.54 0.06 0  0.55 0.06 0  0.5600000000000001 0.06 0  0.57 0.06 0  0.58 0.06 0  0.59 0.06 0  0.6 0.06 0  0.61 0.06 0  0.62 0.06 0  0.63 0.06 0  0.64 0.06 0  0.65 0.06 0  0.66 0.06 0  0.67 0.06 0  0.68 0.06 0  0.6899999999999999 0.06 0  0.7 0.06 0  0.71 0.06 0  0.72 0.06 0  0.73 0.06 0  0.74 0.06 0  0.75 0.06 0  0.76 0.06 0  0.77 0.06 0  0.78 0.06 0  0.79 0.06 0  0.8 0.06 0  0.8100000000000001 0.06 0  0.82 0.06 0  0.83 0.06 0  0.84 0.06 0  0.85 0.06 0  0.86 0.06 0  0.87 0.06 0  0.88 0.06 0  0.89 0.06 0  0.9 0.06 0  0.91 0.06 0  0.92 0.06 0  0.93 0.06 0  0.9399999999999999 0.06 0  0.95 0.06 0  0.96 0.06 0  0.97 0.06 0  0.98 0.06 0  0.99 0.06 0  1 0.06 0  0 0.07000000000000001 0  0.01 0.07000000000000001 0  0.02 0.07000000000000001 0  0.03 0.07000000000000001 0  0.04 0.07000000000000001 0  0.05 0.07000000000000001 0  0.06 0.07000000000000001 0  0.07000000000000001 0.07000000000000001 0  0.08 0.07000000000000001 0  0.09 0.07000000000000001 0  0.1 0.07000000000000001 0  0.11 0.07000000000000001 0  0.12 0.07000000000000001 0  0.13 0.07000000000000001 0  0.14 0.07000000000000001 0  0.15 0.07000000000000001 0  0.16 0.07000000000000001 0  0.17 0.0700
[...]
<PointData  Scalars="u"> 
<DataArray  type="Float64"  Name="u"  format="ascii">0.0000000000000000e+00  0.0000000000000000e+00  0.0000000000000000e+00  0.0000000000000000e+00  0.0000000000000000e+00  0.0000000000000000e+00  0.0000000000000000e+00  0.0000000000000000e+00  0.0000000000000000e+00  0.0000000000000000e+00  0.0000000000000000e+00  0.0000000000000000e+00  0.0000000000000000e+00  0.0000000000000000e+00  0.0000000000000000e+00  0.0000000000000000e+00  0.0000000000000000e+00  0.0000000000000000e+00  0.0000000000000000e+00  0.0000000000000000e+00  0.0000000000000000e+00  0.0000000000000000e+00  0.0000000000000000e+00  0.0000000000000000e+00  0.0000000000000000e+00  0.0000000000000000e+00  0.0000000000000000e+00  0.0000000000000000e+00  0.0000000000000000e+00  0.0000000000000000e+00  0.0000000000000000e+00  0.0000000000000000e+00  0.0000000000000000e+00  0.0000000000000000e+00  0.0000000000000000e+00  0.0000000000000000e+00  0.0000000000000000e+00  0.0000000000000000e+00  0.0000000000000000e+00  0.0000000000000000e+00  0.0000000000000000e+00  0.0000000000000000e+00  0.0000000000000000e+00  0.0000000000000000e+00  0.0000000000000000e+00  0.0000000000000000e+00  0.0000000000000000e+00  0.0000000000000000e+00  0.0000000000000000e+00  0.0000000000000000e+00  0.0000000000000000e+00  0.0000000000000000e+00  0.0000000000000000e+00  0.0000000000000000e+00  0.0000000000000000e+00  0.0000000000000000e+00  0.0000000000000000e+00  0.0000000000000000e+00  0.0000000000000000e+00  0.0000000000000000e+00  0.0000000000000000e+00  0.0000000000000000e+00  0.0000000000000000e+00  0.0000000000000000e+00  0.0000000000000000e+00  0.0000000000000000e+00  0.0000000000000000e+00  0.0000000000000000e+00  0.0000000000000000e+00  0.0000000000000000e+00  0.0000000000000000e+00  0.0000000000000000e+00  0.0000000000000000e+00  0.0000000000000000e+00  0.0000000000000000e+00  0.0000000000000000e+00  0.0000000000000000e+00  0.0000000000000000e+00  0.0000000000000000e+00  0.0000000000000000e+00  0.0000000000000000e+00  0.0000000000000000e+00  0.0000000000000000e+00  0.0000000000000000e+00  0.0000000000000000e+00  0.0000000000000000e+00  0.0000000000000000e+00  0.0000000000000000e+00  0.0000000000000000e+00  0.0000000000000000e+00  0.0000000000000000e+00  0.0000000000000000e+00  0.0000000000000000e+00  0.0000000000000000e+00  0.0000000000000000e+00  0.0000000000000000e+00  0.0000000000000000e+00  0.0000000000000000e+00  0.0000000000000000e+00  0.0000000000000000e+00  0.0000000000000000e+00  0.0000000000000000e+00  3.5129720560324972e-07  7.1194996022057276e-07  1.0821808081368892e-06  1.4621246397271550e-06  1.8518947583249990e-06  2.2515838319209189e-06  2.6612608941423245e-06  3.0809679849438608e-06  3.5107165110246592e-06  3.9504833217781705e-06  4.4002064997736416e-06  4.8597808691917966e-06  5.3290532313507468e-06  5.8078173433300612e-06  6.2958086638270723e-06  6.7926988998224289e-06  7.2980903984886370e-06  7.8115104409708178e-06  8.3324055083202912e-06  8.8601356046745280e-06  9.3939687387796558e-06  9.9330756816687884e-06  1.0476525135494743e-05  1.1023279465535402e-05  1.1572191163666245e-05  1.2122000226207227e-05  1.2671332641151512e-05  1.3218700188162705e-05  1.3762501758298106e-05  1.4301026397801258e-05  1.4832458270321852e-05  1.5354883713328872e-05  1.5866300536301710e-05  1.6364629669682790e-05  1.6847729224373909e-05  1.7313410961760592e-05  1.7759459104860249e-05  1.8183651343579199e-05  1.8583781803681968e-05  1.8957685662923593e-05  1.9303265012615678e-05  1.9618515483097028e-05  1.9901553081647417e-05  2.0150640636181435e-05  2.0364213201802662e-05  2.0540901773842692e-05  2.0679554663003535e-05  2.0779255927089090e-05  2.0839340319385741e-05  2.0859404304191395e-05  2.0839312801874021e-05  2.0779201454167623e-05  2.0679474339137003e-05  2.0540797207443485e-05  2.0364086450197915e-05  2.0150494136834808e-05  1.9901389573134289e-05  1.9618337919687279e-05  1.9303076476429520e-05  1.8957489277463581e-05  1.8583580652183380e-05  1.8183448395071824e-05  1.7759257150184329e-05  1.7313212561043926e-05  1.6847536666786897e-05  1.6364444945583326e-05  1.5866125321329401e-05  1.5354719363514854e-05  1.4832305826916002e-05  1.4300886600322786e-05  1.3762375064156475e-05  1.3218586797234961e-05  1.2671232523724114e-05  1.2121913152851963e-05  1.1572116735798547e-05  1.1023217145586998e-05  1.0476474275849704e-05  9.9330355517237976e-06  9.3939385496568528e-06  8.8601145313219466e-06  8.3323927088339686e-06  7.8115050731345780e-06  7.2980916335978071e-06  6.7927059339383910e-06  6.2958207266513776e-06  5.8078337049379560e-06  5.3290732070081191e-06  4.8598038225242559e-06  4.4002318445117423e-06  3.9505105223198561e-06  3.5107450820267137e-06  3.0809974901296636e-06  2.6612909444683809e-06  2.2516140830163047e-06  1.8519249055348255e-06  1.4621543975664851e-06  1.0822097739827261e-06  7.1197659055810759e-07  3.5131301655846086e-07  0.0000000000000000e+00  0.0000000000000000e+00  7.1191445382503553e-07  1.4437491995514418e-06  2.1958621088137337e-06  2.9686100729623713e-06  3.7623015067737372e-06  4.5772010832502506e-06  5.4135279746914745e-06  6.2714490692419937e-06  7.1510712179732283e-06  8.0524328017198527e-06  8.9754946112654236e-06  9.9201300360173830e-06  1.0886114567790178e-05  1.1873114640569600e-05  1.2880675844409678e-05  1.3908210572183664e-05  1.4954985181908866e-05  1.6020106785075725e-05  1.7102509802721780e-05  1.8200942465988283e-05  1.9313953476119998e-05  2.0439879079966988e-05  2.1576830860124257e-05  2.2722684582811751e-05  2.3875070490040489e-05  2.5031365463473196e-05  2.6188687523632637e-05  2.7343893156764699e-05  2.8493577979883836e-05  2.9634081258932025e-05  3.0761494782054153e-05  3.1871676556478891e-05  3.2960269740205815e-05  3.4022727136147498e-05  3.5054341465107153e-05  3.6050281494519109e-05  3.7005633933750561e-05  3.7915450817025107e-05  3.8774801887035152e-05  3.9578831273577032e-05  4.0322817541380213e-05  4.1002235971106314e-05  4.1612821749317498e-05  4.2150632590074725e-05  4.2612109204635323e-05  4.2994131987332117e-05  4.3294072303026043e-05  4.3509836849166339e-05  4.3639903723751534e-05  4.3683349055071199e-05  4.3639863331120250e-05  4.3509756893070097e-05  4.3293954411603081e-05  4.2993978529015595e-05  4.2611923204277453e-05  4.2150417624464776e-05  4.1612581827636926e-05  4.1001975406393062e-05  4.0322540819191992e-05  3.9578542923708486e-05  3.8774506363525727e-05  3.7915152390738380e-05  3.7005336600756486e-05  3.6049988902315788e-05  3.5054056857618901e-05  3.4022453317392434e-05  3.2960009055648168e-05  3.1871430890405395e-05  3.0761265568817126e-05  2.9633869505628515e-05  2.8493384297929291e-05  2.7343717799874358e-05  2.6188530429874324e-05  2.5031226299321623e-05  2.3874948694653304e-05  2.2722579411083284e-05  2.1576741423374862e-05  2.0439804383484353e-05  1.9313892452973711e-05  1.8200894006855428e-05  1.7102472781609235e-05  1.6020080081008037e-05  1.4954967696764613e-05  1.3908201244955101e-05  1.2880673662206839e-05  1.1873118646731189e-05  1.0886123867470850e-05  9.9201437996090271e-06  8.9755120760060961e-06  8.0524532718074223e-06  7.1510940634791066e-06  6.2714737240831752e-06  5.4135539338511561e-06  4.5772278992168198e-06  3.7623287834659514e-06  2.9686374491743059e-06  2.1958894254397017e-06  1.4437803322749281e-06  7.1196425034890339e-07  0.0000000000000000e+00  0.0000000000000000e+00  1.0821501236536399e-06  2.1958735057478911e-06  3.3418029816191688e-06  4.5206102812834086e-06  5.7328712877807860e-06  6.9791177660040235e-06  8.2598153502838036e-06  9.5753546307257258e-06  1.0926039263387799e-05  1.2312072488886001e-05  1.3733542402639590e-05  1.5190405971745228e-05  1.6682471785883053e-05  1.8209381550747843e-05  1.9770590359449201e-05  2.1365345810116165e-05  2.2992666077261878e-05  2.4651317090678958e-05  2.6339789029095417e-05  2.8056272396691988e-05  2.9798634018554751e-05  3.1564393365772387e-05  3.3350699700933536e-05  3.5154310618773042e-05  3.6971572641979051e-05  3.8798404615912698e-05  4.0630284723799729e-05  4.2462242011217267e-05  4.4288853359621601e-05  4.6104246876659785e-05  4.7902112669484992e-05  4.9675721928683264e-05  5.1417955168532551e-05  5.3121340337494483e-05  5.4778101327359273e-05  5.6380217167693583e-05  5.7919491895283741e-05  5.9387634740732284e-05  6.0776349885045343e-05  6.2077434621258900e-05  6.3282884327958702e-05  6.4385002244248571e-05  6.5376511654533661e-05  6.6250667771757674e-05  6.7001366375818143e-05  6.7623246141925336e-05  6.8111781600231828e-05  6.8463363813633040e-05  6.8675366147799975e-05  6.8746192928621438e-05  6.8675309320295698e-05  6.8463251386135417e-05  6.8111615980524223e-05  6.7623030826393548e-05  6.7001105818818515e-05  6.6250367223553741e-05  6.5376176976864240e-05  6.4384639713394615e-05  6.3282500435202549e-05  6.2077035880035659e-05  6.0775942652827107e-05  5.9387225062184973e-05  5.7919085371247586e-05  5.6379818852765356e-05  5.4777715656895325e-05  5.3120971083345883e-05  5.1417605421416280e-05  4.9675394104133274e-05  4.7901808533690033e-05  4.6103967588154397e-05  4.4288599522747649e-05  4.2462013737531404e-05  4.0630081697848806e-05  3.8798226162397929e-05  3.6971417791745104e-05  3.5154178171677074e-05  3.3350588284125146e-05  3.1564301486398385e-05  2.9798560110352693e-05  2.8056214860201900e-05  2.6339746265600252e-05  2.4651287530093181e-05  2.2992648200413330e-05  2.1365338165919918e-05  1.9770591577550268e-05  1.8209390350206461e-05  1.6682486980501416e-05  1.5190426472566345e-05  1.3733567218148633e-05  1.2312100723369615e-05  1.0926070113865502e-05  9.5753873828140055e-06  8.2598493732979154e-06  6.9791525078743335e-06  5.7329062933094885e-06  4.5206456266570584e-06  3.3418418278722260e-06  2.1959115057547078e-06  1.0822161287147101e-06  0.0000000000000000e+00  0.0000000000000000e+00  1.4621001846877446e-06  2.9686099974028192e-06  4.5206315167607329e-06  6.1191242529858607e-06  7.7651021945639881e-06  9.4594584533966314e-06  1.1203017266705035e-05  1.2996510414905952e-05  1.4840559746358925e-05  1.6735658386456026e-05  1.8682149772599252e-05  2.0680204660317114e-05  2.2729796079141507e-05  2.4830672211213235e-05  2.6982327199818238e-05  2.9183969940483045e-05  3.1434490963080132e-05  3.3732427580760588e-05  3.6075927561291633e-05  3.8462711669082157e-05  4.0890035532238620e-05  4.3354651407801213e-05  4.5852770549002894e-05  4.8380027018722052e-05  5.0931443940171731e-05  5.3501403324658226e-05  5.6083620760841735e-05  5.8671126382728821e-05  6.1256253644925468e-05  6.3830637513071823e-05  6.6385223712133313e-05  6.8910290652408502e-05  7.1395485560464845e-05  7.3829876166123351e-05  7.6202019028527994e-05  7.8500045216693844e-05  8.0711763591689886e-05  8.2824781373100085e-05  8.4826641024751337e-05  8.6704971784257680e-05  8.8447653417201411e-05  9.0042989038025039e-05  9.1479883148766611e-05  9.2748020452234308e-05  9.3838040545529436e-05  9.4741703337355174e-05  9.5452039994122252e-05  9.5963484428552003e-05  9.6271980807753374e-05  9.6375063264679016e-05  9.6271904917707513e-05  9.5963334391083077e-05  9.5451819223226072e-05  9.4741416780446140e-05  9.3837694487455868e-05  9.2747622273275454e-05  9.1479441050945843e-05  9.0042511755140275e-05  8.8447149923850165e-05  8.6704451017975966e-05  8.4826111633254931e-05  8.2824251495894672e-05  8.0711240682320855e-05  7.8499535908789413e-05  7.6201529046113664e-05  7.3829410276081759e-05  7.1395047563219087e-05  6.8909883405577301e-05  6.6384849181059001e-05  6.3830296841914768e-05  6.1255947242109615e-05  5.8670854015123972e-05  5.6083381651538611e-05  5.3501196250264691e-05  5.0931267324251078e-05  4.8379879018863901e-05  4.5852649135864481e-05  4.3354554435073433e-05  4.0889960797100071e-05  3.8462656963158643e-05  3.6075890712486687e-05  3.3732406486579437e-05  3.1434483616219578e-05  2.9183974447569153e-05  2.6982341794193399e-05  2.4830695260668239e-05  2.2729826089442940e-05  2.0680240275319089e-05  1.8682189771647996e-05  1.6735701679719809e-05  1.4840605368626315e-05  1.2996557518372171e-05  1.1203065115103228e-05  9.4595064550972970e-06  7.7651502329492593e-06  6.1191727871030732e-06  4.5206734535576703e-06  2.9686869826124561e-06  1.4621845374200145e-06  0.0000000000000000e+00  0.0000000000000000e+00  1.8518759683978504e-06  3.7623131854242066e-06  5.7328897135651963e-06  7.7651236616144747e-06  9.8604613335989879e-06  1.2020323684897938e-05  1.4246023642471318e-05  1.6538770831770409e-05  1.8899649686550008e-05  2.1329593446457630e-05  2.3829356369207234e-05  2.6399482977067217e-05  2.9040274208122906e-05  3.1751750398170490e-05  3.4533611038564720e-05  3.7385191309233614e-05  4.0305415458270889e-05  4.3292747189301023e-05  4.6345137327052031e-05  4.9459969161801473e-05  5.2634002025766156e-05  5.5863313829526240e-05  5.9143243483567265e-05  6.2468334347023252e-05  6.5832280079068325e-05  6.9227874512098729e-05  7.2646967411826410e-05  7.6080428226274078e-05  7.9518120139308366e-05  8.2948886917945112e-05  8.6360555155740544e-05  8.9739954546945097e-05  9.3072958749251342e-05  9.6344549196515831e-05  9.9538903866841326e-05  1.0263951250362281e-04  1.0562931909827370e-04  1.0849089159096532e-04  1.1120661773471492e-04  1.1375892493504108e-04  1.1613052066248693e-04  1.1830464880196307e-04  1.2026535612400450e-04  1.2199776202009234e-04  1.2348832382296803e-04  1.2472508951348360e-04  1.2569792946535467e-04  1.2639873914545137e-04  1.2682160538646028e-04  1.2696292996947081e-04  1.2682150574620069e-04  1.2639854231544527e-04  1.2569764023967898e-04  1.2472471482317509e-04  1.2348787244359914e-04  1.2199724421259675e-04  1.2026478323140971e-04  1.1830403282582647e-04  1.1612987384268002e-04  1.1375825935409010e-04  1.1120594496422634e-04  1.0849022239308219e-04  1.0562866319023214e-04  1.0263887838881600e-04  9.9538298731417812e-05  9.6343978866752475e-05  9.3072427702872189e-05  8.9739465969131189e-05  8.6360111030601088e-05  8.2948488144791386e-05  7.9517766666042992e-05  7.6080119189968906e-05  7.2646701281001662e-05  6.9227649224392040e-05  6.5832093170290252e-05  6.2468183068649296e-05  5.9143124906910870e-05  5.5863224935733421e-05  5.2633939781541286e-05  4.9459930581417943e-05  4.6345119521520567e-05  4.3292747403927314e-05  4.0305431099918304e-05  3.7385219964703816e-05  3.4533650485461227e-05  3.1751798609564893e-05  2.9040329352206877e-05  2.6399543412897572e-05  2.3829420639465606e-05  2.1329660268061822e-05  1.8899717939956573e-05  1.6538839552842465e-05  1.4246092047757600e-05  1.2020391264440189e-05  9.8605270176576287e-06  7.7651855409491202e-06  5.7329692948499033e-06  3.7624129437725701e-06  1.8519852930749433e-06  0.0000000000000000e+00  0.0000000000000000e+00  2.2515716518053390e-06  4.5772229159433383e-06  6.9791410600111750e-06  9.4594950480104097e-06  1.2020343666376485e-05  1.4663752975078412e-05  1.7391679301325341e-05  2.0205976173074747e-05  2.3108360580230265e-05  2.6100385085552043e-05  2.9183402288667742e-05  3.2358525534696304e-05  3.5626585358746596e-05  3.8988081352066671e-05  4.2443129284121393e-05  4.5991403374804364e-05  4.9632073694737557e-05  5.3363738782661441e-05  5.7184353708714235e-05  6.1091153984107327e-05  6.5080575923988072e-05  6.9148174313468495e-05  7.3288538507477319e-05  7.7495208412398832e-05  8.1760592147963655e-05  8.6075887565025143e-05  9.0431010188355532e-05  9.4814530548380609e-05  9.9213624243526635e-05  1.0361403840570983e-04  1.0800007850380790e-04  1.1235461956812071e-04  1.1665914592337626e-04  1.2089382332759896e-04  1.2503760701935141e-04  1.2906838848778689e-04  1.3296318285397975e-04  1.3669835750741602e-04  1.4024990113949460e-04  1.4359373057566156e-04  1.4670603090141541e-04  1.4956362238528547e-04  1.5214434576523971e-04  1.5442745569325538e-04  1.5639401069507882e-04  1.5802724702426013e-04  1.5931292340177970e-04  1.6023962392573568e-04  1.6079900744563579e-04  1.6098599341119040e-04  1.6079887655367882e-04  1.6023936560298127e-04  1.5931254440872304e-04  1.5802675710888936e-04  1.5639342215329375e-04  1.5442678283249519e-04  1.5214360430678648e-04  1.4956282884270915e-04  1.4670520197230668e-04  1.4359288257832970e-04  1.4024904951951583e-04  1.3669751643289303e-04  1.3296236490803080e-04  1.2906760446279434e-04  1.2503686580709841e-04  1.2089313189687168e-04  1.1665850937262979e-04  1.1235404123874345e-04  1.0799956013554185e-04  1.0361358032509721e-04  9.9213225566007509e-05  9.4814189386361225e-05  9.0430723854833075e-05  8.6075652765731813e-05  8.1760405156420556e-05  7.7495065225687240e-05  7.3288434980572456e-05  6.9148106272086613e-05  6.5080539256642521e-05  6.1091144714749978e-05  5.7184368051821991e-05  5.3363773182834045e-05  4.9632124852998933e-05  4.5991468263711762e-05  4.2443205153731683e-05  3.8988165728581615e-05  3.5626676037497318e-05  3.2358620568888463e-05  2.9183499975125650e-05  2.6100483948766336e-05  2.3108459358751259e-05  2.0206073819903636e-05  1.7391774915759538e-05  1.4663845325899408e-05  1.2020434125113609e-05  9.4595845070118498e-06  6.9792580005142908e-06  4.5773538164097138e-06  2.2517110837607186e-06  0.0000000000000000e+00  0.0000000000000000e+00  2.6612558259238914e-06  5.4135604850047077e-06  8.2598544691359770e-06  1.1203054030793963e-05  1.4246069993512160e-05  1.7391700234780723e-05  2.0642761912069826e-05  2.4001928132666489e-05  2.7471752215583223e-05  3.1054619094547408e-05  3.4752704410869981e-05  3.8567926603395912e-05  4.2501892850155157e-05  4.6555838755559660e-05  5.0730561363849011e-05  5.5026345201527931e-05  5.9442881153396380e-05  6.3979178103809999e-05  6.8633467442277287e-05  7.3403100746062414e-05  7.8284441217426118e-05  8.3272749774622405e-05  8.8362067077369055e-05  9.3545093211136712e-05  9.8813067257895018e-05  1.0415564953945271e-04  1.0956080992055495e-04  1.1501472618491466e-04  1.2050169712381941e-04  1.2600407556732178e-04  1.3150222709232964e-04  1.3697452052328083e-04  1.4239735653699600e-04  1.4774524054604732e-04  1.5299090572148795e-04  1.5810549111846934e-04  1.6305877870303239e-04  1.6781949132586214e-04  1.7235565156093217e-04  1.7663499868454397e-04  1.8062545818441268e-04  1.8429565506042012e-04  1.8761545900964133e-04  1.9055654671049760e-04  1.9309296390761216e-04  1.9520166824510001e-04  1.9686303293245424e-04  1.9806129154976922e-04  1.9878490572770269e-04  1.9902683998954614e-04  1.9878473168668219e-04  1.9806094842357886e-04  1.9686253038368127e-04  1.9520102016491918e-04  1.9309218774423716e-04  1.9055566265729036e-04  1.8761448910445749e-04  1.8429462226339012e-04  1.8062438548911290e-04  1.7663390830867999e-04  1.7235456425802138e-04  1.6781842583198683e-04  1.6305775134458478e-04  1.5810451557048732e-04  1.5298999290490965e-04  1.4774439865861168e-04  1.4239659118124467e-04  1.3697383491646708e-04  1.3150162232436314e-04  1.2600355090257569e-04  1.2050125030049831e-04  1.1501435372279412e-04  1.0956050741034273e-04  1.0415541190662783e-04  9.8812888998307385e-05  9.3544968594221618e-05  8.8361990316188120e-05  8.3272715164066203e-05  7.8284443242691233e-05  7.3403134164204325e-05  6.8633527340258637e-05  6.3979259936378688e-05  5.9442980764195516e-05  5.5026458830582210e-05  5.0730685644291692e-05  4.6555970702123978e-05  4.2502029841640885e-05  3.8568066360941198e-05  3.4752844973889363e-05  3.1054758797283095e-05  2.7471889660730189e-05  2.4002062095980069e-05  2.0642891405117994e-05  1.7391826230605472e-05  1.4246186055775435e-05  1.1203194034158137e-05  8.2600053170029725e-06  5.4137293392354965e-06  2.6614314668424730e-06  0.0000000000000000e+00  0.0000000000000000e+00  3.0809706335594330e-06  6.2714935653054658e-06  9.5754077075770522e-06  1.2996563248337138e-05  1.6538824352988364e-05  2.0206025409601539e-05  2.4001951585335190e-05  2.7930356589881136e-05  3.1994857696219283e-05  3.6198923850650076e-05  4.0545822243046252e-05  4.5038560986448821e-05  4.9679824629615457e-05  5.4471900930633699e-05  5.9416598548721588e-05  6.4515155084208132e-05  6.9768134976546311e-05  7.5175316912358427e-05  8.0735570582843240e-05  8.6446722879256216e-05  9.2305413937587391e-05  9