<?xml version="1.0"?>
<VTKFile type="UnstructuredGrid"  version="0.1"  >
<UnstructuredGrid>
<Piece  NumberOfPoints="10201" NumberOfCells="20000">
<Points>
<DataArray  type="Float64"  NumberOfComponents="3"  format="ascii">0 0 0  0.01 0 0  0.02 0 0  0.03 0 0  0.04 0 0  0.05 0 0  0.06 0 0  0.07000000000000001 0 0  0.08 0 0  0.09 0 0  0.1 0 0  0.11 0 0  0.12 0 0  0.13 0 0  0.14 0 0  0.15 0 0  0.16 0 0  0.17 0 0  0.18 0 0  0.19 0 0  0.2 0 0  0.21 0 0  0.22 0 0  0.23 0 0  0.24 0 0  0.25 0 0  0.26 0 0  0.27 0 0  0.28 0 0  0.29 0 0  0.3 0 0  0.31 0 0  0.32 0 0  0.33 0 0  0.34 0 0  0.35 0 0  0.36 0 0  0.37 0 0  0.38 0 0  0.39 0 0  0.4 0 0  0.41 0 0  0.42 0 0  0.43 0 0  0.44 0 0  0.45 0 0  0.46 0 0  0.47 0 0  0.48 0 0  0.49 0 0  0.5 0 0  0.51 0 0  0.52 0 0  0.53 0 0  0.54 0 0  0.55 0 0  0.5600000000000001 0 0  0.57 0 0  0.58 0 0  0.59 0 0  0.6 0 0  0.61 0 0  0.62 0 0  0.63 0 0  0.64 0 0  0.65 0 0  0.66 0 0  0.67 0 0  0.68 0 0  0.6899999999999999 0 0  0.7 0 0  0.71 0 0  0.72 0 0  0.73 0 0  0.74 0 0  0.75 0 0  0.76 0 0  0.77 0 0  0.78 0 0  0.79 0 0  0.8 0 0  0.8100000000000001 0 0  0.82 0 0  0.83 0 0  0.84 0 0  0.85 0 0  0.86 0 0  0.87 0 0  0.88 0 0  0.89 0 0  0.9 0 0  0.91 0 0  0.92 0 0  0.93 0 0  0.9399999999999999 0 0  0.95 0 0  0.96 0 0  0.97 0 0  0.98 0 0  0.99 0 0  1 0 0  0 0.01 0  0.01 0.01 0  0.02 0.01 0  0.03 0.01 0  0.04 0.01 0  0.05 0.01 0  0.06 0.01 0  0.07000000000000001 0.01 0  0.08 0.01 0  0.09 0.01 0  0.1 0.01 0  0.11 0.01 0  0.12 0.01 0  0.13 0.01 0  0.14 0.01 0  0.15 0.01 0  0.16 0.01 0  0.17 0.01 0  0.18 0.01 0  0.19 0.01 0  0.2 0.01 0  0.21 0.01 0  0.22 0.01 0  0.23 0.01 0  0.24 0.01 0  0.25 0.01 0  0.26 0.01 0  0.27 0.01 0  0.28 0.01 0  0.29 0.01 0  0.3 0.01 0  0.31 0.01 0  0.32 0.01 0  0.33 0.01 0  0.34 0.01 0  0.35 0.01 0  0.36 0.01 0  0.37 0.01 0  0.38 0.01 0  0.39 0.01 0  0.4 0.01 0  0.41 0.01 0  0.42 0.01 0  0.43 0.01 0  0.44 0.01 0  0.45 0.01 0  0.46 0.01 0  0.47 0.01 0  0.48 0.01 0  0.49 0.01 0  0.5 0.01 0  0.51 0.01 0  0.52 0.01 0  0.53 0.01 0  0.54 0.01 0  0.55 0.01 0  0.5600000000000001 0.01 0  0.57 0.01 0  0.58 0.01 0  0.59 0.01 0  0.6 0.01 0  0.61 0.01 0  0.62 0.01 0  0.63 0.01 0  0.64 0.01 0  0.65 0.01 0  0.66 0.01 0  0.67 0.01 0  0.68 0.01 0  0.6899999999999999 0.01 0  0.7 0.01 0  0.71 0.01 0  0.72 0.01 0  0.73 0.01 0  0.74 0.01 0  0.75 0.01 0  0.76 0.01 0  0.77 0.01 0  0.78 0.01 0  0.79 0.01 0  0.8 0.01 0  0.8100000000000001 0.01 0  0.82 0.01 0  0.83 0.01 0  0.84 0.01 0  0.85 0.01 0  0.86 0.01 0  0.87 0.01 0  0.88 0.01 0  0.89 0.01 0  0.9 0.01 0  0.91 0.01 0  0.92 0.01 0  0.93 0.01 0  0.9399999999999999 0.01 0  0.95 0.01 0  0.96 0.01 0  0.97 0.01 0  0.98 0.01 0  0.99 0.01 0  1 0.01 0  0 0.02 0  0.01 0.02 0  0.02 0.02 0  0.03 0.02 0  0.04 0.02 0  0.05 0.02 0  0.06 0.02 0  0.07000000000000001 0.02 0  0.08 0.02 0  0.09 0.02 0  0.1 0.02 0  0.11 0.02 0  0.12 0.02 0  0.13 0.02 0  0.14 0.02 0  0.15 0.02 0  0.16 0.02 0  0.17 0.02 0  0.18 0.02 0  0.19 0.02 0  0.2 0.02 0  0.21 0.02 0  0.22 0.02 0  0.23 0.02 0  0.24 0.02 0  0.25 0.02 0  0.26 0.02 0  0.27 0.02 0  0.28 0.02 0  0.29 0.02 0  0.3 0.02 0  0.31 0.02 0  0.32 0.02 0  0.33 0.02 0  0.34 0.02 0  0.35 0.02 0  0.36 0.02 0  0.37 0.02 0  0.38 0.02 0  0.39 0.02 0  0.4 0.02 0  0.41 0.02 0  0.42 0.02 0  0.43 0.02 0  0.44 0.02 0  0.45 0.02 0  0.46 0.02 0  0.47 0.02 0  0.48 0.02 0  0.49 0.02 0  0.5 0.02 0  0.51 0.02 0  0.52 0.02 0  0.53 0.02 0  0.54 0.02 0  0.55 0.02 0  0.5600000000000001 0.02 0  0.57 0.02 0  0.58 0.02 0  0.59 0.02 0  0.6 0.02 0  0.61 0.02 0  0.62 0.02 0  0.63 0.02 0  0.64 0.02 0  0.65 0.02 0  0.66 0.02 0  0.67 0.02 0  0.68 0.02 0  0.6899999999999999 0.02 0  0.7 0.02 0  0.71 0.02 0  0.72 0.02 0  0.73 0.02 0  0.74 0.02 0  0.75 0.02 0  0.76 0.02 0  0.77 0.02 0  0.78 0.02 0  0.79 0.02 0  0.8 0.02 0  0.8100000000000001 0.02 0  0.82 0.02 0  0.83 0.02 0  0.84 0.02 0  0.85 0.02 0  0.86 0.02 0  0.87 0.02 0  0.88 0.02 0  0.89 0.02 0  0.9 0.02 0  0.91 0.02 0  0.92 0.02 0  0.93 0.02 0  0.9399999999999999 0.02 0  0.95 0.02 0  0.96 0.02 0  0.97 0.02 0  0.98 0.02 0  0.99 0.02 0  1 0.02 0  0 0.03 0  0.01 0.03 0  0.02 0.03 0  0.03 0.03 0  0.04 0.03 0  0.05 0.03 0  0.06 0.03 0  0.07000000000000001 0.03 0  0.08 0.03 0  0.09 0.03 0  0.1 0.03 0  0.11 0.03 0  0.12 0.03 0  0.13 0.03 0  0.14 0.03 0  0.15 0.03 0  0.16 0.03 0  0.17 0.03 0  0.18 0.03 0  0.19 0.03 0  0.2 0.03 0  0.21 0.03 0  0.22 0.03 0  0.23 0.03 0  0.24 0.03 0  0.25 0.03 0  0.26 0.03 0  0.27 0.03 0  0.28 0.03 0  0.29 0.03 0  0.3 0.03 0  0.31 0.03 0  0.32 0.03 0  0.33 0.03 0  0.34 0.03 0  0.35 0.03 0  0.36 0.03 0  0.37 0.03 0  0.38 0.03 0  0.39 0.03 0  0.4 0.03 0  0.41 0.03 0  0.42 0.03 0  0.43 0.03 0  0.44 0.03 0  0.45 0.03 0  0.46 0.03 0  0.47 0.03 0  0.48 0.03 0  0.49 0.03 0  0.5 0.03 0  0.51 0.03 0  0.52 0.03 0  0.53 0.03 0  0.54 0.03 0  0.55 0.03 0  0.5600000000000001 0.03 0  0.57 0.03 0  0.58 0.03 0  0.59 0.03 0  0.6 0.03 0  0.61 0.03 0  0.62 0.03 0  0.63 0.03 0  0.64 0.03 0  0.65 0.03 0  0.66 0.03 0  0.67 0.03 0  0.68 0.03 0  0.6899999999999999 0.03 0  0.7 0.03 0  0.71 0.03 0  0.72 0.03 0  0.73 0.03 0  0.74 0.03 0  0.75 0.03 0  0.76 0.03 0  0.77 0.03 0  0.78 0.03 0  0.79 0.03 0  0.8 0.03 0  0.8100000000000001 0.03 0  0.82 0.03 0  0.83 0.03 0  0.84 0.03 0  0.85 0.03 0  0.86 0.03 0  0.87 0.03 0  0.88 0.03 0  0.89 0.03 0  0.9 0.03 0  0.91 0.03 0  0.92 0.03 0  0.93 0.03 0  0.9399999999999999 0.03 0  0.95 0.03 0  0.96 0.03 0  0.97 0.03 0  0.98 0.03 0  0.99 0.03 0  1 0.03 0  0 0.04 0  0.01 0.04 0  0.02 0.04 0  0.03 0.04 0  0.04 0.04 0  0.05 0.04 0  0.06 0.04 0  0.07000000000000001 0.04 0  0.08 0.04 0  0.09 0.04 0  0.1 0.04 0  0.11 0.04 0  0.12 0.04 0  0.13 0.04 0  0.14 0.04 0  0.15 0.04 0  0.16 0.04 0  0.17 0.04 0  0.18 0.04 0  0.19 0.04 0  0.2 0.04 0  0.21 0.04 0  0.22 0.04 0  0.23 0.04 0  0.24 0.04 0  0.25 0.04 0  0.26 0.04 0  0.27 0.04 0  0.28 0.04 0  0.29 0.04 0  0.3 0.04 0  0.31 0.04 0  0.32 0.04 0  0.33 0.04 0  0.34 0.04 0  0.35 0.04 0  0.36 0.04 0  0.37 0.04 0  0.38 0.04 0  0.39 0.04 0  0.4 0.04 0  0.41 0.04 0  0.42 0.04 0  0.43 0.04 0  0.44 0.04 0  0.45 0.04 0  0.46 0.04 0  0.47 0.04 0  0.48 0.04 0  0.49 0.04 0  0.5 0.04 0  0.51 0.04 0  0.52 0.04 0  0.53 0.04 0  0.54 0.04 0  0.55 0.04 0  0.5600000000000001 0.04 0  0.57 0.04 0  0.58 0.04 0  0.59 0.04 0  0.6 0.04 0  0.61 0.04 0  0.62 0.04 0  0.63 0.04 0  0.64 0.04 0  0.65 0.04 0  0.66 0.04 0  0.67 0.04 0  0.68 0.04 0  0.6899999999999999 0.04 0  0.7 0.04 0  0.71 0.04 0  0.72 0.04 0  0.73 0.04 0  0.74 0.04 0  0.75 0.04 0  0.76 0.04 0  0.77 0.04 0  0.78 0.04 0  0.79 0.04 0  0.8 0.04 0  0.8100000000000001 0.04 0  0.82 0.04 0  0.83 0.04 0  0.84 0.04 0  0.85 0.04 0  0.86 0.04 0  0.87 0.04 0  0.88 0.04 0  0.89 0.04 0  0.9 0.04 0  0.91 0.04 0  0.92 0.04 0  0.93 0.04 0  0.9399999999999999 0.04 0  0.95 0.04 0  0.96 0.04 0  0.97 0.04 0  0.98 0.04 0  0.99 0.04 0  1 0.04 0  0 0.05 0  0.01 0.05 0  0.02 0.05 0  0.03 0.05 0  0.04 0.05 0  0.05 0.05 0  0.06 0.05 0  0.07000000000000001 0.05 0  0.08 0.05 0  0.09 0.05 0  0.1 0.05 0  0.11 0.05 0  0.12 0.05 0  0.13 0.05 0  0.14 0.05 0  0.15 0.05 0  0.16 0.05 0  0.17 0.05 0  0.18 0.05 0  0.19 0.05 0  0.2 0.05 0  0.21 0.05 0  0.22 0.05 0  0.23 0.05 0  0.24 0.05 0  0.25 0.05 0  0.26 0.05 0  0.27 0.05 0  0.28 0.05 0  0.29 0.05 0  0.3 0.05 0  0.31 0.05 0  0.32 0.05 0  0.33 0.05 0  0.34 0.05 0  0.35 0.05 0  0.36 0.05 0  0.37 0.05 0  0.38 0.05 0  0.39 0.05 0  0.4 0.05 0  0.41 0.05 0  0.42 0.05 0  0.43 0.05 0  0.44 0.05 0  0.45 0.05 0  0.46 0.05 0  0.47 0.05 0  0.48 0.05 0  0.49 0.05 0  0.5 0.05 0  0.51 0.05 0  0.52 0.05 0  0.53 0.05 0  0.54 0.05 0  0.55 0.05 0  0.5600000000000001 0.05 0  0.57 0.05 0  0.58 0.05 0  0.59 0.05 0  0.6 0.05 0  0.61 0.05 0  0.62 0.05 0  0.63 0.05 0  0.64 0.05 0  0.65 0.05 0  0.66 0.05 0  0.67 0.05 0  0.68 0.05 0  0.6899999999999999 0.05 0  0.7 0.05 0  0.71 0.05 0  0.72 0.05 0  0.73 0.05 0  0.74 0.05 0  0.75 0.05 0  0.76 0.05 0  0.77 0.05 0  0.78 0.05 0  0.79 0.05 0  0.8 0.05 0  0.8100000000000001 0.05 0  0.82 0.05 0  0.83 0.05 0  0.84 0.05 0  0.85 0.05 0  0.86 0.05 0  0.87 0.05 0  0.88 0.05 0  0.89 0.05 0  0.9 0.05 0  0.91 0.05 0  0.92 0.05 0  0.93 0.05 0  0.9399999999999999 0.05 0  0.95 0.05 0  0.96 0.05 0  0.97 0.05 0  0.98 0.05 0  0.99 0.05 0  1 0.05 0  0 0.06 0  0.01 0.06 0  0.02 0.06 0  0.03 0.06 0  0.04 0.06 0  0.05 0.06 0  0.06 0.06 0  0.07000000000000001 0.06 0  0.08 0.06 0  0.09 0.06 0  0.1 0.06 0  0.11 0.06 0  0.12 0.06 0  0.13 0.06 0  0.14 0.06 0  0.15 0.06 0  0.16 0.06 0  0.17 0.06 0  0.18 0.06 0  0.19 0.06 0  0.2 0.06 0  0.21 0.06 0  0.22 0.06 0  0.23 0.06 0  0.24 0.06 0  0.25 0.06 0  0.26 0.06 0  0.27 0.06 0  0.28 0.06 0  0.29 0.06 0  0.3 0.06 0  0.31 0.06 0  0.32 0.06 0  0.33 0.06 0  0.34 0.06 0  0.35 0.06 0  0.36 0.06 0  0.37 0.06 0  0.38 0.06 0  0.39 0.06 0  0.4 0.06 0  0.41 0.06 0  0.42 0.06 0  0.43 0.06 0  0.44 0.06 0  0.45 0.06 0  0.46 0.06 0  0.47 0.06 0  0.48 0.06 0  0.49 0.06 0  0.5 0.06 0  0.51 0.06 0  0.52 0.06 0  0.53 0.06 0  0.54 0.06 0  0.55 0.06 0  0.5600000000000001 0.06 0  0.57 0.06 0  0.58 0.06 0  0.59 0.06 0  0.6 0.06 0  0.61 0.06 0  0.62 0.06 0  0.63 0.06 0  0.64 0.06 0  0.65 0.06 0  0.66 0.06 0  0.67 0.06 0  0.68 0.06 0  0.6899999999999999 0.06 0  0.7 0.06 0  0.71 0.06 0  0.72 0.06 0  0.73 0.06 0  0.74 0.06 0  0.75 0.06 0  0.76 0.06 0  0.77 0.06 0  0.78 0.06 0  0.79 0.06 0  0.8 0.06 0  0.8100000000000001 0.06 0  0.82 0.06 0  0.83 0.06 0  0.84 0.06 0  0.85 0.06 0  0.86 0.06 0  0.87 0.06 0  0.88 0.06 0  0.89 0.06 0  0.9 0.06 0  0.91 0.06 0  0.92 0.06 0  0.93 0.06 0  0.9399999999999999 0.06 0  0.95 0.06 0  0.96 0.06 0  0.97 0.06 0  0.98 0.06 0  0.99 0.06 0  1 0.06 0  0 0.07000000000000001 0  0.01 0.07000000000000001 0  0.02 0.07000000000000001 0  0.03 0.07000000000000001 0  0.04 0.07000000000000001 0  0.05 0.07000000000000001 0  0.06 0.07000000000000001 0  0.07000000000000001 0.07000000000000001 0  0.08 0.07000000000000001 0  0.09 0.07000000000000001 0  0.1 0.07000000000000001 0  0.11 0.07000000000000001 0  0.12 0.07000000000000001 0  0.13 0.07000000000000001 0  0.14 0.07000000000000001 0  0.15 0.07000000000000001 0  0.16 0.07000000000000001 0  0.17 0.0700
[...]
<PointData  Scalars="Indicator Function"> 
<DataArray  type="Float64"  Name="Indicator Function"  format="ascii">-2.4074124304840448e-35  -6.1170157633297728e-20  2.9425584934118478e-20  1.8976803017273349e-19  3.3633649473076544e-19  -3.2942103079576422e-20  -2.8391616236149515e-20  6.5513644188432050e-19  8.7103129052752715e-19  0.0000000000000000e+00  4.5562762954700164e-18  2.0976951822868774e-18  -3.6352645058064068e-20  -3.4662699672729388e-20  8.1556710007594904e-18  -8.9986676142068908e-21  -1.7617522618471775e-21  2.0563712029021288e-18  -3.5184010570672394e-20  -2.7083389842945504e-35  6.1775167665183833e-18  -6.0185310762101120e-36  -3.7436909094435273e-20  1.1438238825786336e-17  -5.0037519933117710e-20  -2.5018759966558861e-20  -1.8785935126723061e-20  -4.3999170886924734e-20  4.1266151108220809e-17  -1.7001665177045287e-20  -7.7905914226547511e-20  -2.8173384031950636e-20  -4.6420448911916753e-20  -2.1251218223421391e-20  1.3252325380613406e-17  -8.5908216072779332e-20  -1.1755640773307124e-19  -1.3507000215730890e-19  -1.4078634419836995e-19  -1.3769851280869302e-19  9.0830444652894183e-18  -7.4445779207150369e-20  -2.4388063406685513e-20  -3.1432208933375064e-20  -2.3750556955672396e-20  -2.1495261083800442e-20  2.4198289075145222e-17  -1.4936982534913449e-20  -9.3779476347477635e-21  -4.7855634926639619e-21  -2.3162216401317910e-20  -1.1581108200658967e-20  -8.5784849833110918e-21  -1.1066833856143596e-20  -9.2427892888693470e-21  -3.5659299590952476e-21  2.9708387277522535e-19  2.8211864419734900e-37  -1.4105932209867450e-37  1.4105932209867450e-37  -9.4039548065783001e-38  -5.6013117708306798e-22  -2.1787488465352763e-22  -1.0956027856007178e-21  -1.5328097040105152e-21  -6.2111944759134341e-22  -1.4728785773094949e-22  -9.4039548065783001e-38  4.8311357499488919e-19  7.0529661049337250e-38  -1.0204585770591174e-22  -7.9932999836473413e-24  -5.8774717541114375e-38  -4.6431719117595391e-23  8.8162076311671563e-38  -1.1202784528309640e-22  -3.1962256325798090e-23  -1.2520704597262938e-23  -3.5827780369743746e-22  -6.3660016250896450e-22  -7.5680613705682775e-22  8.1745443127616439e-20  -1.8938666826355314e-22  -1.8785929559614083e-22  -3.8357739224520105e-22  -2.6935625950889984e-22  -6.2266193642667264e-23  -8.5366312705837760e-23  -2.0567114397280907e-22  -9.8872743405120886e-23  -3.3286302316694053e-22  -3.5944153164889022e-22  -2.7899241694675740e-22  1.4296986949561446e-19  -1.2855978551142174e-23  5.8774717541114375e-39  -1.2460591933763881e-23  -1.2261779882599024e-23  -5.7868172555935044e-24  -7.3468396926392969e-40  1.4693679385278594e-38  -3.2051745342951436e-20  5.1088855936980799e-04  2.2471071305206548e-04  1.3797679847773428e-04  3.4622283710641612e-04  2.5977377432770751e-04  4.6354528545206953e-04  2.7968524648024231e-04  6.7983391420282512e-04  7.7660528932542525e-05  1.1089607596461927e-05  4.2316735882795645e-04  7.1593362856271759e-04  2.9690422066835795e-04  4.7597557498485705e-04  2.2222535090268453e-04  5.0992909005350059e-05  7.4252419482945308e-04  1.3056885982604439e-04  6.3381878758191903e-04  1.6700883568930545e-04  3.1839361507233918e-04  1.9821755539021945e-04  5.7529462169530186e-04  2.2986196216828278e-04  9.0139582450133064e-04  6.7683464349212999e-04  8.6499187651496625e-04  3.6012266018637447e-04  6.1254954364815220e-04  7.7675010099615717e-04  1.0150531346244701e-03  6.3764318648071685e-04  5.1741487244795915e-04  1.2412047766469425e-04  7.2497328527265116e-04  1.1850981969374064e-03  1.5251588777779911e-03  1.6706254066493577e-03  1.7008686057578542e-03  1.6301215810198778e-03  1.2953619147730102e-03  6.9341497660000925e-04  4.3933629308254751e-04  3.4656419121784418e-04  7.7444839845791690e-04  6.0983112525823350e-04  5.3816151182620631e-04  3.3787617178680036e-04  8.8141430327970966e-05  8.6209047849277072e-05  4.1725339661620052e-04  7.1983974662269084e-05  1.1854425976583837e-04  1.4009022543987870e-04  9.6458176868924688e-05  6.8477357768530854e-05  4.0023269596442053e-05  1.8965929530066178e-05  1.0461907110118064e-05  7.9198083608189172e-06  4.4813124936949584e-06  7.8497699947121328e-06  1.9444477110533156e-06  1.8764401332383222e-05  1.8230444181054927e-05  5.2487274425023300e-06  2.8938443522046211e-08  4.1506746187658338e-06  2.6986358763433413e-07  3.6765894939123731e-06  3.9786683186793663e-06  1.4399449131125842e-07  1.6728789833293982e-06  1.8995650283092718e-07  5.6416985440344206e-07  2.0181142490882915e-06  4.5110592446919220e-07  2.0346932421532749e-06  5.4368125118309583e-06  8.7495627627219976e-06  9.2586259660023566e-06  6.2940577443369137e-06  2.6465804231425169e-07  3.3841722145794535e-06  5.2178298958432094e-06  2.2433760518951614e-06  3.0756455527360360e-06  6.1594486115031809e-06  6.2531764367563574e-07  3.4437884287249343e-06  4.2744329340377331e-06  4.3379065249628223e-06  2.9576637885765122e-06  1.5046073876330220e-06  1.2397933249540991e-06  2.7282837488643445e-07  2.2447006875885926e-07  1.0865355486125837e-07  4.9919254713179004e-08  -1.4678124081777764e-23  -1.3670809572731893e-20  5.7739291353236025e-04  1.4883652225317585e-04  1.0110776634548266e-04  1.1690711728113974e-06  3.6874960373217669e-04  5.1355954392937205e-04  6.2859565907085076e-04  7.4881264662235794e-04  1.3352040456613381e-05  2.8715704224662830e-04  4.3761990761761983e-04  5.7616212954983263e-04  9.8405580376980956e-04  8.2539345189015160e-04  5.6109729596029326e-04  1.1976037555569412e-03  2.1314758552951139e-06  5.2270432069806633e-04  9.0217883506146562e-04  4.2556287004127756e-04  1.5354458709735520e-03  9.9923659443590883e-04  1.6618695994416229e-03  9.3315657365953782e-04  1.1742150111394701e-03  2.1089129759878838e-05  3.5095713529571121e-04  1.6745503473248563e-03  1.1628990265010579e-03  1.1718595912861946e-04  1.6559547549827476e-03  1.6611382510212450e-04  1.1616993036965809e-03  6.0946134867737294e-04  8.2707673928826585e-04  1.4820747683528916e-03  1.9718475371444089e-03  2.3032666644742846e-03  2.4136430522846701e-03  2.3507569107380734e-03  2.1400851036716150e-03  1.5768778492712442e-03  2.9962781666329809e-04  1.0406307969258741e-03  9.0741003378604860e-04  8.0042345260491609e-04  1.1634446436149728e-03  9.5525778753558768e-04  2.5645811492822697e-04  3.9267747525174586e-04  5.7086712314781917e-04  3.1286116723086132e-04  3.4219195131239197e-04  1.5852729447076217e-04  1.4477789504963650e-04  8.5635482234344920e-05  7.6858397028775689e-05  4.0745386735975096e-05  2.0798602299193792e-05  1.0341915657821063e-05  7.6509914992832240e-06  1.2133298000688144e-05  3.5961660246974647e-06  2.0348436031939598e-05  2.4906042804082397e-05  1.7092301697305280e-05  8.4034007838414127e-06  1.3842516771317176e-06  2.4097557942578971e-06  6.2340254112666044e-06  4.1008992279761223e-06  2.1783626058985490e-06  3.7523135383402936e-06  4.5306589264672343e-06  5.4428558399617568e-07  3.8896659715221091e-06  1.3676407210918462e-06  2.7238286218148097e-06  9.5778782174253108e-06  1.0203707702298524e-05  1.1960436889266852e-05  1.2831059746608390e-05  4.0939402469344311e-06  4.8402632896684218e-06  5.4337664113900220e-06  3.1516025214497378e-06  1.1033034359282621e-06  6.1211574828521123e-06  1.4294537613099923e-05  6.9605541776254288e-06  6.7786326073089536e-06  5.6877481641579221e-06  4.0349140182074036e-06  2.7614606028601139e-06  1.9292056884658063e-06  7.0497705557944954e-07  1.1548056859447921e-06  4.4773771239348230e-07  2.6986938188185632e-07  2.9039942262491187e-23  -2.2824681831333287e-20  2.4627141159043426e-04  4.5087024330762998e-04  6.1753010971433780e-05  4.8188247939056277e-04  6.9729548686879497e-04  6.0439572396128575e-04  8.2045074132373788e-04  1.9980033241969643e-04  1.3274031850182379e-03  4.8637238775982788e-04  3.6561315776865673e-06  1.0349406526948596e-03  1.1636098338446671e-03  1.6771336152340301e-04  1.0694684129042601e-03  2.7317247166511503e-04  4.1464267672071099e-04  1.4204604212270291e-03  7.7419781183665803e-04  1.7153108968312378e-03  4.9968724994170250e-04  1.1392732205815072e-03  3.7952071223765411e-04  1.6868385756933671e-03  1.4365153055043570e-03  2.3705180019761084e-03  1.9769385189535361e-03  1.8576375293211796e-03  8.1655420261777709e-04  2.0632652050365146e-03  1.7803744104537642e-03  2.0318010638235040e-03  2.0842468371611886e-03  9.7201586720688802e-04  2.8292244007904247e-05  1.7598535936012183e-03  2.0746379163859179e-03  2.5112388990265275e-03  2.7320648744429735e-03  2.7844986996045777e-03  2.6311168456470816e-03  1.9737594910130335e-03  1.0417212619726712e-03  1.2435935676939755e-03  6.6069566064503454e-04  2.2235365755709658e-03  1.4208081770958419e-03  9.0897237182697901e-04  6.2853612696409111e-04  3.9814722783732519e-04  3.8953250521777554e-04  1.0490535489281112e-03  3.4396454208112623e-04  3.2824547493292021e-04  1.4971599019324839e-04  7.0562797384617475e-05  7.7416594945846256e-05  6.6693802460983208e-05  3.3081978811284084e-05  2.0622782558142937e-05  1.2711506744256629e-05  6.0509926256546159e-06  1.6431006212954937e-05  7.6679129958591088e-06  3.5375558735289961e-05  2.5859535327637885e-05  8.7254372121071084e-06  3.6007231307211092e-06  4.1591904054704545e-06  3.0292806630084189e-06  1.6152361472339180e-07  3.7134612990744559e-06  5.1083872406100327e-06  1.9248657759234027e-06  3.5715213226931881e-06  5.9438200785768675e-07  5.4231948233641822e-06  2.0977606924857372e-06  7.7044563347033938e-06  1.3900180158225853e-05  1.3939244828880674e-05  1.4374623608469896e-05  9.7583570029150557e-06  2.0626784043215745e-06  5.5702525297662784e-06  4.8908899618487325e-06  5.8114818482913950e-07  6.4327736388142290e-06  6.4106191733980386e-06  7.9381055388702127e-06  1.1899919373234063e-05  7.9192003928402068e-06  6.2166435205347330e-06  5.3100926699540028e-06  2.3731147819042872e-06  1.9900392401916243e-06  9.4677927037942095e-07  3.3667851919477660e-07  1.5059915509112004e-07  -2.0899831183907231e-23  -1.8864716200343226e-20  4.1117291436177153e-04  5.5976630924641380e-04  4.1867171198438812e-05  1.4530704394789538e-04  4.8386297537088047e-04  7.1403586818430723e-04  1.1279861364022735e-03  1.0181074784080860e-03  6.3803870883500638e-04  1.5995799095627690e-04  1.7717035659377633e-04  3.5592006359869578e-04  9.0271016377382093e-04  1.5114903001372836e-03  5.6164522641457366e-04  7.9172131989809576e-04  1.6721841920476167e-03  4.0618053244577965e-04  1.2152485286416798e-03  5.6986271187676031e-04  3.2246423142972234e-04  1.9682432914170630e-03  1.5549668005538707e-03  2.3325981081452432e-03  1.1691584612805023e-03  1.1833344124872124e-03  6.0209315290910763e-04  1.4738935500588112e-03  3.1519004521018486e-03  1.8197585765415364e-03  8.0428438035810932e-04  3.0576586793886100e-03  4.5606772110008144e-04  2.5932147328419802e-03  7.3699433504025719e-04  1.4067762066023173e-03  2.2922640749142649e-03  2.5777431482664382e-03  2.9206397899487276e-03  3.0339681997422112e-03  2.9574515768490454e-03  2.7004742217150105e-03  1.8360489556718354e-03  6.9315125535177827e-04  1.8345907681125288e-03  1.4887653665206840e-03  1.8654911046330502e-03  2.6531059770536348e-03  2.0846050008247932e-03  9.0551237253848110e-04  3.2998223933189364e-04  7.5309553569109615e-04  6.5469632990479193e-04  7.7017496609865636e-04  2.2037565858047754e-04  1.0146672011871388e-04  2.1408312644999613e-05  7.6401218850300094e-05  4.9397680135349050e-05  2.5753220849651533e-05  1.6804478704557501e-05  1.0653114893253636e-05  1.3337501743983190e-05  1.1631022056128648e-05  2.8419284468840489e-05  3.8442273038102180e-05  1.6503129279211533e-05  6.7245656184064635e-06  1.8677272791652501e-06  2.7266076458761733e-07  2.3401087985174171e-06  9.2247161386546873e-07  1.6416930171283433e-06  2.3415491322131743e-06  1.0160872807152324e-06  9.5527536780382907e-07  6.0988664443474563e-06  4.9426342898312083e-07  6.5313764258855174e-07  1.3442353879479864e-05  1.6318901907310654e-05  1.3503676291692496e-05  1.3904013554604138e-05  3.5174852242069780e-06  7.5840625386487859e-06  5.6027057068434872e-06  9.7693232676537312e-07  3.1694808377479247e-06  9.0560602435921017e-06  1.6254203861034655e-05  3.1808174671342768e-06  1.3724291874384223e-05  7.8079806856983437e-06  4.4904387509541017e-06  4.4890630058447801e-06  2.9770917761039751e-06  1.3861603678879058e-06  2.0305596393998554e-06  4.9583184650300373e-07  -8.5364072210665229e-23  -2.0426757347223751e-20  3.3983651540126316e-04  5.7092545709012661e-04  9.0901610073432465e-04  1.2468796449057612e-04  5.0777854922292448e-04  6.3562504057360222e-04  6.0267072156333288e-04  1.2596528268269780e-03  3.9903667768071517e-04  1.6581930551971297e-03  9.1725202246702316e-04  1.0376089227084671e-04  1.3378569508746558e-03  1.3041809098245827e-03  3.1732500149136663e-04  1.2867789015669911e-03  9.8456677591361947e-04  1.1086980216022161e-03  1.3158689749290823e-03  8.5036930509608622e-04  2.2132120771650924e-03  1.1472154764035319e-03  2.0225118751386380e-03  1.2097860349664618e-03  2.7491858838785267e-03  2.4651192727426384e-03  3.3899499369816084e-03  2.5809531547454543e-03  1.9244258635646885e-03  1.7205162088332190e-03  3.3841303510646070e-03  2.1715689752035247e-03  3.3322485818166928e-03  2.8176048420693110e-03  1.7775810576595133e-03  1.1947445052026773e-04  2.5769694642630526e-03  2.7109005051156403e-03  3.0368632892356731e-03  3.2523356176131909e-03  3.2994836379714649e-03  3.1041572866886261e-03  2.3220824776482990e-03  1.1835414576113834e-03  2.0364808529429296e-03  1.1934130282328320e-03  3.4407550077376857e-03  1.4379194021064533e-03  2.6007915100021009e-04  1.0818214785850233e-04  2.4693348546094923e-04  6.8796416233225116e-04  1.5326036908155957e-03  3.5603405296774079e-04  6.5948907626532367e-04  1.4424075582856921e-04  1.4051617002609101e-05  3.3586256297885198e-05  7.1754372707068636e-05  3.5615111136653981e-05  2.0618525931488011e-05  1.4919342508891457e-05  9.1550649970222107e-06  1.7981433898349202e-05  5.7690258022375203e-06  4.0955483587193764e-05  3.5769425683314874e-05  8.6395708044388306e-06  5.3242632267247762e-07  4.5050402566207070e-06  1.9372484987573972e-06  2.2628368330617481e-06  1.5111671705292024e-06  1.8148539079641875e-06  1.9194547202339256e-06  4.4741074385392772e-06  3.0876622527585853e-06  6.6826307532078164e-06  1.6538181171945333e-06  5.4836454957799021e-06  1.6641644256819133e-05  1.6661202419072611e-05  1.4685464180752820e-05  9.5697890472617544e-06  5.9195695345838224e-06  8.9790057684487221e-06  4.2219753297755359e-06  2.1820350686048601e-06  1.0105088991342936e-05  5.4911516792735330e-06  1.0288100261425900e-05  1.0865417956083842e-05  1.2048563532559239e-05  6.8362613227895348e-06  4.4013803728269501e-06  3.4038060099295365e-06  2.3113109619497180e-06  7.3044227946705934e-07  8.0829677208127704e-07  3.5264830524668625e-38  -9.9504231665583472e-21  3.6797574710937788e-04  6.1945800005032620e-04  5.0980760600501367e-04  6.0963519765365741e-04  2.2843322880891729e-04  5.7289705532780554e-04  1.0548510743706439e-03  1.4617101397127285e-03  1.3168959133590221e-03  5.6922445977873170e-04  5.1365927724936851e-04  2.2228194012385342e-04  3.1898579181645711e-04  1.3722940084399510e-03  1.8302159676317445e-03  3.1227011888086009e-04  6.1754704774642441e-04  1.3567804444335721e-03  1.9137118648499904e-04  1.6264416913466693e-03  1.1184778374327484e-04  2.1260761051927169e-04  1.6081729016106086e-03  1.3349965285860542e-03  2.1964463268426128e-03  7.0402802581815685e-04  5.9884592019097559e-04  1.4581208056737272e-03  2.4131584589990344e-03  4.1817008543061120e-03  1.8863149616826624e-03  1.8892929138403251e-03  4.1614320155847354e-03  1.0417480052928498e-03  3.8700650072003183e-03  1.0418706106862248e-03  1.7593915938385908e-03  3.1725908801831897e-03  3.1757231650291042e-03  3.4565212941184502e-03  3.5618555409072761e-03  3.4809925770360691e-03  3.1620787855123054e-03  2.0051940395021998e-03  8.9251338764879018e-04  2.7603191323596907e-03  1.7357282907758910e-03  3.0403975414761172e-03  3.4662124999225072e-03  2.3859873465271876e-03  1.1375741199984989e-03  1.5728590013822189e-04  6.0893801508558269e-04  1.0889115548052787e-03  1.0224292197899992e-03  3.8376803579385978e-04  5.5442591254684307e-05  4.6176695219489697e-05  6.0332777848538169e-05  5.9332163349524676e-05  3.0756123979514475e-05  1.8974117939861919e-05  1.0276385615699860e-05  1.6331067712139295e-05  1.5719379628533145e-05  3.5592127075185146e-05  4.2025560502311514e-05  1.9908775786154724e-05  7.9848840814476795e-06  7.2654901789546945e-07  9.6630382940903685e-07  3.9754625893727868e-06  1.7062041953261479e-06  3.3296378710979226e-06  2.5152154180314608e-06  1.3468820105077176e-06  3.1864978462604926e-06  1.8322527711572683e-06  2.5646282223224405e-06  1.7394688394237096e-06  1.2167056035822757e-05  2.0875513645060474e-05  1.5517937650726964e-05  1.3144213753870147e-05  2.2632023353908747e-06  1.1712509413694547e-05  7.8687775917159568e-06  1.2595593042550490e-06  5.7220568940457317e-06  8.6613357302018829e-06  1.3765357084998617e-05  1.3829778063824571e-06  1.4659999052752908e-05  1.0128659982427626e-05  4.6765882168369362e-06  3.7939348407673585e-06  3.2303322687850669e-06  2.0450786373003638e-06  9.6964752607164758e-07  -5.3826250460778351e-23  -1.9849435831167506e-20  1.7925088826036375e-04  4.8398697611052753e-04  8.0783804635042368e-04  8.4695176203328205e-04  6.0674405487392899e-05  6.4176006732568345e-04  3.9425255611545609e-04  3.1369364183366877e-04  1.6669529715481863e-03  6.3204273889394590e-04  1.6116328323266113e-03  8.9834981261130735e-04  1.0332402339957863e-05  1.3826699277546140e-03  1.6132112318006933e-03  6.3092735712444253e-04  1.0861537943999558e-03  1.1222418536449067e-03  1.3597435356737949e-03  1.1473429910796257e-03  4.1502097857942398e-04  1.9789092911469052e-03  9.4666716578547779e-04  2.2260079515798452e-03  1.4014095416548442e-03  3.0961239465222322e-03  2.6190222907914945e-03  3.5141295464695284e-03  2.4120489005488980e-03  1.5030643014097590e-03  2.6840130240626645e-03  4.1099087003904754e-03  2.0951315031739431e-03  4.7154911675225857e-03  3.1116581603938005e-03  2.9833663830429098e-03  1.7202956590277012e-04  3.2041303386464584e-03  3.5580584596685101e-03  3.6731176641976735e-03  3.8423375895165622e-03  3.8761352759743880e-03  3.6452886397420679e-03  2.7128617165750484e-03  1.2141164195651037e-03  2.6260193585632080e-03  1.8493437126501885e-03  4.2397675559540651e-03  1.0394722794963209e-03  5.5656132836693858e-04  5.6230951187433056e-04  2.3891051461720031e-04  5.8969405575616052e-04  1.6891485963559498e-03  1.4066471184272420e-04  1.0127457527124560e-03  1.8550873918421289e-04  4.7995198720723569e-05  3.5207526324216181e-05  6.9041237341040544e-05  4.2254888564380711e-05  2.4792055432756027e-05  2.0368165972757851e-05  9.4943140927248101e-06  2.2254606975802984e-05  2.6638178971066459e-06  5.2308086528751349e-05  3.7663365740139585e-05  8.7995609241072722e-06  2.1379700494279196e-06  8.8814526944135532e-07  2.6604082719974995e-06  9.9145287768682620e-07  3.8703516075714420e-06  1.5920254420345002e-06  3.5997581312297391e-07  5.4338256845614644e-07  3.4317728292411824e-06  1.1337255098287588e-06  3.7004947567451839e-07  3.8078490890319432e-06  1.6961105511083166e-05  2.0774042924635361e-05  1.5123458716441394e-05  9.1211239369960635e-06  7.5708303658440331e-06  1.3335221664905593e-05  4.8668495880170334e-06  5.0809584637066541e-06  1.3049131996701092e-05  7.5774354196785923e-06  6.1775213869865342e-06  6.9819623993479288e-06  1.3708155571920697e-05  8.4915430277961460e-06  4.0141022930835208e-06  2.5258921216623255e-06  2.1346736445351014e-06  8.4203456002764933e-07  -1.0401448127297873e-23  -1.0891060813726447e-20  3.5757564725104329e-04  5.9003662193943751e-04  6.6416487424084169e-04  6.1005398773181512e-04  9.4404581922492750e-04  1.1018808763217357e-04  4.6499920126161838e-04  9.6655244483475776e-04  1.4939313286723972e-03  1.6821707570831488e-03  7.2753990118755571e-04  5.4280302483176719e-04  4.9787966640951428e-04  3.6958717375293310e-04  1.6519653634404410e-03  2.0404868618272001e-03 