<?xml version="1.0"?>
<VTKFile type="UnstructuredGrid"  version="0.1"  >
<UnstructuredGrid>
<Piece  NumberOfPoints="10201" NumberOfCells="20000">
<Points>
<DataArray  type="Float64"  NumberOfComponents="3"  format="ascii">0 0 0  0.01 0 0  0.02 0 0  0.03 0 0  0.04 0 0  0.05 0 0  0.06 0 0  0.07000000000000001 0 0  0.08 0 0  0.09 0 0  0.1 0 0  0.11 0 0  0.12 0 0  0.13 0 0  0.14 0 0  0.15 0 0  0.16 0 0  0.17 0 0  0.18 0 0  0.19 0 0  0.2 0 0  0.21 0 0  0.22 0 0  0.23 0 0  0.24 0 0  0.25 0 0  0.26 0 0  0.27 0 0  0.28 0 0  0.29 0 0  0.3 0 0  0.31 0 0  0.32 0 0  0.33 0 0  0.34 0 0  0.35 0 0  0.36 0 0  0.37 0 0  0.38 0 0  0.39 0 0  0.4 0 0  0.41 0 0  0.42 0 0  0.43 0 0  0.44 0 0  0.45 0 0  0.46 0 0  0.47 0 0  0.48 0 0  0.49 0 0  0.5 0 0  0.51 0 0  0.52 0 0  0.53 0 0  0.54 0 0  0.55 0 0  0.5600000000000001 0 0  0.57 0 0  0.58 0 0  0.59 0 0  0.6 0 0  0.61 0 0  0.62 0 0  0.63 0 0  0.64 0 0  0.65 0 0  0.66 0 0  0.67 0 0  0.68 0 0  0.6899999999999999 0 0  0.7 0 0  0.71 0 0  0.72 0 0  0.73 0 0  0.74 0 0  0.75 0 0  0.76 0 0  0.77 0 0  0.78 0 0  0.79 0 0  0.8 0 0  0.8100000000000001 0 0  0.82 0 0  0.83 0 0  0.84 0 0  0.85 0 0  0.86 0 0  0.87 0 0  0.88 0 0  0.89 0 0  0.9 0 0  0.91 0 0  0.92 0 0  0.93 0 0  0.9399999999999999 0 0  0.95 0 0  0.96 0 0  0.97 0 0  0.98 0 0  0.99 0 0  1 0 0  0 0.01 0  0.01 0.01 0  0.02 0.01 0  0.03 0.01 0  0.04 0.01 0  0.05 0.01 0  0.06 0.01 0  0.07000000000000001 0.01 0  0.08 0.01 0  0.09 0.01 0  0.1 0.01 0  0.11 0.01 0  0.12 0.01 0  0.13 0.01 0  0.14 0.01 0  0.15 0.01 0  0.16 0.01 0  0.17 0.01 0  0.18 0.01 0  0.19 0.01 0  0.2 0.01 0  0.21 0.01 0  0.22 0.01 0  0.23 0.01 0  0.24 0.01 0  0.25 0.01 0  0.26 0.01 0  0.27 0.01 0  0.28 0.01 0  0.29 0.01 0  0.3 0.01 0  0.31 0.01 0  0.32 0.01 0  0.33 0.01 0  0.34 0.01 0  0.35 0.01 0  0.36 0.01 0  0.37 0.01 0  0.38 0.01 0  0.39 0.01 0  0.4 0.01 0  0.41 0.01 0  0.42 0.01 0  0.43 0.01 0  0.44 0.01 0  0.45 0.01 0  0.46 0.01 0  0.47 0.01 0  0.48 0.01 0  0.49 0.01 0  0.5 0.01 0  0.51 0.01 0  0.52 0.01 0  0.53 0.01 0  0.54 0.01 0  0.55 0.01 0  0.5600000000000001 0.01 0  0.57 0.01 0  0.58 0.01 0  0.59 0.01 0  0.6 0.01 0  0.61 0.01 0  0.62 0.01 0  0.63 0.01 0  0.64 0.01 0  0.65 0.01 0  0.66 0.01 0  0.67 0.01 0  0.68 0.01 0  0.6899999999999999 0.01 0  0.7 0.01 0  0.71 0.01 0  0.72 0.01 0  0.73 0.01 0  0.74 0.01 0  0.75 0.01 0  0.76 0.01 0  0.77 0.01 0  0.78 0.01 0  0.79 0.01 0  0.8 0.01 0  0.8100000000000001 0.01 0  0.82 0.01 0  0.83 0.01 0  0.84 0.01 0  0.85 0.01 0  0.86 0.01 0  0.87 0.01 0  0.88 0.01 0  0.89 0.01 0  0.9 0.01 0  0.91 0.01 0  0.92 0.01 0  0.93 0.01 0  0.9399999999999999 0.01 0  0.95 0.01 0  0.96 0.01 0  0.97 0.01 0  0.98 0.01 0  0.99 0.01 0  1 0.01 0  0 0.02 0  0.01 0.02 0  0.02 0.02 0  0.03 0.02 0  0.04 0.02 0  0.05 0.02 0  0.06 0.02 0  0.07000000000000001 0.02 0  0.08 0.02 0  0.09 0.02 0  0.1 0.02 0  0.11 0.02 0  0.12 0.02 0  0.13 0.02 0  0.14 0.02 0  0.15 0.02 0  0.16 0.02 0  0.17 0.02 0  0.18 0.02 0  0.19 0.02 0  0.2 0.02 0  0.21 0.02 0  0.22 0.02 0  0.23 0.02 0  0.24 0.02 0  0.25 0.02 0  0.26 0.02 0  0.27 0.02 0  0.28 0.02 0  0.29 0.02 0  0.3 0.02 0  0.31 0.02 0  0.32 0.02 0  0.33 0.02 0  0.34 0.02 0  0.35 0.02 0  0.36 0.02 0  0.37 0.02 0  0.38 0.02 0  0.39 0.02 0  0.4 0.02 0  0.41 0.02 0  0.42 0.02 0  0.43 0.02 0  0.44 0.02 0  0.45 0.02 0  0.46 0.02 0  0.47 0.02 0  0.48 0.02 0  0.49 0.02 0  0.5 0.02 0  0.51 0.02 0  0.52 0.02 0  0.53 0.02 0  0.54 0.02 0  0.55 0.02 0  0.5600000000000001 0.02 0  0.57 0.02 0  0.58 0.02 0  0.59 0.02 0  0.6 0.02 0  0.61 0.02 0  0.62 0.02 0  0.63 0.02 0  0.64 0.02 0  0.65 0.02 0  0.66 0.02 0  0.67 0.02 0  0.68 0.02 0  0.6899999999999999 0.02 0  0.7 0.02 0  0.71 0.02 0  0.72 0.02 0  0.73 0.02 0  0.74 0.02 0  0.75 0.02 0  0.76 0.02 0  0.77 0.02 0  0.78 0.02 0  0.79 0.02 0  0.8 0.02 0  0.8100000000000001 0.02 0  0.82 0.02 0  0.83 0.02 0  0.84 0.02 0  0.85 0.02 0  0.86 0.02 0  0.87 0.02 0  0.88 0.02 0  0.89 0.02 0  0.9 0.02 0  0.91 0.02 0  0.92 0.02 0  0.93 0.02 0  0.9399999999999999 0.02 0  0.95 0.02 0  0.96 0.02 0  0.97 0.02 0  0.98 0.02 0  0.99 0.02 0  1 0.02 0  0 0.03 0  0.01 0.03 0  0.02 0.03 0  0.03 0.03 0  0.04 0.03 0  0.05 0.03 0  0.06 0.03 0  0.07000000000000001 0.03 0  0.08 0.03 0  0.09 0.03 0  0.1 0.03 0  0.11 0.03 0  0.12 0.03 0  0.13 0.03 0  0.14 0.03 0  0.15 0.03 0  0.16 0.03 0  0.17 0.03 0  0.18 0.03 0  0.19 0.03 0  0.2 0.03 0  0.21 0.03 0  0.22 0.03 0  0.23 0.03 0  0.24 0.03 0  0.25 0.03 0  0.26 0.03 0  0.27 0.03 0  0.28 0.03 0  0.29 0.03 0  0.3 0.03 0  0.31 0.03 0  0.32 0.03 0  0.33 0.03 0  0.34 0.03 0  0.35 0.03 0  0.36 0.03 0  0.37 0.03 0  0.38 0.03 0  0.39 0.03 0  0.4 0.03 0  0.41 0.03 0  0.42 0.03 0  0.43 0.03 0  0.44 0.03 0  0.45 0.03 0  0.46 0.03 0  0.47 0.03 0  0.48 0.03 0  0.49 0.03 0  0.5 0.03 0  0.51 0.03 0  0.52 0.03 0  0.53 0.03 0  0.54 0.03 0  0.55 0.03 0  0.5600000000000001 0.03 0  0.57 0.03 0  0.58 0.03 0  0.59 0.03 0  0.6 0.03 0  0.61 0.03 0  0.62 0.03 0  0.63 0.03 0  0.64 0.03 0  0.65 0.03 0  0.66 0.03 0  0.67 0.03 0  0.68 0.03 0  0.6899999999999999 0.03 0  0.7 0.03 0  0.71 0.03 0  0.72 0.03 0  0.73 0.03 0  0.74 0.03 0  0.75 0.03 0  0.76 0.03 0  0.77 0.03 0  0.78 0.03 0  0.79 0.03 0  0.8 0.03 0  0.8100000000000001 0.03 0  0.82 0.03 0  0.83 0.03 0  0.84 0.03 0  0.85 0.03 0  0.86 0.03 0  0.87 0.03 0  0.88 0.03 0  0.89 0.03 0  0.9 0.03 0  0.91 0.03 0  0.92 0.03 0  0.93 0.03 0  0.9399999999999999 0.03 0  0.95 0.03 0  0.96 0.03 0  0.97 0.03 0  0.98 0.03 0  0.99 0.03 0  1 0.03 0  0 0.04 0  0.01 0.04 0  0.02 0.04 0  0.03 0.04 0  0.04 0.04 0  0.05 0.04 0  0.06 0.04 0  0.07000000000000001 0.04 0  0.08 0.04 0  0.09 0.04 0  0.1 0.04 0  0.11 0.04 0  0.12 0.04 0  0.13 0.04 0  0.14 0.04 0  0.15 0.04 0  0.16 0.04 0  0.17 0.04 0  0.18 0.04 0  0.19 0.04 0  0.2 0.04 0  0.21 0.04 0  0.22 0.04 0  0.23 0.04 0  0.24 0.04 0  0.25 0.04 0  0.26 0.04 0  0.27 0.04 0  0.28 0.04 0  0.29 0.04 0  0.3 0.04 0  0.31 0.04 0  0.32 0.04 0  0.33 0.04 0  0.34 0.04 0  0.35 0.04 0  0.36 0.04 0  0.37 0.04 0  0.38 0.04 0  0.39 0.04 0  0.4 0.04 0  0.41 0.04 0  0.42 0.04 0  0.43 0.04 0  0.44 0.04 0  0.45 0.04 0  0.46 0.04 0  0.47 0.04 0  0.48 0.04 0  0.49 0.04 0  0.5 0.04 0  0.51 0.04 0  0.52 0.04 0  0.53 0.04 0  0.54 0.04 0  0.55 0.04 0  0.5600000000000001 0.04 0  0.57 0.04 0  0.58 0.04 0  0.59 0.04 0  0.6 0.04 0  0.61 0.04 0  0.62 0.04 0  0.63 0.04 0  0.64 0.04 0  0.65 0.04 0  0.66 0.04 0  0.67 0.04 0  0.68 0.04 0  0.6899999999999999 0.04 0  0.7 0.04 0  0.71 0.04 0  0.72 0.04 0  0.73 0.04 0  0.74 0.04 0  0.75 0.04 0  0.76 0.04 0  0.77 0.04 0  0.78 0.04 0  0.79 0.04 0  0.8 0.04 0  0.8100000000000001 0.04 0  0.82 0.04 0  0.83 0.04 0  0.84 0.04 0  0.85 0.04 0  0.86 0.04 0  0.87 0.04 0  0.88 0.04 0  0.89 0.04 0  0.9 0.04 0  0.91 0.04 0  0.92 0.04 0  0.93 0.04 0  0.9399999999999999 0.04 0  0.95 0.04 0  0.96 0.04 0  0.97 0.04 0  0.98 0.04 0  0.99 0.04 0  1 0.04 0  0 0.05 0  0.01 0.05 0  0.02 0.05 0  0.03 0.05 0  0.04 0.05 0  0.05 0.05 0  0.06 0.05 0  0.07000000000000001 0.05 0  0.08 0.05 0  0.09 0.05 0  0.1 0.05 0  0.11 0.05 0  0.12 0.05 0  0.13 0.05 0  0.14 0.05 0  0.15 0.05 0  0.16 0.05 0  0.17 0.05 0  0.18 0.05 0  0.19 0.05 0  0.2 0.05 0  0.21 0.05 0  0.22 0.05 0  0.23 0.05 0  0.24 0.05 0  0.25 0.05 0  0.26 0.05 0  0.27 0.05 0  0.28 0.05 0  0.29 0.05 0  0.3 0.05 0  0.31 0.05 0  0.32 0.05 0  0.33 0.05 0  0.34 0.05 0  0.35 0.05 0  0.36 0.05 0  0.37 0.05 0  0.38 0.05 0  0.39 0.05 0  0.4 0.05 0  0.41 0.05 0  0.42 0.05 0  0.43 0.05 0  0.44 0.05 0  0.45 0.05 0  0.46 0.05 0  0.47 0.05 0  0.48 0.05 0  0.49 0.05 0  0.5 0.05 0  0.51 0.05 0  0.52 0.05 0  0.53 0.05 0  0.54 0.05 0  0.55 0.05 0  0.5600000000000001 0.05 0  0.57 0.05 0  0.58 0.05 0  0.59 0.05 0  0.6 0.05 0  0.61 0.05 0  0.62 0.05 0  0.63 0.05 0  0.64 0.05 0  0.65 0.05 0  0.66 0.05 0  0.67 0.05 0  0.68 0.05 0  0.6899999999999999 0.05 0  0.7 0.05 0  0.71 0.05 0  0.72 0.05 0  0.73 0.05 0  0.74 0.05 0  0.75 0.05 0  0.76 0.05 0  0.77 0.05 0  0.78 0.05 0  0.79 0.05 0  0.8 0.05 0  0.8100000000000001 0.05 0  0.82 0.05 0  0.83 0.05 0  0.84 0.05 0  0.85 0.05 0  0.86 0.05 0  0.87 0.05 0  0.88 0.05 0  0.89 0.05 0  0.9 0.05 0  0.91 0.05 0  0.92 0.05 0  0.93 0.05 0  0.9399999999999999 0.05 0  0.95 0.05 0  0.96 0.05 0  0.97 0.05 0  0.98 0.05 0  0.99 0.05 0  1 0.05 0  0 0.06 0  0.01 0.06 0  0.02 0.06 0  0.03 0.06 0  0.04 0.06 0  0.05 0.06 0  0.06 0.06 0  0.07000000000000001 0.06 0  0.08 0.06 0  0.09 0.06 0  0.1 0.06 0  0.11 0.06 0  0.12 0.06 0  0.13 0.06 0  0.14 0.06 0  0.15 0.06 0  0.16 0.06 0  0.17 0.06 0  0.18 0.06 0  0.19 0.06 0  0.2 0.06 0  0.21 0.06 0  0.22 0.06 0  0.23 0.06 0  0.24 0.06 0  0.25 0.06 0  0.26 0.06 0  0.27 0.06 0  0.28 0.06 0  0.29 0.06 0  0.3 0.06 0  0.31 0.06 0  0.32 0.06 0  0.33 0.06 0  0.34 0.06 0  0.35 0.06 0  0.36 0.06 0  0.37 0.06 0  0.38 0.06 0  0.39 0.06 0  0.4 0.06 0  0.41 0.06 0  0.42 0.06 0  0.43 0.06 0  0.44 0.06 0  0.45 0.06 0  0.46 0.06 0  0.47 0.06 0  0.48 0.06 0  0.49 0.06 0  0.5 0.06 0  0.51 0.06 0  0.52 0.06 0  0.53 0.06 0  0.54 0.06 0  0.55 0.06 0  0.5600000000000001 0.06 0  0.57 0.06 0  0.58 0.06 0  0.59 0.06 0  0.6 0.06 0  0.61 0.06 0  0.62 0.06 0  0.63 0.06 0  0.64 0.06 0  0.65 0.06 0  0.66 0.06 0  0.67 0.06 0  0.68 0.06 0  0.6899999999999999 0.06 0  0.7 0.06 0  0.71 0.06 0  0.72 0.06 0  0.73 0.06 0  0.74 0.06 0  0.75 0.06 0  0.76 0.06 0  0.77 0.06 0  0.78 0.06 0  0.79 0.06 0  0.8 0.06 0  0.8100000000000001 0.06 0  0.82 0.06 0  0.83 0.06 0  0.84 0.06 0  0.85 0.06 0  0.86 0.06 0  0.87 0.06 0  0.88 0.06 0  0.89 0.06 0  0.9 0.06 0  0.91 0.06 0  0.92 0.06 0  0.93 0.06 0  0.9399999999999999 0.06 0  0.95 0.06 0  0.96 0.06 0  0.97 0.06 0  0.98 0.06 0  0.99 0.06 0  1 0.06 0  0 0.07000000000000001 0  0.01 0.07000000000000001 0  0.02 0.07000000000000001 0  0.03 0.07000000000000001 0  0.04 0.07000000000000001 0  0.05 0.07000000000000001 0  0.06 0.07000000000000001 0  0.07000000000000001 0.07000000000000001 0  0.08 0.07000000000000001 0  0.09 0.07000000000000001 0  0.1 0.07000000000000001 0  0.11 0.07000000000000001 0  0.12 0.07000000000000001 0  0.13 0.07000000000000001 0  0.14 0.07000000000000001 0  0.15 0.07000000000000001 0  0.16 0.07000000000000001 0  0.17 0.0700
[...]
<PointData  Scalars="Indicator Function"> 
<DataArray  type="Float64"  Name="Indicator Function"  format="ascii">-1.2037062152420224e-35  -6.7442829335540027e-20  1.4500945087732018e-20  3.3578559955553519e-19  3.4543296308432273e-19  -3.6017500040444264e-20  -3.1526123332339016e-20  6.5398520514143004e-19  9.4129542053237072e-19  -1.2037062152420224e-35  5.0444992835648016e-18  3.0143065614150087e-18  -4.2847774035371849e-20  -3.6638452576652800e-20  7.5884032317100280e-18  -9.0513469279013268e-21  -7.0284174154333453e-21  2.1819150902016465e-18  -3.5870402949642233e-20  -4.5138983071575840e-35  5.5060462326799772e-18  0.0000000000000000e+00  -3.8984880350035622e-20  1.3433747185328941e-17  -5.3011292712706276e-20  -2.6505646356353147e-20  -1.9937145686203919e-20  -4.6391749125688401e-20  4.1453101093071712e-17  -1.7694491182501266e-20  -8.5455810938132913e-20  -3.0539953084411005e-20  -5.0171196603691567e-20  -1.5532641126405869e-20  2.5839155298808156e-17  -9.9509979892500074e-20  -1.3195106919307673e-19  -1.4936242911983875e-19  -1.5439183461885645e-19  -1.5009434958259154e-19  8.6724967272601649e-18  -8.9739731556738960e-20  -2.5865848955020389e-20  -3.4317645934455155e-20  -1.9413348657587347e-20  -2.3036730973490440e-20  3.0779658787639393e-17  -1.4590150052072660e-20  -8.8707071329636758e-21  -1.3689029061659677e-21  -2.2494611142180275e-20  -1.1247305571090145e-20  -8.2180641609348733e-21  -8.8293766083755693e-21  -8.2788266515676805e-21  -5.0749511891505146e-21  2.4241288773642474e-19  -1.2286469871080800e-21  -4.9384125706580996e-22  -3.3857388897580531e-22  -6.1785023185499155e-22  -4.0934621134299211e-22  -6.6512030076914920e-22  -1.3500800504866468e-21  -2.0233302965438615e-21  -1.9768711628533903e-21  -6.1841105088603167e-22  -3.3984657601163104e-21  3.3188249320434384e-18  1.4105932209867450e-37  4.7019774032891500e-38  -2.5509554840081241e-22  -4.4444763709735627e-22  -8.5772797795167465e-22  -3.0693103176642579e-22  -1.7725082061729675e-22  -6.8981853721296585e-22  -1.1322604470176080e-21  -1.0820372672916547e-21  -9.3036660170772809e-22  -5.5642063736815189e-22  2.8238732017099916e-20  -4.7989264046017489e-22  -1.6045057318632571e-22  -2.3509887016445750e-38  -1.1754943508222875e-37  0.0000000000000000e+00  -1.4037754970470599e-22  -8.1793058574470481e-23  -2.3509887016445750e-38  -3.1529502949426689e-22  -9.0321292940992891e-23  -1.5062431750121810e-22  8.0576780014064445e-19  -5.4626624303837786e-23  -2.3509887016445750e-38  2.3509887016445750e-38  0.0000000000000000e+00  -5.8918664415606631e-23  -3.5961612172038466e-24  1.8807909613156600e-37  -3.6625433661403747e-20  5.7773555440734958e-04  2.3895019981233181e-04  1.6213630607237286e-04  3.5558668887498008e-04  2.8746460672307561e-04  5.0510129568230859e-04  3.1537350132667958e-04  7.0859450024141871e-04  5.1045084452465722e-05  3.4375186431903635e-05  4.4307114633089202e-04  7.6509910582056812e-04  3.8932732380713949e-04  4.6535602358300929e-04  2.8805543283679511e-04  1.9026854188392443e-05  7.9086016046274086e-04  1.3312622527137597e-04  6.4618373343055310e-04  2.2355818785226657e-04  3.1868082492071274e-04  2.6035399031821795e-04  5.7211217531091059e-04  2.1027899415670899e-04  9.5496655242948900e-04  7.1831137506575419e-04  9.5523024444604809e-04  3.5810433407903704e-04  6.3751123116818562e-04  8.7823452508709802e-04  1.1003177706469267e-03  6.8836311000951831e-04  5.5962237431170963e-04  3.6448620120976312e-05  8.8482539823582095e-04  1.3501997343361250e-03  1.7019192770282533e-03  1.8397146819949049e-03  1.8614186944366639e-03  1.7731500801839734e-03  1.4205904983406619e-03  9.0631203722670072e-04  4.6595771086180526e-04  3.8523289433967670e-04  8.2998570422440404e-04  5.9990917817916189e-04  5.2566555470235211e-04  2.8380425030915456e-04  1.7898328199534726e-05  1.5710798372694375e-05  4.0522688943106912e-04  1.1504950478909184e-04  9.0518730377026562e-05  1.1379654362506263e-04  9.2239810679729180e-05  6.7559661092296989e-05  4.4108500444242367e-05  2.5924951779469983e-05  1.6302302222503484e-05  1.1012108040908062e-05  7.8259106672635617e-06  9.7738817716942839e-06  9.4977566084340562e-06  1.9572001744950991e-05  2.6663077405773982e-05  2.2280606226657046e-05  3.8710929510503866e-05  4.1865851768312756e-05  1.8451844789086246e-05  9.5206890634578128e-06  5.5142995549396589e-08  4.5953928668870843e-06  8.7861955304398264e-06  1.1058355842333730e-05  6.3861338374653730e-06  8.3449389671178000e-07  1.2009419080226403e-05  1.4392281368986196e-05  1.2296109850609637e-05  1.0611939797770698e-05  1.0628284071425874e-05  7.8333460384947278e-06  7.1342229597263657e-06  2.6831691713870674e-06  2.6289045463718789e-06  2.9400506262125780e-06  5.1799556292154016e-06  1.4216611230980239e-06  1.4734527524699151e-06  6.3135889115826512e-06  2.5230558535772740e-06  1.6270837649307076e-06  2.7134064806855820e-06  1.9681315588741793e-06  6.2047280724633260e-07  7.5038290360125339e-07  2.6413069071599636e-06  2.1227686008583453e-06  1.2956536254210738e-07  -2.3509887016445750e-37  -1.2694298410289660e-20  6.5978515755912273e-04  1.7141944265837558e-04  9.5047274792987979e-05  9.0245576432977191e-06  3.3700854064159998e-04  5.5001669432462727e-04  6.6180397230587761e-04  7.8694789321102226e-04  7.9192449437781815e-05  1.6963349496733403e-04  4.9779187586911620e-04  6.8707743690323128e-04  1.0059423921398220e-03  9.7340821039502306e-04  6.4780762020895171e-04  1.2523325766428299e-03  9.5908713577990185e-05  4.8645983674105851e-04  1.0223631022171595e-03  4.8801511416102087e-04  1.6620034498813338e-03  1.0831061093105351e-03  1.7941510674861383e-03  1.0370438150252932e-03  1.3145269841516524e-03  5.1135782432838549e-05  3.2280235556762863e-04  1.7701812838254753e-03  1.2965409155615011e-03  2.7313259846049992e-05  1.7746241872474105e-03  1.0628757092441408e-04  1.1914367268515702e-03  6.8239685100349244e-04  1.2273177294657939e-03  1.6673757328118804e-03  2.2203116268462086e-03  2.5536736374885101e-03  2.6468011829249871e-03  2.5744806114970948e-03  2.3718952549911035e-03  1.7935197594991343e-03  2.2413290276171669e-04  1.1028543075683806e-03  9.6337069833055469e-04  9.2932595159597178e-04  1.3117199200173325e-03  1.1206568767466259e-03  4.0866497706771611e-04  3.6639320718501005e-04  6.7563432518427842e-04  1.9042587058559803e-04  2.8099423427084536e-04  1.1326890697834785e-04  1.2114909701543849e-04  9.7252753495432373e-05  7.4715778126053099e-05  4.9453756219592231e-05  2.7763169494047278e-05  1.8406045422398288e-05  1.5390304300423059e-05  1.0808043989261676e-05  1.3218846663729272e-05  2.3086202546045554e-05  2.6834321368558322e-05  4.7035793832136344e-05  2.3657266497765357e-05  7.4476082914021064e-05  3.0090951015955759e-05  8.6908074070897357e-06  9.8759308023554001e-06  5.2125567777516656e-06  5.2318095606556785e-06  2.1367016156812986e-05  1.1765818149134901e-06  1.0102626186689966e-05  1.6954645500614532e-05  1.9011059457797336e-05  1.7036972293844132e-05  1.7631896344893688e-05  1.2602659388345055e-05  1.3703967329811883e-05  9.8027322433142013e-06  5.7682989054183361e-06  4.9192011410706680e-06  4.5369413066443060e-06  3.0194100457931254e-06  3.8819974519459270e-06  7.0513110265317221e-06  3.7880339237212042e-07  7.2650347791331866e-06  4.0771677774702490e-06  1.6051284416243777e-05  8.6925578083922642e-06  9.9431979654284615e-06  1.4339791927449211e-06  2.1835837500368826e-07  4.0603360183132132e-06  1.0042805070275047e-05  2.5086945196893708e-21  -2.4322184817458813e-20  2.2868015036124238e-04  4.5498249483057912e-04  7.3893428529160743e-05  5.4654312743118087e-04  7.5402556715302882e-04  6.7072331402820765e-04  8.8801098865534992e-04  2.2442371555429107e-04  1.3474388740184330e-03  5.1543654415078051e-04  1.1478269944550700e-05  1.0695868985877786e-03  1.2854168946775399e-03  2.9118475747443452e-04  1.0216995203071234e-03  1.7519500109610225e-04  3.1263199627442066e-04  1.5908334608816237e-03  8.4751635604250850e-04  1.7893200985047903e-03  4.2901448086656583e-04  1.1485096951954644e-03  3.0565510490330647e-04  1.6875164806315565e-03  1.4542901347998306e-03  2.5247836789806747e-03  2.1462773193591323e-03  2.0684084216928827e-03  7.8006876744215450e-04  2.1983440512711081e-03  2.0294118092166300e-03  2.1716251221861748e-03  2.2931607581976950e-03  1.0260566240051470e-03  3.1645768530350001e-04  2.0519142313659539e-03  2.2958997801314123e-03  2.8125159990963471e-03  3.0297557395665003e-03  3.0653197091090175e-03  2.8768060013289703e-03  2.1999515125998024e-03  1.4640029981120668e-03  1.4363382606357726e-03  7.6287747656538429e-04  2.4149941952615007e-03  1.3739389890847608e-03  7.9130914690476745e-04  4.2955603744819032e-04  8.3789181655279733e-05  1.5522622348185827e-04  1.0325420932860787e-03  4.8670488222199589e-04  2.0713754274968561e-04  9.9701724762142364e-05  8.3105513397982965e-05  8.3116387107304851e-05  6.6409008976734809e-05  4.1966506841785939e-05  2.7230522564034096e-05  1.8713935107862215e-05  1.4483531768981552e-05  1.7695882837358322e-05  1.4317607887859614e-05  3.5526708827811041e-05  3.7025364884122725e-05  3.6200496164614229e-05  9.3028831537540055e-05  6.4378260002016566e-05  8.5996450775469780e-07  5.2949253021076388e-06  2.6985111298249810e-06  5.2271211170876668e-06  1.0923549151427729e-05  2.0256803526611067e-05  1.8560080923397454e-05  6.1410050357611742e-06  2.6517830393958972e-05  2.0260157211926619e-05  1.5353850386314978e-05  1.7155275005716927e-05  1.7096424049978065e-05  1.1894528763101626e-05  1.1245392544589678e-05  2.0473296303099950e-06  5.6514047459966736e-06  6.8108794248025453e-06  8.5242914279984089e-06  6.1076416157389393e-06  9.6489134136852542e-06  1.3010787924608060e-05  3.1780883353614199e-06  8.3269421242936364e-06  1.7826420492114586e-05  3.7734926640970429e-07  3.8401442197784524e-06  4.8175860584250634e-06  2.7583698326020439e-06  2.8295828225538161e-06  -3.9268349996038762e-22  -1.8727418627432823e-20  4.3814952992297630e-04  6.2008569256561254e-04  9.6788281330472829e-06  1.5405946042397454e-04  4.9548768337925278e-04  6.9983414418797935e-04  1.1800010911803705e-03  1.0678041788982865e-03  6.8490595483917396e-04  2.2088587988366258e-04  3.6037526207441614e-05  4.9456931326990377e-04  1.0395830142638058e-03  1.5135914802578343e-03  8.0242362219807000e-04  1.0093621558421965e-03  1.8235469174813703e-03  3.4644512989293822e-04  1.1851165515731519e-03  7.1701285236704419e-04  4.3888710122272655e-04  2.1943812070751674e-03  1.7289564345934216e-03  2.5804731201919460e-03  1.3712644396941345e-03  1.4013932988811734e-03  5.0940028065181323e-04  1.4985774476769429e-03  3.3712558176131288e-03  2.0601613435358786e-03  7.0385582418754013e-04  3.2927971261110809e-03  3.7630419354701630e-04  2.7046284963994477e-03  8.6942381968999267e-04  2.1084843732158067e-03  2.4746128574791664e-03  2.8727857873064645e-03  3.2636045844289920e-03  3.3606084425080816e-03  3.2740428916276359e-03  3.0117886159597295e-03  2.1011133419087335e-03  5.3311224600865862e-04  2.0555643010233692e-03  1.5524723770569953e-03  2.1236764255394640e-03  2.9081170526131066e-03  2.3033507734153726e-03  1.0565888320165128e-03  3.9190588121550509e-04  1.0043585865584684e-03  4.3705885664637156e-04  7.2318526602283115e-04  1.2573838747779377e-04  7.4830515319834331e-05  6.1187976960834140e-05  6.9564884248533851e-05  5.4550999755476720e-05  3.0878151387555423e-05  2.3390000581695229e-05  2.0272178705965792e-05  1.2612615395398979e-05  1.8797288475864208e-05  2.6710109051826139e-05  3.4577200130513234e-05  6.0593985723646832e-05  3.3806340096340651e-05  1.2128226261191294e-04  2.2782731759937163e-05  1.4212278857216551e-05  8.6112568799654609e-06  6.5718710766772607e-06  3.1247383353175587e-06  2.7106844023834213e-05  4.2993350655286452e-06  2.0387179991821174e-05  3.0098798291082772e-05  2.6099228953395019e-05  1.8158329942112892e-05  1.7256896692518013e-05  1.2752712316110733e-05  1.8482341841152126e-05  1.1159352746360053e-05  8.4849488832487560e-06  4.6091211177197712e-06  6.1439520305679845e-06  5.6252717354173711e-06  9.0109223864332125e-06  2.3495161940827680e-06  2.0532882686409561e-07  1.6081485673950757e-05  3.7549432487769075e-06  1.8106509905329812e-05  1.0145370995070670e-05  1.7169228719080599e-05  9.8709945161194770e-07  3.2456013774042911e-06  9.9398636542919553e-07  -2.4483767290122289e-22  -2.3501546983715201e-20  3.3736318220847056e-04  5.9161276189896334e-04  9.6439645989559444e-04  1.3882160900855330e-04  5.7075894078606308e-04  7.3136953664327176e-04  6.9173084691113128e-04  1.3388786003313616e-03  4.0428967109830134e-04  1.6906682536641680e-03  9.1788973856450390e-04  1.4647321175777299e-05  1.4226093254927877e-03  1.5012188175268604e-03  3.9645868740655646e-04  1.2707253919743173e-03  9.6301299267503295e-04  1.0282876652369973e-03  1.5731176664510026e-03  1.0013707918092288e-03  2.3608445316767842e-03  1.1291859277770141e-03  2.0895469093594431e-03  1.1914170760321016e-03  2.8180103211472934e-03  2.5530499536654317e-03  3.6718444695636974e-03  2.8625529655863886e-03  2.2099921113242125e-03  1.7046460869167401e-03  3.6521844993369808e-03  2.5513565795534103e-03  3.5619362500976981e-03  3.1696074712673048e-03  1.8635650927330040e-03  4.1945584340546087e-04  3.1394481830406143e-03  2.9421243527485218e-03  3.4155909689343859e-03  3.6439602316425315e-03  3.6651906505085863e-03  3.4260036413841632e-03  2.6291107243329903e-03  1.7168295086805530e-03  2.3140375051003011e-03  1.3985761842241174e-03  3.7430214537353718e-03  1.3261011560317902e-03  2.0006132401034707e-05  2.0533013439801657e-04  2.0312877358755064e-04  3.7412478845420610e-04  1.5804509880254258e-03  6.0855859287408233e-04  4.7424376662172878e-04  7.4785423461255126e-05  4.3785473141265264e-05  6.1794473141349272e-05  6.4009526456360470e-05  4.2955798039856560e-05  2.6154674416944780e-05  1.9350983740647678e-05  1.7052704195492969e-05  1.7698387789038988e-05  1.5015498419700317e-05  4.1158401311509043e-05  3.9674475582106635e-05  5.1911036975047730e-05  1.2369043311158084e-04  8.9215079068859714e-05  1.9347357388958633e-05  8.6994842370389667e-06  5.1208547167809974e-06  5.6119755567780019e-06  9.8960314279449495e-06  2.8426824787749476e-05  2.9485859977854461e-05  3.0551533061331297e-06  3.8189524049856911e-05  2.1440226552978995e-05  1.5562690926671576e-05  1.8645252592955767e-05  1.5259397658890159e-05  1.3074616726218938e-05  1.0666883780799053e-05  1.9722872686063233e-06  7.5018486024889182e-06  8.8724173839799960e-06  9.2830977576964867e-06  3.6521804501114009e-06  1.3798772864826523e-05  1.0596067013306440e-05  3.3925909776289594e-06  1.2380612064809444e-05  3.1773339555031576e-05  8.3501851566005634e-06  9.7691737658952723e-06  4.6869845688766352e-06  2.2941151763880078e-06  1.8807909613156600e-37  -1.3117131397611495e-20  4.2336623295396010e-04  6.5510768153622149e-04  5.6721757712756315e-04  6.0304654914629754e-04  2.4646866075595111e-04  6.1069552372134122e-04  1.0820792114264041e-03  1.5428100449398376e-03  1.3885633054268342e-03  6.0525118317284409e-04  5.4343123596449982e-04  4.3510403720115612e-04  4.6481739422668598e-04  1.5172540088855778e-03  1.8738542987715905e-03  5.7747623684955478e-04  9.1429572305721531e-04  1.5313526022733325e-03  1.8444603956228528e-04  1.6749964950031502e-03  2.1556328807992195e-04  9.7925106230892960e-05  1.8650378491284485e-03  1.5477625748829432e-03  2.4913997618756425e-03  9.5241417739758041e-04  8.3543947007365589e-04  1.4123985430079672e-03  2.5110215051650383e-03  4.5408988858592755e-03  2.2024963288158261e-03  1.8387104794842513e-03  4.5560864921850427e-03  9.6129703996460059e-04  4.1303017388333602e-03  1.2160597984864434e-03  2.6245429255281195e-03  3.4720252355250288e-03  3.5157084644986268e-03  3.9053177147519011e-03  3.9969855419259995e-03  3.8957129207840588e-03  3.5466847422590733e-03  2.3336651973487432e-03  6.7590668836135098e-04  3.1688586705498761e-03  1.8019468108413511e-03  3.4444379700137766e-03  3.7315211310800247e-03  2.5612133391811147e-03  1.1878755946802446e-03  4.0202081955585195e-04  1.0062829156532419e-03  8.3475805299149987e-04  1.0561226766374482e-03  2.0728457057181916e-04  1.9781184310645856e-05  2.1341083809172673e-05  6.1879943437043571e-05  5.9742338078978161e-05  3.3879534899463968e-05  2.4918462532816726e-05  2.0476641440253759e-05  1.2643951126156356e-05  2.0072491585853015e-05  2.5071006811309045e-05  4.1723721488966160e-05  6.4611704399456456e-05  3.0022987010679471e-05  1.6162672462296049e-04  2.5323763869652256e-05  3.7957387488526437e-05  3.3363649214297122e-06  3.8202321573316879e-06  3.1000258292573170e-08  2.7881711933941578e-05  2.6406733570011115e-06  3.1831611737534388e-05  3.5926392088598081e-05  3.2511741034168646e-05  1.5499498027007345e-05  1.4716553318557759e-05  1.4880674098594969e-05  1.9867535531455202e-05  1.0728807808064291e-05  7.3995180476534139e-06  5.1862624218627886e-07  6.4122597384449022e-06  7.2987722572860489e-06  1.0032813601644538e-05  2.6916623702473663e-06  7.6150344613103888e-06  2.1670123555093627e-05  5.0567967130058706e-06  8.8537358933018140e-06  4.0215530999967985e-07  1.3996422225965926e-05  1.6688733662195727e-06  3.4621716969419992e-06  -1.9218913665752805e-22  -2.1099335954330390e-20  2.3629723229781196e-04  5.3640191170267022e-04  8.8001167127090235e-04  9.1612777780225932e-04  6.9386585426909643e-05  7.1604782789552127e-04  4.8174035781197117e-04  4.0273785504320607e-04  1.7744663365724172e-03  6.4415877675511404e-04  1.6738946913290207e-03  9.1475980043638548e-04  1.9101573894248470e-04  1.5456865792747056e-03  1.8510748112647096e-03  6.8293350391608100e-04  1.1220282663760915e-03  1.2056846411759470e-03  1.3368603523141863e-03  1.3858340013380844e-03  5.6902608166930298e-04  2.1545185176272013e-03  9.5300706212258482e-04  2.3464173268538300e-03  1.4342337746032657e-03  3.2248116015394534e-03  2.7814601695194657e-03  3.8767500229278939e-03  2.7586741571095376e-03  1.8095401586821743e-03  2.7294189109381239e-03  4.4995959562379719e-03  2.5709228797074421e-03  5.0944568648400423e-03  3.5734654528821715e-03  3.1670898262775946e-03  4.9914138424684293e-04  4.0468289287783135e-03  3.8288488061622643e-03  4.1360576009673387e-03  4.3599665012254629e-03  4.3620096961792176e-03  4.0767123790309669e-03  3.1143042036488209e-03  1.8304779488670371e-03  2.9012740853497703e-03  2.2473467332768428e-03  4.6174845447819147e-03  8.7860373678899076e-04  8.4699765786426073e-04  8.7604589963994901e-04  6.5213050317864632e-04  3.4049324944980286e-04  1.8672925516855137e-03  4.6842543270894080e-04  8.5240781553343214e-04  6.8760152738384913e-05  1.4273979625063764e-05  2.2351426143390581e-05  5.7920681202569810e-05  4.8128229625721355e-05  2.9144673138195453e-05  2.3174523016004626e-05  1.9947788412505611e-05  1.6602589949165580e-05  1.7354774272321517e-05  4.1791366712154566e-05  4.5888548149888935e-05  6.0454199767099246e-05  1.3700623819039309e-04  1.2321935287862342e-04  3.0511199759399248e-05  2.7921294003497928e-05  4.6878517214153360e-06  4.5939234203013244e-06  6.8223264552570548e-06  3.1702741940645215e-05  3.7316226825230188e-05  4.9129156129032381e-06  4.6908427060379097e-05  2.3450836082153710e-05  1.3843270117262265e-05  1.4735576442682188e-05  1.2724300533460064e-05  1.5644325356251148e-05  1.0192890021686178e-05  3.3494779837022171e-06  5.0636414832055587e-06  7.9222958702359054e-06  7.7781996874818658e-06  2.2214107418024518e-06  5.7691788240477032e-06  1.0141272600806393e-05  8.4608014617851678e-06  9.6578617739967685e-06  3.2798035665190040e-05  1.0040113677994322e-05  1.2017736269127343e-05  1.5304597596769951e-06  -2.1239395793196020e-22  -1.5408478994310802e-20  3.8009184616675037e-04  6.5285875585505918e-04  7.1508850106028767e-04  7.0495107308380940e-04  9.8569443281507551e-04  1.2607448556238319e-04  5.1848078272958122e-04  1.0100927230639143e-03  1.6035389271137743e-03  1.7769482984800564e-03  7.5962877340818140e-04  5.6805819773902381e-04  6.6653079404972206e-04  4.2917357594531816e-04  1.8510709212152471e-03  2.1529594692984285e-03 