<?xml version="1.0"?>
<VTKFile type="UnstructuredGrid"  version="0.1"  >
<UnstructuredGrid>
<Piece  NumberOfPoints="10201" NumberOfCells="20000">
<Points>
<DataArray  type="Float64"  NumberOfComponents="3"  format="ascii">0 0 0  0.01 0 0  0.02 0 0  0.03 0 0  0.04 0 0  0.05 0 0  0.06 0 0  0.07000000000000001 0 0  0.08 0 0  0.09 0 0  0.1 0 0  0.11 0 0  0.12 0 0  0.13 0 0  0.14 0 0  0.15 0 0  0.16 0 0  0.17 0 0  0.18 0 0  0.19 0 0  0.2 0 0  0.21 0 0  0.22 0 0  0.23 0 0  0.24 0 0  0.25 0 0  0.26 0 0  0.27 0 0  0.28 0 0  0.29 0 0  0.3 0 0  0.31 0 0  0.32 0 0  0.33 0 0  0.34 0 0  0.35 0 0  0.36 0 0  0.37 0 0  0.38 0 0  0.39 0 0  0.4 0 0  0.41 0 0  0.42 0 0  0.43 0 0  0.44 0 0  0.45 0 0  0.46 0 0  0.47 0 0  0.48 0 0  0.49 0 0  0.5 0 0  0.51 0 0  0.52 0 0  0.53 0 0  0.54 0 0  0.55 0 0  0.5600000000000001 0 0  0.57 0 0  0.58 0 0  0.59 0 0  0.6 0 0  0.61 0 0  0.62 0 0  0.63 0 0  0.64 0 0  0.65 0 0  0.66 0 0  0.67 0 0  0.68 0 0  0.6899999999999999 0 0  0.7 0 0  0.71 0 0  0.72 0 0  0.73 0 0  0.74 0 0  0.75 0 0  0.76 0 0  0.77 0 0  0.78 0 0  0.79 0 0  0.8 0 0  0.8100000000000001 0 0  0.82 0 0  0.83 0 0  0.84 0 0  0.85 0 0  0.86 0 0  0.87 0 0  0.88 0 0  0.89 0 0  0.9 0 0  0.91 0 0  0.92 0 0  0.93 0 0  0.9399999999999999 0 0  0.95 0 0  0.96 0 0  0.97 0 0  0.98 0 0  0.99 0 0  1 0 0  0 0.01 0  0.01 0.01 0  0.02 0.01 0  0.03 0.01 0  0.04 0.01 0  0.05 0.01 0  0.06 0.01 0  0.07000000000000001 0.01 0  0.08 0.01 0  0.09 0.01 0  0.1 0.01 0  0.11 0.01 0  0.12 0.01 0  0.13 0.01 0  0.14 0.01 0  0.15 0.01 0  0.16 0.01 0  0.17 0.01 0  0.18 0.01 0  0.19 0.01 0  0.2 0.01 0  0.21 0.01 0  0.22 0.01 0  0.23 0.01 0  0.24 0.01 0  0.25 0.01 0  0.26 0.01 0  0.27 0.01 0  0.28 0.01 0  0.29 0.01 0  0.3 0.01 0  0.31 0.01 0  0.32 0.01 0  0.33 0.01 0  0.34 0.01 0  0.35 0.01 0  0.36 0.01 0  0.37 0.01 0  0.38 0.01 0  0.39 0.01 0  0.4 0.01 0  0.41 0.01 0  0.42 0.01 0  0.43 0.01 0  0.44 0.01 0  0.45 0.01 0  0.46 0.01 0  0.47 0.01 0  0.48 0.01 0  0.49 0.01 0  0.5 0.01 0  0.51 0.01 0  0.52 0.01 0  0.53 0.01 0  0.54 0.01 0  0.55 0.01 0  0.5600000000000001 0.01 0  0.57 0.01 0  0.58 0.01 0  0.59 0.01 0  0.6 0.01 0  0.61 0.01 0  0.62 0.01 0  0.63 0.01 0  0.64 0.01 0  0.65 0.01 0  0.66 0.01 0  0.67 0.01 0  0.68 0.01 0  0.6899999999999999 0.01 0  0.7 0.01 0  0.71 0.01 0  0.72 0.01 0  0.73 0.01 0  0.74 0.01 0  0.75 0.01 0  0.76 0.01 0  0.77 0.01 0  0.78 0.01 0  0.79 0.01 0  0.8 0.01 0  0.8100000000000001 0.01 0  0.82 0.01 0  0.83 0.01 0  0.84 0.01 0  0.85 0.01 0  0.86 0.01 0  0.87 0.01 0  0.88 0.01 0  0.89 0.01 0  0.9 0.01 0  0.91 0.01 0  0.92 0.01 0  0.93 0.01 0  0.9399999999999999 0.01 0  0.95 0.01 0  0.96 0.01 0  0.97 0.01 0  0.98 0.01 0  0.99 0.01 0  1 0.01 0  0 0.02 0  0.01 0.02 0  0.02 0.02 0  0.03 0.02 0  0.04 0.02 0  0.05 0.02 0  0.06 0.02 0  0.07000000000000001 0.02 0  0.08 0.02 0  0.09 0.02 0  0.1 0.02 0  0.11 0.02 0  0.12 0.02 0  0.13 0.02 0  0.14 0.02 0  0.15 0.02 0  0.16 0.02 0  0.17 0.02 0  0.18 0.02 0  0.19 0.02 0  0.2 0.02 0  0.21 0.02 0  0.22 0.02 0  0.23 0.02 0  0.24 0.02 0  0.25 0.02 0  0.26 0.02 0  0.27 0.02 0  0.28 0.02 0  0.29 0.02 0  0.3 0.02 0  0.31 0.02 0  0.32 0.02 0  0.33 0.02 0  0.34 0.02 0  0.35 0.02 0  0.36 0.02 0  0.37 0.02 0  0.38 0.02 0  0.39 0.02 0  0.4 0.02 0  0.41 0.02 0  0.42 0.02 0  0.43 0.02 0  0.44 0.02 0  0.45 0.02 0  0.46 0.02 0  0.47 0.02 0  0.48 0.02 0  0.49 0.02 0  0.5 0.02 0  0.51 0.02 0  0.52 0.02 0  0.53 0.02 0  0.54 0.02 0  0.55 0.02 0  0.5600000000000001 0.02 0  0.57 0.02 0  0.58 0.02 0  0.59 0.02 0  0.6 0.02 0  0.61 0.02 0  0.62 0.02 0  0.63 0.02 0  0.64 0.02 0  0.65 0.02 0  0.66 0.02 0  0.67 0.02 0  0.68 0.02 0  0.6899999999999999 0.02 0  0.7 0.02 0  0.71 0.02 0  0.72 0.02 0  0.73 0.02 0  0.74 0.02 0  0.75 0.02 0  0.76 0.02 0  0.77 0.02 0  0.78 0.02 0  0.79 0.02 0  0.8 0.02 0  0.8100000000000001 0.02 0  0.82 0.02 0  0.83 0.02 0  0.84 0.02 0  0.85 0.02 0  0.86 0.02 0  0.87 0.02 0  0.88 0.02 0  0.89 0.02 0  0.9 0.02 0  0.91 0.02 0  0.92 0.02 0  0.93 0.02 0  0.9399999999999999 0.02 0  0.95 0.02 0  0.96 0.02 0  0.97 0.02 0  0.98 0.02 0  0.99 0.02 0  1 0.02 0  0 0.03 0  0.01 0.03 0  0.02 0.03 0  0.03 0.03 0  0.04 0.03 0  0.05 0.03 0  0.06 0.03 0  0.07000000000000001 0.03 0  0.08 0.03 0  0.09 0.03 0  0.1 0.03 0  0.11 0.03 0  0.12 0.03 0  0.13 0.03 0  0.14 0.03 0  0.15 0.03 0  0.16 0.03 0  0.17 0.03 0  0.18 0.03 0  0.19 0.03 0  0.2 0.03 0  0.21 0.03 0  0.22 0.03 0  0.23 0.03 0  0.24 0.03 0  0.25 0.03 0  0.26 0.03 0  0.27 0.03 0  0.28 0.03 0  0.29 0.03 0  0.3 0.03 0  0.31 0.03 0  0.32 0.03 0  0.33 0.03 0  0.34 0.03 0  0.35 0.03 0  0.36 0.03 0  0.37 0.03 0  0.38 0.03 0  0.39 0.03 0  0.4 0.03 0  0.41 0.03 0  0.42 0.03 0  0.43 0.03 0  0.44 0.03 0  0.45 0.03 0  0.46 0.03 0  0.47 0.03 0  0.48 0.03 0  0.49 0.03 0  0.5 0.03 0  0.51 0.03 0  0.52 0.03 0  0.53 0.03 0  0.54 0.03 0  0.55 0.03 0  0.5600000000000001 0.03 0  0.57 0.03 0  0.58 0.03 0  0.59 0.03 0  0.6 0.03 0  0.61 0.03 0  0.62 0.03 0  0.63 0.03 0  0.64 0.03 0  0.65 0.03 0  0.66 0.03 0  0.67 0.03 0  0.68 0.03 0  0.6899999999999999 0.03 0  0.7 0.03 0  0.71 0.03 0  0.72 0.03 0  0.73 0.03 0  0.74 0.03 0  0.75 0.03 0  0.76 0.03 0  0.77 0.03 0  0.78 0.03 0  0.79 0.03 0  0.8 0.03 0  0.8100000000000001 0.03 0  0.82 0.03 0  0.83 0.03 0  0.84 0.03 0  0.85 0.03 0  0.86 0.03 0  0.87 0.03 0  0.88 0.03 0  0.89 0.03 0  0.9 0.03 0  0.91 0.03 0  0.92 0.03 0  0.93 0.03 0  0.9399999999999999 0.03 0  0.95 0.03 0  0.96 0.03 0  0.97 0.03 0  0.98 0.03 0  0.99 0.03 0  1 0.03 0  0 0.04 0  0.01 0.04 0  0.02 0.04 0  0.03 0.04 0  0.04 0.04 0  0.05 0.04 0  0.06 0.04 0  0.07000000000000001 0.04 0  0.08 0.04 0  0.09 0.04 0  0.1 0.04 0  0.11 0.04 0  0.12 0.04 0  0.13 0.04 0  0.14 0.04 0  0.15 0.04 0  0.16 0.04 0  0.17 0.04 0  0.18 0.04 0  0.19 0.04 0  0.2 0.04 0  0.21 0.04 0  0.22 0.04 0  0.23 0.04 0  0.24 0.04 0  0.25 0.04 0  0.26 0.04 0  0.27 0.04 0  0.28 0.04 0  0.29 0.04 0  0.3 0.04 0  0.31 0.04 0  0.32 0.04 0  0.33 0.04 0  0.34 0.04 0  0.35 0.04 0  0.36 0.04 0  0.37 0.04 0  0.38 0.04 0  0.39 0.04 0  0.4 0.04 0  0.41 0.04 0  0.42 0.04 0  0.43 0.04 0  0.44 0.04 0  0.45 0.04 0  0.46 0.04 0  0.47 0.04 0  0.48 0.04 0  0.49 0.04 0  0.5 0.04 0  0.51 0.04 0  0.52 0.04 0  0.53 0.04 0  0.54 0.04 0  0.55 0.04 0  0.5600000000000001 0.04 0  0.57 0.04 0  0.58 0.04 0  0.59 0.04 0  0.6 0.04 0  0.61 0.04 0  0.62 0.04 0  0.63 0.04 0  0.64 0.04 0  0.65 0.04 0  0.66 0.04 0  0.67 0.04 0  0.68 0.04 0  0.6899999999999999 0.04 0  0.7 0.04 0  0.71 0.04 0  0.72 0.04 0  0.73 0.04 0  0.74 0.04 0  0.75 0.04 0  0.76 0.04 0  0.77 0.04 0  0.78 0.04 0  0.79 0.04 0  0.8 0.04 0  0.8100000000000001 0.04 0  0.82 0.04 0  0.83 0.04 0  0.84 0.04 0  0.85 0.04 0  0.86 0.04 0  0.87 0.04 0  0.88 0.04 0  0.89 0.04 0  0.9 0.04 0  0.91 0.04 0  0.92 0.04 0  0.93 0.04 0  0.9399999999999999 0.04 0  0.95 0.04 0  0.96 0.04 0  0.97 0.04 0  0.98 0.04 0  0.99 0.04 0  1 0.04 0  0 0.05 0  0.01 0.05 0  0.02 0.05 0  0.03 0.05 0  0.04 0.05 0  0.05 0.05 0  0.06 0.05 0  0.07000000000000001 0.05 0  0.08 0.05 0  0.09 0.05 0  0.1 0.05 0  0.11 0.05 0  0.12 0.05 0  0.13 0.05 0  0.14 0.05 0  0.15 0.05 0  0.16 0.05 0  0.17 0.05 0  0.18 0.05 0  0.19 0.05 0  0.2 0.05 0  0.21 0.05 0  0.22 0.05 0  0.23 0.05 0  0.24 0.05 0  0.25 0.05 0  0.26 0.05 0  0.27 0.05 0  0.28 0.05 0  0.29 0.05 0  0.3 0.05 0  0.31 0.05 0  0.32 0.05 0  0.33 0.05 0  0.34 0.05 0  0.35 0.05 0  0.36 0.05 0  0.37 0.05 0  0.38 0.05 0  0.39 0.05 0  0.4 0.05 0  0.41 0.05 0  0.42 0.05 0  0.43 0.05 0  0.44 0.05 0  0.45 0.05 0  0.46 0.05 0  0.47 0.05 0  0.48 0.05 0  0.49 0.05 0  0.5 0.05 0  0.51 0.05 0  0.52 0.05 0  0.53 0.05 0  0.54 0.05 0  0.55 0.05 0  0.5600000000000001 0.05 0  0.57 0.05 0  0.58 0.05 0  0.59 0.05 0  0.6 0.05 0  0.61 0.05 0  0.62 0.05 0  0.63 0.05 0  0.64 0.05 0  0.65 0.05 0  0.66 0.05 0  0.67 0.05 0  0.68 0.05 0  0.6899999999999999 0.05 0  0.7 0.05 0  0.71 0.05 0  0.72 0.05 0  0.73 0.05 0  0.74 0.05 0  0.75 0.05 0  0.76 0.05 0  0.77 0.05 0  0.78 0.05 0  0.79 0.05 0  0.8 0.05 0  0.8100000000000001 0.05 0  0.82 0.05 0  0.83 0.05 0  0.84 0.05 0  0.85 0.05 0  0.86 0.05 0  0.87 0.05 0  0.88 0.05 0  0.89 0.05 0  0.9 0.05 0  0.91 0.05 0  0.92 0.05 0  0.93 0.05 0  0.9399999999999999 0.05 0  0.95 0.05 0  0.96 0.05 0  0.97 0.05 0  0.98 0.05 0  0.99 0.05 0  1 0.05 0  0 0.06 0  0.01 0.06 0  0.02 0.06 0  0.03 0.06 0  0.04 0.06 0  0.05 0.06 0  0.06 0.06 0  0.07000000000000001 0.06 0  0.08 0.06 0  0.09 0.06 0  0.1 0.06 0  0.11 0.06 0  0.12 0.06 0  0.13 0.06 0  0.14 0.06 0  0.15 0.06 0  0.16 0.06 0  0.17 0.06 0  0.18 0.06 0  0.19 0.06 0  0.2 0.06 0  0.21 0.06 0  0.22 0.06 0  0.23 0.06 0  0.24 0.06 0  0.25 0.06 0  0.26 0.06 0  0.27 0.06 0  0.28 0.06 0  0.29 0.06 0  0.3 0.06 0  0.31 0.06 0  0.32 0.06 0  0.33 0.06 0  0.34 0.06 0  0.35 0.06 0  0.36 0.06 0  0.37 0.06 0  0.38 0.06 0  0.39 0.06 0  0.4 0.06 0  0.41 0.06 0  0.42 0.06 0  0.43 0.06 0  0.44 0.06 0  0.45 0.06 0  0.46 0.06 0  0.47 0.06 0  0.48 0.06 0  0.49 0.06 0  0.5 0.06 0  0.51 0.06 0  0.52 0.06 0  0.53 0.06 0  0.54 0.06 0  0.55 0.06 0  0.5600000000000001 0.06 0  0.57 0.06 0  0.58 0.06 0  0.59 0.06 0  0.6 0.06 0  0.61 0.06 0  0.62 0.06 0  0.63 0.06 0  0.64 0.06 0  0.65 0.06 0  0.66 0.06 0  0.67 0.06 0  0.68 0.06 0  0.6899999999999999 0.06 0  0.7 0.06 0  0.71 0.06 0  0.72 0.06 0  0.73 0.06 0  0.74 0.06 0  0.75 0.06 0  0.76 0.06 0  0.77 0.06 0  0.78 0.06 0  0.79 0.06 0  0.8 0.06 0  0.8100000000000001 0.06 0  0.82 0.06 0  0.83 0.06 0  0.84 0.06 0  0.85 0.06 0  0.86 0.06 0  0.87 0.06 0  0.88 0.06 0  0.89 0.06 0  0.9 0.06 0  0.91 0.06 0  0.92 0.06 0  0.93 0.06 0  0.9399999999999999 0.06 0  0.95 0.06 0  0.96 0.06 0  0.97 0.06 0  0.98 0.06 0  0.99 0.06 0  1 0.06 0  0 0.07000000000000001 0  0.01 0.07000000000000001 0  0.02 0.07000000000000001 0  0.03 0.07000000000000001 0  0.04 0.07000000000000001 0  0.05 0.07000000000000001 0  0.06 0.07000000000000001 0  0.07000000000000001 0.07000000000000001 0  0.08 0.07000000000000001 0  0.09 0.07000000000000001 0  0.1 0.07000000000000001 0  0.11 0.07000000000000001 0  0.12 0.07000000000000001 0  0.13 0.07000000000000001 0  0.14 0.07000000000000001 0  0.15 0.07000000000000001 0  0.16 0.07000000000000001 0  0.17 0.0700
[...]
<PointData  Scalars="Indicator Function"> 
<DataArray  type="Float64"  Name="Indicator Function"  format="ascii">-6.0185310762101120e-36  -6.7403651701515284e-20  1.4759606934896148e-20  3.3551575083760560e-19  3.4536263904854542e-19  -3.5997708275684792e-20  -3.1510024766458935e-20  6.5389905650557870e-19  9.4074237996248730e-19  -1.0532429383367696e-35  5.0417312105009476e-18  3.0076552066547469e-18  -4.2804894620865669e-20  -3.6627795386434020e-20  7.5932250899071513e-18  -9.0483704306763765e-21  -6.9869777968864628e-21  2.1813741513467243e-18  -3.5867065220480442e-20  -5.1157514147785952e-35  5.5111625556214925e-18  0.0000000000000000e+00  -3.8977565258814521e-20  1.3420372448609379e-17  -5.2999175541703027e-20  -2.6499587770851514e-20  -1.9931303428522204e-20  -4.6380545314718122e-20  4.1452021800557323e-17  -1.7692642500142315e-20  -8.5414324722493709e-20  -3.0527414450259149e-20  -5.0151698848004019e-20  -1.5525586871632706e-20  2.5753650114243054e-17  -9.9431988055485165e-20  -1.3186373853961703e-19  -1.4927585142794820e-19  -1.5430905030918619e-19  -1.5001951845317049e-19  8.6789519936717364e-18  -8.9626729067765346e-20  -2.5858999574834231e-20  -3.4320789303093193e-20  -1.9440739779944974e-20  -2.3025957482667933e-20  3.0741975808219456e-17  -1.4594032272108877e-20  -8.8454280261813182e-21  -1.3716936765139286e-21  -2.2512772641991218e-20  -1.1256386320995615e-20  -8.2174308490093816e-21  -8.8535024741406875e-21  -8.2911916595396699e-21  -5.0712079632321845e-21  2.3997533939600465e-19  -1.2707034097081925e-21  -5.0999804694095571e-22  -3.2940269390336844e-22  -6.2753305741706615e-22  -4.5766744505131600e-22  -6.9552901738163191e-22  -1.3315699456841325e-21  -2.0440251941027932e-21  -1.8431523068677044e-21  -7.1730298649709808e-22  -3.3973558234253805e-21  3.4049978033529895e-18  9.4039548065783001e-38  -2.2984317522042085e-23  -2.2816284458317344e-22  -4.6342606579684475e-22  -7.5837609061085449e-22  -3.9533474175730020e-22  -1.9766737087865012e-22  -7.8498929951312646e-22  -1.1499324342412374e-21  -1.0645925440932616e-21  -9.0035415213464657e-22  -5.0839295211359098e-22  3.2492449264779863e-20  -4.4426773176594506e-22  -2.1780988451098705e-22  4.7019774032891500e-38  2.3509887016445750e-38  -2.3509887016445750e-38  -1.4156932845324135e-22  -5.4910570025551274e-23  1.4105932209867450e-37  -2.8164148021583000e-22  -1.0756397633931610e-22  -1.4527317836344850e-22  8.2312180084253192e-19  -5.1220329298641296e-23  4.7019774032891500e-38  2.3509887016445750e-38  0.0000000000000000e+00  -6.4378439497222030e-23  -2.3394639121440483e-23  3.7615819226313200e-37  -3.6594936806777005e-20  5.7721778025346436e-04  2.3876601399704084e-04  1.6193295434997193e-04  3.5551429772039204e-04  2.8731187057237060e-04  5.0482112702007807e-04  3.1522357967659996e-04  7.0840832084911767e-04  5.1290544727816712e-05  3.4160893490612692e-05  4.4296424864537567e-04  7.6481655246609076e-04  3.8869615362361042e-04  4.6547962580318117e-04  2.8752982104259504e-04  1.9236040278319749e-05  7.9063773767774936e-04  1.3307366598738028e-04  6.4612360624731588e-04  2.2316098653386374e-04  3.1873287300727629e-04  2.5989621245328681e-04  5.7220928727498576e-04  2.1050144896264856e-04  9.5474826888222882e-04  7.1810088554960679e-04  9.5468495377326026e-04  3.5817514949978768e-04  6.3744462536672263e-04  8.7764333045425239e-04  1.0998660187421744e-03  6.8816894195421012e-04  5.5936821799836770e-04  3.5164267393718411e-05  8.8402886025270688e-04  1.3491930272952087e-03  1.7008494213551946e-03  1.8386899647876867e-03  1.8604397434955407e-03  1.7722915178682293e-03  1.4197796615876179e-03  9.0468178373428858e-04  4.6583432339758897e-04  3.8535121396709266e-04  8.2959754831037481e-04  6.0010035868764795e-04  5.2580542642001991e-04  2.8414378160184970e-04  1.7273174649646012e-05  1.6073649196835341e-05  4.0555405792619333e-04  1.1471383249806930e-04  9.0675157789131230e-05  1.1415294287928942e-04  9.2284359233796125e-05  6.7637642186608337e-05  4.4401180542083674e-05  2.5846887859262307e-05  1.6099592255195922e-05  1.0794115976505394e-05  7.3203073519454456e-06  9.5098312308391056e-06  9.5255200672855481e-06  1.9224671611160472e-05  2.7209548604408744e-05  1.9598505867381497e-05  4.0105133724765408e-05  4.1148754819311330e-05  1.8074393349868119e-05  9.2664839738327938e-06  4.1404865531053644e-07  3.9031920797230196e-06  9.9802463664358014e-06  8.6715659331090497e-06  7.1217175826591530e-06  3.4286173361203001e-06  1.2426801399048418e-05  1.4501940429876124e-05  1.1927024124581220e-05  1.0255826433929684e-05  1.0686083998631736e-05  7.5054941744044419e-06  7.1135132373681326e-06  2.6158040921083974e-06  2.7390647307865556e-06  2.9781664971110579e-06  5.1005725989528721e-06  1.9783617816461952e-06  2.2703795917427853e-06  6.1765292687854731e-06  1.9853372270156078e-06  1.9377003350409322e-06  2.6170089277781031e-06  1.8454068475452411e-06  7.7311723381444356e-07  5.9767153476279169e-07  2.2885457142191014e-06  2.3194777290430640e-06  8.4288070423829387e-07  -2.8782064547760508e-22  -1.2704823011068194e-20  6.5923577506659086e-04  1.7112909372770350e-04  9.5059028528145503e-05  9.0784286261197388e-06  3.3706113123826851e-04  5.4973436358110735e-04  6.6170163286805679e-04  7.8676619476789977e-04  7.8752244864250642e-05  1.7036438266853531e-04  4.9740690717486446e-04  6.8633677593482698e-04  1.0058501839363676e-03  9.7249849384381840e-04  6.4733810513773827e-04  1.2521073677763679e-03  9.5054649244478466e-05  4.8694655085512674e-04  1.0215419847882938e-03  4.8761936908184848e-04  1.6612177645470608e-03  1.0825758339239762e-03  1.7932994415965444e-03  1.0363912700838047e-03  1.3135591468985289e-03  5.0489308682090330e-05  3.2315600705323295e-04  1.7697374937343364e-03  1.2956849338355298e-03  2.8097915725222076e-05  1.7740377036793264e-03  1.0694927910369107e-04  1.1915195382344564e-03  6.8247122225416920e-04  1.2251328954166339e-03  1.6663439865704738e-03  2.2188024829894715e-03  2.5521658155327311e-03  2.6453957712215983e-03  2.5730993787503043e-03  2.3703957200948656e-03  1.7921361752928349e-03  2.2505596183209852e-04  1.1027345802686152e-03  9.6265188866049428e-04  9.2841531977636601e-04  1.3107472835835125e-03  1.1198357393244216e-03  4.0743704562511666e-04  3.6680108533107894e-04  6.7520229643746796e-04  1.9157830666898586e-04  2.8177711409865211e-04  1.1378693834768002e-04  1.2178230972998212e-04  9.7097666259310278e-05  7.4984256415281409e-05  4.9312711637880214e-05  2.7826998110966596e-05  1.8575785660545506e-05  1.5431589212826592e-05  1.0908857693941297e-05  1.3050492119199616e-05  2.3810471974815242e-05  2.5984950126550852e-05  4.6414941292440511e-05  2.8012276629209362e-05  7.2707428024541598e-05  2.8809111491785227e-05  9.7648128318265235e-06  9.0223633553687706e-06  5.0771175158208564e-06  6.4471147190108346e-06  2.0495483275558131e-05  4.9471315790449520e-06  5.9743011956654671e-06  1.8579626270254846e-05  1.7582491847146330e-05  1.8136494091741256e-05  1.7747903258315326e-05  1.1698420633644192e-05  1.4037092342432559e-05  9.3357368858319110e-06  6.3421761708817534e-06  4.7886742628458518e-06  4.2816098973887208e-06  3.5776823824025595e-06  4.5518911486197410e-06  5.7772926776575679e-06  9.9724288569649633e-07  7.9624818354344015e-06  4.5259282863855894e-06  1.6444256369294294e-05  8.2122304013207438e-06  9.8450448076803964e-06  5.5403701136769977e-07  4.3867007679435566e-07  4.4086295821649846e-06  1.0383712875850932e-05  2.5938533510699493e-21  -2.4314501263233929e-20  2.2886974471382019e-04  4.5503795180946017e-04  7.4017341924418215e-05  5.4596890687293317e-04  7.5360974319868947e-04  6.7041298270611679e-04  8.8748695189617359e-04  2.2451866642917312e-04  1.3473062558728808e-03  5.1508955143492077e-04  1.1150250818598179e-05  1.0694129578017234e-03  1.2846721982852805e-03  2.9033635311039274e-04  1.0222364553483939e-03  1.7613742411832587e-04  3.1344420135755505e-04  1.5897161616965198e-03  8.4692031297799728e-04  1.7888321093998865e-03  4.2952231093467454e-04  1.1485934185349997e-03  3.0629790297118597e-04  1.6876893406155388e-03  1.4544268089771741e-03  2.5240002630891149e-03  2.1452465085886291e-03  2.0669691377612903e-03  7.8049766581911296e-04  2.1976497536707121e-03  2.0278039498080455e-03  2.1709770312683205e-03  2.2918852685019351e-03  1.0257618275629921e-03  3.1369255922357903e-04  2.0507173118970491e-03  2.2946328152763274e-03  2.8107194996242267e-03  3.0279697400251875e-03  3.0636214550551991e-03  2.8753384069805116e-03  2.1984201623635332e-03  1.4607998858551096e-03  1.4348828009420722e-03  7.6293335946070180e-04  2.4137779543234026e-03  1.3744150501234470e-03  7.9241435938195634e-04  4.3085390864772128e-04  8.6000190118034898e-05  1.5655922236519997e-04  1.0332536282293750e-03  4.8565428254763614e-04  2.0822091495755295e-04  1.0060078810019037e-04  8.3212239468131565e-05  8.3202421996540692e-05  6.7174294291879485e-05  4.1541205626646482e-05  2.7003379920168969e-05  1.8861046026541890e-05  1.4099566080635167e-05  1.8110979559833920e-05  1.4979221468795944e-05  3.5530462999009073e-05  3.8172493667391396e-05  3.1010128598109357e-05  9.4262594413273160e-05  6.0901980777582059e-05  5.5578867963756070e-07  6.1517918440024782e-06  1.5559330150467397e-06  3.8510802985602273e-06  1.4674161752500283e-05  1.5343877134651778e-05  1.8222722029804299e-05  1.1924840437073701e-05  2.5758384312877064e-05  1.9657328495835583e-05  1.5935504242609424e-05  1.7849427683503854e-05  1.7035111982344450e-05  1.1584984398552034e-05  1.1296067740201835e-05  2.2235518940776881e-06  6.6733688940286606e-06  6.5083653917313796e-06  8.5453965406875495e-06  6.1654162576033596e-06  1.1173090544183445e-05  1.2489496810158149e-05  2.8782217357498558e-06  7.9112026157227508e-06  1.8790598663260137e-05  1.1334119625150500e-06  4.5479952725181717e-06  5.2726085828070929e-06  2.4946037211496966e-06  8.9880719238426943e-07  -1.2473455496046588e-22  -1.8732121184760817e-20  4.3801111531520002e-04  6.1973905046334369e-04  9.1148942805008542e-06  1.5409573622708137e-04  4.9515773409983211e-04  6.9960074200119962e-04  1.1795998894286220e-03  1.0675947410095576e-03  6.8474942290958638e-04  2.2043628471247526e-04  3.4532192504668728e-05  4.9354988602546797e-04  1.0386726308370450e-03  1.5137283608428582e-03  8.0086280765060997e-04  1.0078835958463189e-03  1.8225367318718156e-03  3.4711368108623561e-04  1.1856887790727463e-03  7.1591679190541855e-04  4.3809454050145326e-04  2.1929107353126499e-03  1.7277324775837911e-03  2.5787251812987460e-03  1.3698476369931297e-03  1.3997637660806202e-03  5.1034110294813546e-04  1.4986786025686278e-03  3.3699924040288729e-03  2.0585505522097234e-03  7.0491618242535291e-04  3.2914868360204093e-03  3.7726360211571744e-04  2.7043026716458076e-03  8.6919399418104639e-04  2.1042183767440961e-03  2.4739198244092286e-03  2.8710784473865900e-03  3.2615933792703444e-03  3.3586758198006369e-03  3.2721198912381371e-03  3.0098464389810282e-03  2.0994556844042074e-03  5.3502845478604921e-04  2.0540418749383691e-03  1.5513821761427261e-03  2.1219849504501031e-03  2.9063670265770504e-03  2.3024833955495446e-03  1.0555441756496338e-03  3.9201306515141760e-04  1.0030785252582938e-03  4.3922906745446917e-04  7.2384035600766043e-04  1.2636270246759712e-04  7.5611922926136521e-05  6.0672053725470793e-05  7.0002946887339274e-05  5.4712243673619606e-05  3.0768044069250982e-05  2.3314157091227637e-05  2.0207186147791166e-05  1.2410036184191490e-05  1.8459304562025438e-05  2.8125713193139910e-05  3.3245930862127334e-05  6.1028868656202842e-05  4.1406674038113562e-05  1.1720992576883936e-04  1.9945228492229484e-05  1.1618610447499571e-05  7.5609509248789877e-06  6.3761557335211238e-06  4.0107862440711883e-06  2.7153128853105648e-05  1.0162021865207711e-05  1.2771954275201733e-05  3.1029186881898049e-05  2.3530157224424476e-05  1.9939825326673266e-05  1.7556583829278670e-05  1.2184742556134327e-05  1.9445753353214187e-05  1.0560163957636902e-05  9.0154790378769108e-06  4.0075197354034472e-06  6.7461218093008512e-06  6.6792377116338115e-06  9.0570136339506747e-06  6.8951191932367848e-08  2.7774276659182326e-06  1.6750107413307179e-05  4.8613903814464993e-06  1.8682503322168403e-05  9.0488715760979730e-06  1.7509039502533478e-05  1.2328437881243246e-06  4.6437283780545298e-06  2.4956864051548988e-06  -3.6869451942095311e-22  -2.3483859538511873e-20  3.3744789595019066e-04  5.9156207174287814e-04  9.6410524561035794e-04  1.3838857630941287e-04  5.7016798729204218e-04  7.3074002317936718e-04  6.9146321060251526e-04  1.3382225402640193e-03  4.0465388963792788e-04  1.6904512154823634e-03  9.1778771525617036e-04  1.5065199631979237e-05  1.4220949060812311e-03  1.4999528191096520e-03  3.9603261558033453e-04  1.2710947825289849e-03  9.6339825760203180e-04  1.0290153407309366e-03  1.5711721901447242e-03  1.0000493584258769e-03  2.3597066215775946e-03  1.1292491166547177e-03  2.0892259885770341e-03  1.1916146908052734e-03  2.8176421723126233e-03  2.5526846979899522e-03  3.6701060671383017e-03  2.8606578411096702e-03  2.2079306721412579e-03  1.7050037318860026e-03  3.6505486516608958e-03  2.5487471995692466e-03  3.5607869925945684e-03  3.1672653809332158e-03  1.8632900683717825e-03  4.1632252702929179e-04  3.1368719700495202e-03  2.9409948719323941e-03  3.4134134873964723e-03  3.6416765677224224e-03  3.6630299491064761e-03  3.4241134837837100e-03  2.6270794871972370e-03  1.7128982640378964e-03  2.3122205974826972e-03  1.3979832809914447e-03  3.7408215931751150e-03  1.3272343518713238e-03  2.2091083210075287e-05  2.0327764657224325e-04  1.9981847152666899e-04  3.7637472331036008e-04  1.5806808495872453e-03  6.0686413539489217e-04  4.7622987941548970e-04  7.5681630829472287e-05  4.3571228255979215e-05  6.1312171503080548e-05  6.5104267704782203e-05  4.2544508582960615e-05  2.6013923099294994e-05  1.9439472375044623e-05  1.6363561293417997e-05  1.8064539980938170e-05  1.5173628002895668e-05  4.1447887412409538e-05  4.0311370606860366e-05  4.6117694165304671e-05  1.2661736145586539e-04  8.3437976436476238e-05  1.9970104984916062e-05  5.4088162304548326e-06  3.0017297042888888e-06  3.6235059804972077e-06  1.4400124729632977e-05  2.1779560861114895e-05  2.9479337675751175e-05  1.1617686100317961e-05  3.4525613437098094e-05  2.0079950468201762e-05  1.7157272848074550e-05  1.9541322915201704e-05  1.4151562479957040e-05  1.2963276973744669e-05  1.1006986527558410e-05  1.9537475749663265e-06  8.0986626302237228e-06  7.6591301602622281e-06  1.0021580409025369e-05  3.6150287979750297e-06  1.3415165254912749e-05  1.0655141042503828e-05  3.3037241971161522e-06  1.2145460365573568e-05  3.2368215249540745e-05  7.8880623467930468e-06  1.0046675352662628e-05  4.7493711485448876e-06  2.6553553901231770e-06  1.9395656788567744e-37  -1.3097189664552035e-20  4.2304760426745282e-04  6.5497334761796826e-04  5.6693046113329810e-04  6.0331248756651868e-04  2.4657991244559995e-04  6.1009347021357904e-04  1.0814786263040137e-03  1.5422960752792044e-03  1.3881572301744415e-03  6.0534344230545837e-04  5.4319131284389624e-04  4.3355591110982172e-04  4.6364664874075666e-04  1.5163296204390802e-03  1.8737343013383286e-03  5.7578299472212644e-04  9.1212116354174959e-04  1.5300521336289578e-03  1.8450721363139061e-04  1.6748770975776176e-03  2.1488502742279377e-04  9.8643535072815466e-05  1.8634170499542883e-03  1.5462266791134377e-03  2.4892875230693740e-03  9.5067342604606558e-04  8.3367524593112592e-04  1.4129957216983274e-03  2.5105512280514885e-03  4.5385488521026106e-03  2.2003565869200535e-03  1.8394395431109599e-03  4.5536669574745723e-03  9.6240610559969941e-04  4.1289050122145536e-03  1.2156409709276758e-03  2.6187025468038055e-03  3.4710518908641708e-03  3.5139264805980485e-03  3.9027836902896214e-03  3.9944923005758469e-03  3.8932681892390338e-03  3.5443614573011464e-03  2.3315733600810158e-03  6.7838216008782207e-04  3.1657719794322293e-03  1.8007491320311082e-03  3.4417020815188494e-03  3.7299519025600254e-03  2.5608017836390826e-03  1.1880011471160539e-03  4.0073100595463542e-04  1.0040239707319240e-03  8.3744913794769817e-04  1.0562426098042904e-03  2.0901121626807162e-04  2.1014249041330326e-05  2.0508516691239077e-05  6.1842761997464837e-05  6.0120809064116030e-05  3.3739375065640130e-05  2.5193837659977634e-05  2.0827086530849603e-05  1.2141441894939656e-05  1.9853396200816253e-05  2.6641320690649479e-05  4.0386373389558634e-05  6.5409966640564396e-05  4.0059766391889476e-05  1.5638808275820476e-04  2.0583089886045854e-05  3.4616059121085349e-05  4.0622882982037112e-06  4.0718171035204183e-06  6.7032421368205625e-07  2.8874098146586078e-05  1.0460694349706124e-05  2.2206494469929934e-05  3.7023194735803120e-05  2.7644192637004294e-05  1.7052605822965855e-05  1.5474908460332234e-05  1.5240079295317567e-05  1.9853535990196004e-05  9.3967821160463398e-06  8.1960599906691968e-06  3.7437838807818773e-07  8.0313339097220530e-06  7.0952894851936067e-06  9.2634954439379314e-06  4.6072172023280474e-06  1.0006673294783693e-05  2.1449353034010151e-05  6.8434208939203850e-06  9.4256351688174398e-06  5.3554732413205787e-07  1.3540847823128981e-05  1.4415625734386900e-06  4.0411307058874263e-06  -2.2432781775979680e-22  -2.1088569220529072e-20  2.3593799397150913e-04  5.3611456622611241e-04  8.7961436148842472e-04  9.1575788550293509e-04  6.8948981882281906e-05  7.1543081911374219e-04  4.8126419758956539e-04  4.0265186647783232e-04  1.7736107894461902e-03  6.4449235774953375e-04  1.6735537092239594e-03  9.1460587766450387e-04  1.8979270056077699e-04  1.5444861443740007e-03  1.8495257777022885e-03  6.8282198450339505e-04  1.1219528248532324e-03  1.2050820773241498e-03  1.3369618495085360e-03  1.3841038764670574e-03  5.6759598581353589e-04  2.1531117983877995e-03  9.5277944371549041e-04  2.3456789843979138e-03  1.4338762653742412e-03  3.2238413307432686e-03  2.7804549520987591e-03  3.8743493279928499e-03  2.7562602721208926e-03  1.8073952539449669e-03  2.7292448721517272e-03  4.4970558946533165e-03  2.5676200424477585e-03  5.0923047629804546e-03  3.5702804622642593e-03  3.1662268129951285e-03  4.9581460443588667e-04  4.0421797183797237e-03  3.8278603094662154e-03  4.1335854450612582e-03  4.3570904676579706e-03  4.3592793012906875e-03  4.0743057088748914e-03  3.1117984045201225e-03  1.8259558284824319e-03  2.8999719848700873e-03  2.2451466390237306e-03  4.6146023047868873e-03  8.8008261986738422e-04  8.4426526900988140e-04  8.7418498552380088e-04  6.4943430182917478e-04  3.4271873638317622e-04  1.8664791404619391e-03  4.6604753131208317e-04  8.5417025389940390e-04  6.9937420565449631e-05  1.4134923493392601e-05  2.1735462403440290e-05  5.8941936513702102e-05  4.7517709877069893e-05  2.8782165820819674e-05  2.3276358061102817e-05  1.9909278372985225e-05  1.7137677521728084e-05  1.7218003409063715e-05  4.2536551227293541e-05  4.6037083114388683e-05  5.4926658069352051e-05  1.4291444753815455e-04  1.1494750499086246e-04  3.2687213716215827e-05  2.3253692018789859e-05  2.6272458277466946e-06  1.9194656753982454e-06  1.1828782618807780e-05  2.4175246745186188e-05  3.7412571347060111e-05  6.0763161576462707e-06  4.1726060436542537e-05  2.1505589547781336e-05  1.5806218109253342e-05  1.5013212456792270e-05  1.2427102027265210e-05  1.5870528129293206e-05  9.9930179837023864e-06  3.3668958695740618e-06  4.6433196495442759e-06  7.9320846793432862e-06  9.2752304160815328e-06  3.0186946297348730e-06  4.2999694913312160e-06  1.1781246139418593e-05  7.7778339255852147e-06  1.0084384231102320e-05  3.2963613912014374e-05  9.5489005310529316e-06  1.1455303236384746e-05  9.8970441592400119e-07  -1.3734907876650162e-22  -1.5374526778652917e-20  3.7989788993340797e-04  6.5246403065410497e-04  7.1483257202803029e-04  7.0437430471644448e-04  9.8559253863344403e-04  1.2627742124887115e-04  5.1770665650731438e-04  1.0094444963889117e-03  1.6029915315597335e-03  1.7763370770429322e-03  7.5987551719321525e-04  5.6785398169057551e-04  6.6538948739767025e-04  4.2872915573449391e-04  1.8497362059573493e-03  2.1522981764114635e-03  6